Control file title. For DL_FIELD 4.10
49660
    1MOL     C1    1   0.736   8.014   1.123  0.2793  0.3519  0.9087
    1MOL     C2    2   0.680   8.128   1.048 -0.1637  1.1523 -0.8370
    1MOL     O3    3   0.669   8.124   1.190 -0.1653  0.1603  0.0343
    1MOL     C4    4   0.544   8.135   0.980  0.5246 -0.0839  0.2879
    1MOL     O5    5   0.459   8.020   0.988 -0.1931 -0.6153 -0.2138
    1MOL     C6    6   0.471   7.924   0.887  0.9781  0.8515 -0.2696
    1MOL     C7    7   0.564   7.928   0.783 -0.3576  0.0972 -0.1985
    1MOL     C8    8   0.569   7.824   0.686  0.4778  0.1879 -0.6312
    1MOL     C9    9   0.479   7.718   0.687  0.1672  0.2278 -0.2566
    1MOL    C10   10   0.389   7.706   0.798  0.5802 -0.1920  0.0092
    1MOL    C11   11   0.385   7.808   0.900  0.4920  0.5620  0.1257
    1MOL    H12   12   0.843   7.998   1.112  0.4017  1.6933 -0.0582
    1MOL    H13   13   0.749   0.040   1.024 -0.1337  1.4636  0.3084
    1MOL    H14   14   0.552   0.010   0.881  2.4090  0.5496  0.7062
    1MOL    H15   15   0.484   0.044   1.027  0.9118  0.3569  0.0510
    1MOL    H16   16   0.634   8.008   0.763 -0.5922 -0.0492 -1.6710
    1MOL    H17   17   0.641   7.822   0.606  0.6274 -0.7593 -0.4725
    1MOL    H18   18   0.495   7.645   0.609  1.4183  2.9714 -2.6622
    1MOL    H19   19   0.317   7.626   0.807  1.1607 -0.9745 -1.9932
    1MOL    H20   20   0.678   7.922   1.127  0.4390  0.1953 -0.2311
    1MOL    C21   21   0.292   7.796   1.019  0.5222  0.0989  0.7622
    1MOL    C22   22   0.151   7.842   1.027 -0.0123 -0.3775  0.3421
    1MOL    O23   23   0.183   7.705   0.991  0.0665  0.2796  0.0828
    1MOL    C24   24   0.086   7.920   0.909  0.3889  0.0029 -0.2736
    1MOL    O25   25   8.128   7.984   0.932 -0.5906  0.0789  0.1003
    1MOL    C26   26   8.029   7.914   0.996  0.1709  0.0152  0.5463
    1MOL    C27   27   8.020   7.773   0.986  0.0687  0.5917 -0.4910
    1MOL    C28   28   7.920   7.705   1.057  0.4682 -0.6151  0.1822
    1MOL    C29   29   7.832   7.778   1.134  0.1717 -0.2516 -0.1065
    1MOL    C30   30   7.844   7.916   1.149 -1.0436  0.5525  0.0758
    1MOL    C31   31   7.942   7.986   1.078  0.2544  0.1825  0.1200
    1MOL    H32   32   0.349   7.770   1.108  0.5573  0.0850  0.7357
    1MOL    H33   33   0.110   7.865   1.125  2.3664 -0.5865  1.4070
    1MOL    H34   34   0.066   7.869   0.815  1.2324  2.0891 -1.6414
    1MOL    H35   35   0.167   7.991   0.891  0.0613  0.5311  0.2792
    1MOL    H36   36   8.083   7.716   0.919  0.4797 -0.5105  0.7985
    1MOL    H37   37   7.911   7.599   1.039  0.6988 -0.8976  1.6673
    1MOL    H38   38   7.738   7.734   1.165 -0.4530  2.2287  1.7484
    1MOL    H39   39   7.763   7.975   1.189 -0.3672  1.6269 -0.1379
    1MOL    C40   40   7.944   8.134   1.093 -0.4886  0.4676 -0.3267
    1MOL    C41   41   7.903   0.061   0.988 -0.2515 -0.4019  0.6973
    1MOL    O42   42   7.806   0.013   1.087 -0.3040  0.5548  0.6193
    1MOL    C43   43   7.883   0.024   0.839  0.3068 -0.4569  0.3506
    1MOL    O44   44   7.749   0.046   0.799 -0.0790  0.2946 -0.1835
    1MOL    C45   45   7.719   0.168   0.737  0.2349  0.0209 -0.5276
    1MOL    C46   46   7.813   0.264   0.701 -1.0993 -0.8588 -0.1849
    1MOL    C47   47   7.774   0.390   0.656 -0.4241 -0.3787 -0.6143
    1MOL    C48   48   7.637   0.419   0.635 -0.7375  0.0625 -0.2977
    1MOL    C49   49   7.540   0.322   0.662 -0.2000  0.0300  0.3645
    1MOL    C50   50   7.580   0.195   0.719 -0.2718  0.1360 -0.7304
    1MOL    H51   51   7.993   0.008   1.179 -1.2708 -1.8793  1.3680
    1MOL    H52   52   7.934   0.164   1.007 -1.5104 -0.0133  0.6735
    1MOL    H53   53   7.908   8.088   0.832 -1.0227 -0.8705  1.5257
    1MOL    H54   54   7.967   0.067   0.785  0.2317  2.9063  2.7316
    1MOL    H55   55   7.919   0.245   0.715 -1.1799  0.4009  2.5957
    1MOL    H56   56   7.844   0.472   0.641 -0.0710 -0.1928  1.8354
    1MOL    H57   57   7.593   0.512   0.601 -0.6893 -0.0442 -0.6597
    1MOL    H58   58   7.433   0.328   0.651 -0.0792  0.9908 -0.3627
    1MOL    C59   59   7.480   0.092   0.764 -0.8094 -0.3825  0.0390
    1MOL    C60   60   7.437   0.057   0.900 -0.3189 -1.0024 -0.6257
    1MOL    O61   61   7.354   0.134   0.816 -0.4018  0.2265  0.2377
    1MOL    C62   62   7.489   0.136   1.025  0.1560  0.1165 -0.6542
    1MOL    O63   63   7.411   0.116   1.145 -0.5691 -0.0679  0.5188
    1MOL    C64   64   7.411   8.163   1.209 -0.3451 -0.4386  0.7676
    1MOL    C65   65   7.496   8.057   1.184  0.8599 -0.0508  0.0478
    1MOL    C66   66   7.496   7.939   1.260 -0.0883  0.3309  1.1157
    1MOL    C67   67   7.403   7.926   1.366 -0.0288 -0.5730  0.4161
    1MOL    C68   68   7.314   8.029   1.395  0.4933  0.2108 -0.6427
    1MOL    C69   69   7.324   8.149   1.326  1.2839 -0.1437 -0.0189
    1MOL    H70   70   7.464   0.010   0.695 -3.0233 -0.9035  1.1572
    1MOL    H71   71   7.408   8.123   0.918  0.4318 -1.0091  0.6008
    1MOL    H72   72   7.492   0.244   1.009  2.7433  0.0658 -0.7145
    1MOL    H73   73   7.592   0.108   1.046 -0.7846 -1.7970  1.6337
    1MOL    H74   74   7.566   8.065   1.102  1.3585  0.0408  0.4853
    1MOL    H75   75   7.550   7.852   1.225 -0.3579 -1.4686  4.8450
    1MOL    H76   76   7.393   7.831   1.416  0.0000 -1.0637 -0.5058
    1MOL    H77   77   7.241   8.022   1.474 -0.8111 -1.2025 -1.9652
    1MOL    C78   78   7.224   0.080   1.359  0.5668  0.6887 -0.0965
    1MOL    C79   79   7.102   0.119   1.280  0.3027 -0.5006 -0.0929
    1MOL    O80   80   7.090   0.020   1.377 -0.2719 -0.0064  0.5738
    1MOL    C81   81   7.058   0.073   1.147 -0.1531  0.3844 -0.1054
    1MOL    O82   82   6.920   0.093   1.136  0.0532 -0.3184 -0.4028
    1MOL    C83   83   6.835   0.001   1.192  0.2140 -0.3124 -0.1454
    1MOL    C84   84   6.855   8.030   1.165 -0.5702  0.2161 -0.8959
    1MOL    C85   85   6.769   7.931   1.222 -0.6617  0.3910 -0.2157
    1MOL    C86   86   6.666   7.970   1.304  0.0420 -0.7197  0.0841
    1MOL    C87   87   6.646   8.104   1.334 -0.4161  0.6209  0.0765
    1MOL    C88   88   6.724   0.037   1.277 -0.6502 -0.1938  0.7783
    1MOL    H89   89   7.254   0.133   1.448  1.5418 -0.5481  0.3260
    1MOL    H90   90   7.061   0.217   1.306  0.0754  0.1031 -2.5751
    1MOL    H91   91   7.084   8.138   1.134  2.5993  1.5791 -5.5641
    1MOL    H92   92   7.104   0.123   1.063 -0.0770 -0.8177 -0.7869
    1MOL    H93   93   6.942   8.003   1.106 -2.2122 -2.1036 -2.3586
    1MOL    H94   94   6.793   7.828   1.202 -2.5747 -0.1000 -0.0656
    1MOL    H95   95   6.584   7.910   1.342 -0.4796  0.7478  1.3561
    1MOL    H96   96   6.558   8.136   1.388 -0.4892  0.6702 -0.0742
    1MOL    C97   97   6.689   0.183   1.302  0.1434 -0.0385  0.1578
    1MOL    C98   98   6.575   0.261   1.235  0.0367  1.1766  0.1051
    1MOL    O99   99   6.559   0.204   1.361  0.1970 -0.5157 -0.0826
    1MOL   C100  100   6.489   0.203   1.123 -1.2509 -0.7234 -0.5748
    1MOL   O101  101   6.378   0.281   1.130 -0.1550 -0.7842 -0.2031
    1MOL   C102  102   6.322   0.315   1.015  0.3357 -0.3837 -0.3464
    1MOL   C103  103   6.392   0.407   0.935 -0.4496 -0.6129 -0.0720
    1MOL   C104  104   6.348   0.446   0.809  0.0770  0.2945 -0.2778
    1MOL   C105  105   6.233   0.389   0.759  0.2808 -1.1560 -0.1011
    1MOL   C106  106   6.155   0.304   0.843  0.4474  0.7455 -0.2210
    1MOL   C107  107   6.203   0.259   0.971 -0.9421  0.2285 -0.0092
    1MOL   H108  108   6.776   0.235   1.341 -0.7511  2.0334 -0.5049
    1MOL   H109  109   6.580   0.370   1.237 -1.7857  1.2664  2.4617
    1MOL   H110  110   6.465   0.098   1.141 -1.3861 -0.7661 -0.9740
    1MOL   H111  111   6.550   0.216   1.033 -0.9617 -3.2000 -0.7812
    1MOL   H112  112   6.479   0.450   0.982 -0.5044  1.7297 -2.0193
    1MOL   H113  113   6.402   0.526   0.760 -1.0876  1.3143  0.0830
    1MOL   H114  114   6.193   0.421   0.664  0.8363 -2.0362 -0.6499
    1MOL   H115  115   6.060   0.269   0.805  1.3326  0.0115 -1.8092
    1MOL   C116  116   6.130   0.153   1.045  0.2115  0.1252 -0.7606
    1MOL   C117  117   6.061   0.171   1.176 -0.5386  0.2649 -0.0445
    1MOL   O118  118   5.990   0.163   1.050  0.4329 -0.3345  0.2395
    1MOL   C119  119   6.050   0.307   1.237 -0.4733 -0.1246  0.1300
    1MOL   O120  120   5.921   0.329   1.298  0.8887  0.0621 -0.0840
    1MOL   C121  121   5.866   0.451   1.306 -0.0430  0.0702 -1.8147
    1MOL   C122  122   5.946   0.570   1.325 -0.7330 -0.5112 -0.3221
    1MOL   C123  123   5.892   0.699   1.345 -0.0797 -0.3393 -0.2939
    1MOL   C124  124   5.753   0.695   1.349  0.3679 -0.6095 -0.2821
    1MOL   C125  125   5.671   0.586   1.335  0.1864 -0.3459  0.1174
    1MOL   C126  126   5.730   0.459   1.313  0.0986 -0.2934 -0.4954
    1MOL   H127  127   6.184   0.059   1.038  0.0229  0.1066 -2.0662
    1MOL   H128  128   6.047   0.078   1.230  1.4888 -0.7686 -1.2300
    1MOL   H129  129   6.068   0.384   1.162  1.9718  1.0499  1.8286
    1MOL   H130  130   6.134   0.330   1.303  0.4049  0.3705 -1.1349
    1MOL   H131  131   6.053   0.562   1.334 -0.5747 -0.1435 -1.6624
    1MOL   H132  132   5.952   0.789   1.348  0.7621 -0.9320  1.0956
    1MOL   H133  133   5.706   0.791   1.365  1.3025  0.1964 -2.2509
    1MOL   H134  134   5.563   0.599   1.332  0.1907 -0.4317 -0.4824
    1MOL   C135  135   5.647   0.334   1.292  0.0082  0.4154  0.4754
    1MOL   C136  136   5.564   0.269   1.402 -0.7026  0.0698  0.3006
    1MOL   O137  137   5.502   0.344   1.295 -0.5767 -0.0421  0.1373
    1MOL   C138  138   5.560   0.322   1.547 -0.2389  0.5761  0.1753
    1MOL   O139  139   5.449   0.266   1.607 -0.5036  0.2400  0.3816
    1MOL   C140  140   5.358   0.350   1.671 -0.2707  0.0301 -0.1490
    1MOL   C141  141   5.395   0.421   1.789 -0.2428 -0.6945  0.1693
    1MOL   C142  142   5.296   0.499   1.856  1.0384 -0.2790  0.5247
    1MOL   C143  143   5.165   0.508   1.805  0.3077  0.0459 -0.3193
    1MOL   C144  144   5.127   0.443   1.687 -0.2392  0.2479  0.1652
    1MOL   C145  145   5.223   0.357   1.620  0.3688 -0.3617 -0.4656
    1MOL   H146  146   5.693   0.274   1.214 -2.3751 -1.0724  0.1584
    1MOL   H147  147   5.558   0.161   1.393 -1.0973  0.3265 -2.9001
    1MOL   H148  148   5.566   0.431   1.550  1.1575  0.5171 -0.1892
    1MOL   H149  149   5.650   0.295   1.601  0.7017 -1.3455 -2.2740
    1MOL   H150  150   5.498   0.427   1.822  0.0569 -3.4012 -0.1594
    1MOL   H151  151   5.324   0.562   1.939 -1.9724  0.8471  0.7501
    1MOL   H152  152   5.091   0.573   1.850 -0.6917 -0.5292 -1.0825
    1MOL   H153  153   5.024   0.444   1.655 -0.8127  0.3062  1.9704
    1MOL   C154  154   5.197   0.279   1.499  0.8138  0.4579  0.1890
    1MOL   C155  155   5.094   0.167   1.507  0.5473 -0.3058 -0.8963
    1MOL   O156  156   5.063   0.294   1.453 -0.2493 -0.1090 -0.3178
    1MOL   C157  157   5.011   0.131   1.630 -0.2624 -0.0005 -0.0813
    1MOL   O158  158   4.930   0.018   1.616 -0.0952 -0.4302 -0.0858
    1MOL   C159  159   4.856   8.161   1.502 -0.3672 -0.0085  0.2318
    1MOL   C160  160   4.810   0.095   1.420  0.3543 -1.0374 -0.0440
    1MOL   C161  161   4.735   0.076   1.305 -0.1535  0.3605  0.4750
    1MOL   C162  162   4.683   8.109   1.290 -0.0499  0.0710  0.5257
    1MOL   C163  163   4.731   8.005   1.375  0.4415  0.7345  0.6074
    1MOL   C164  164   4.819   8.027   1.481  0.5527 -0.1643 -0.4251
    1MOL   H165  165   5.264   0.278   1.414 -1.6377  0.6961 -1.7941
    1MOL   H166  166   5.117   0.084   1.439 -0.0933 -0.2608 -1.1759
    1MOL   H167  167   4.942   0.213   1.650 -0.9688 -0.3426 -1.0818
    1MOL   H168  168   5.074   0.116   1.717  0.4950 -0.7539 -0.7494
    1MOL   H169  169   4.826   0.198   1.449  1.0551 -0.0619 -3.5896
    1MOL   H170  170   4.723   0.159   1.237 -0.3617 -0.5459 -0.6182
    1MOL   H171  171   4.616   8.079   1.211  0.2582 -2.1249  1.0659
    1MOL   H172  172   4.691   7.906   1.357 -0.1936  0.5651  2.7976
    1MOL   C173  173   4.882   7.917   1.559 -0.0599 -0.1209  0.2530
    1MOL   C174  174   4.843   7.893   1.704 -0.7145  0.2202  0.0518
    1MOL   O175  175   4.786   7.819   1.598  0.6528 -0.1438 -0.1176
    1MOL   C176  176   4.740   7.982   1.773  0.3058  0.0225  0.1447
    1MOL   O177  177   4.762   7.970   1.911 -0.3345  0.7868  0.3511
    1MOL   C178  178   4.677   8.033   1.992  0.2098  0.3295  0.1236
    1MOL   C179  179   4.573   8.124   1.950 -0.2220 -1.0036  0.5109
    1MOL   C180  180   4.500   0.026   2.047  0.4065 -0.0714 -0.4995
    1MOL   C181  181   4.516   0.007   2.184  0.6348  0.1022  0.4716
    1MOL   C182  182   4.609   8.081   2.230 -0.6020  0.3272  0.2772
    1MOL   C183  183   4.689   8.014   2.132  0.3150  0.0190  0.2851
    1MOL   H184  184   4.975   7.876   1.520 -2.3848 -4.4433 -1.0683
    1MOL   H185  185   4.906   7.833   1.769 -0.1078  1.0509  0.2482
    1MOL   H186  186   4.635   7.963   1.752  0.3029 -1.4769  1.4153
    1MOL   H187  187   4.754   8.088   1.751 -0.4558  0.0560 -0.1823
    1MOL   H188  188   4.545   8.147   1.849  2.9496 -0.0624 -0.2081
    1MOL   H189  189   4.427   0.102   2.020 -1.4679 -0.1975  3.7904
    1MOL   H190  190   4.453   0.059   2.254 -1.2025 -1.4485 -0.0043
    1MOL   H191  191   4.614   8.062   2.336 -0.4886  2.8648  0.7686
    1MOL   C192  192   4.784   7.908   2.175  0.5752  0.1157 -0.3923
    1MOL   C193  193   4.906   7.930   2.258 -0.1045 -0.2413  0.0529
    1MOL   O194  194   4.786   7.890   2.323  0.2912 -0.6638 -0.3944
    1MOL   C195  195   4.966   8.057   2.312  0.3924 -0.8584 -0.3507
    1MOL   O196  196   4.963   0.004   2.227 -0.6817 -0.4115  0.1304
    1MOL   C197  197   5.077   0.069   2.173 -0.0464  0.4212  0.0998
    1MOL   C198  198   5.201   0.070   2.236  0.6012  0.0127 -0.8436
    1MOL   C199  199   5.308   0.133   2.170  0.3175 -0.3138 -0.0870
    1MOL   C200  200   5.291   0.188   2.041  0.1844 -0.0108 -0.5767
    1MOL   C201  201   5.166   0.188   1.982  0.1746 -0.2214 -0.4204
    1MOL   C202  202   5.058   0.126   2.045 -0.4293 -0.4578 -0.2329
    1MOL   H203  203   4.765   7.819   2.115  3.0862  1.0229 -2.6232
    1MOL   H204  204   4.973   7.844   2.261 -0.1173 -0.2370  0.6199
    1MOL   H205  205   5.071   8.041   2.334  0.8840  0.7109 -1.4416
    1MOL   H206  206   4.926   8.091   2.407  0.4193 -0.0186 -0.6355
    1MOL   H207  207   5.221   0.033   2.336 -1.5633 -0.1580 -0.4496
    1MOL   H208  208   5.402   0.136   2.222 -0.1657  1.0377  0.7351
    1MOL   H209  209   5.372   0.239   1.992  1.9970 -1.3605  0.9600
    1MOL   H210  210   5.148   0.240   1.889  0.5585  0.3758 -0.1711
    1MOL   C211  211   4.921   0.130   1.987 -0.4322  0.1803  0.8398
    1MOL   C212  212   4.814   0.218   2.040 -0.9382 -0.6141 -0.6627
    1MOL   O213  213   4.886   0.258   1.928 -0.7951 -0.1720  0.5755
    1MOL   C214  214   4.834   0.311   2.160 -0.0981  0.3190  0.2866
    1MOL   O215  215   4.729   0.416   2.148  0.3969  0.4319  0.0937
    1MOL   C216  216   4.711   0.503   2.260 -0.1828 -0.3969  0.8048
    1MOL   C217  217   4.798   0.497   2.367 -0.2767  0.3105  0.4197
    1MOL   C218  218   4.773   0.579   2.479 -0.5264  0.1152 -0.1362
    1MOL   C219  219   4.659   0.656   2.491 -0.0694 -0.1496 -0.5618
    1MOL   C220  220   4.571   0.664   2.385 -0.5753  0.5094  0.2911
    1MOL   C221  221   4.594   0.588   2.264  1.0311 -0.2691 -0.7412
    1MOL   H222  222   4.882   0.043   1.935  1.1159 -0.0192 -0.0144
    1MOL   H223  223   4.712   0.190   2.016 -0.9710 -1.2705  0.2024
    1MOL   H224  224   4.926   0.369   2.163  0.4794 -0.6535  1.2362
    1MOL   H225  225   4.837   0.258   2.255  1.4651  0.9771  0.6034
    1MOL   H226  226   4.888   0.438   2.375  0.3137  1.0088 -0.9675
    1MOL   H227  227   4.848   0.583   2.556 -0.8889  1.4779  0.1565
    1MOL   H228  228   4.625   0.702   2.583  1.3204  0.6473 -0.4339
    1MOL   H229  229   4.474   0.711   2.398 -0.5318  0.5991  0.2958
    1MOL   C230  230   4.495   0.597   2.154 -0.0627  0.5594  0.8865
    1MOL   C231  231   4.382   0.498   2.136 -0.7735 -0.1546  0.4552
    1MOL   O232  232   4.363   0.628   2.194 -0.0693  0.6389 -0.1072
    1MOL   C233  233   4.386   0.368   2.214  0.1723 -0.7597 -0.2530
    1MOL   O234  234   4.257   0.316   2.226 -0.8617  0.4719  0.1093
    1MOL   C235  235   4.155   0.381   2.302 -0.7038 -0.2473 -0.4767
    1MOL   C236  236   4.182   0.489   2.385 -0.9230 -0.0051  0.3132
    1MOL   C237  237   4.085   0.543   2.469 -0.1868  0.2127 -0.5548
    1MOL   C238  238   3.960   0.486   2.476  0.2738 -0.4419  0.5755
    1MOL   C239  239   3.924   0.386   2.385 -0.4532  0.3128 -0.1491
    1MOL   C240  240   4.018   0.332   2.297 -0.5122  0.0173 -0.1857
    1MOL   H241  241   4.525   0.669   2.077  2.0493 -0.7230  0.4839
    1MOL   H242  242   4.351   0.493   2.031 -1.5898 -0.2255  0.6972
    1MOL   H243  243   4.417   0.386   2.317  0.2424  0.7911 -0.5362
    1MOL   H244  244   4.456   0.295   2.174  1.8952 -0.8819  2.8381
    1MOL   H245  245   4.281   0.526   2.405 -0.9234  0.4658 -0.5138
    1MOL   H246  246   4.119   0.616   2.541  0.5952 -1.3745  0.7177
    1MOL   H247  247   3.883   0.535   2.533 -1.4631 -2.0275 -0.3487
    1MOL   H248  248   3.819   0.363   2.378  0.1177 -1.9917 -1.6035
    1MOL   C249  249   3.986   0.233   2.188  0.0847  0.5237  0.4186
    1MOL   C250  250   3.930   0.096   2.222 -0.2738 -0.4541 -0.0184
    1MOL   O251  251   3.845   0.200   2.158 -0.4302 -0.4309  0.1010
    1MOL   C252  252   3.891   0.057   2.366 -0.0168 -0.0053 -0.1371
    1MOL   O253  253   3.841   8.098   2.372  0.0665  0.0558  0.4283
    1MOL   C254  254   3.734   8.063   2.301  0.2249  1.0249 -0.2898
    1MOL   C255  255   3.636   8.150   2.254 -0.0425 -0.5656 -0.3180
    1MOL   C256  256   3.521   8.109   2.182  0.2239  0.4929  0.2164
    1MOL   C257  257   3.517   7.971   2.155 -0.4152  0.4540 -0.1077
    1MOL   C258  258   3.612   7.881   2.200 -0.2363 -0.0668 -0.3260
    1MOL   C259  259   3.720   7.926   2.276 -0.1145  0.3285  0.2587
    1MOL   H260  260   4.045   0.243   2.097  1.3820  1.7078  1.3665
    1MOL   H261  261   3.946   0.012   2.154  0.7337  0.0958 -0.4662
    1MOL   H262  262   3.826   0.133   2.409 -0.5651  1.1681 -2.8997
    1MOL   H263  263   3.981   0.074   2.425 -0.5884 -1.3490  1.1283
    1MOL   H264  264   3.645   0.087   2.272 -0.0260 -0.1320 -2.7251
    1MOL   H265  265   3.450   0.013   2.148  0.3901  1.5657  2.1305
    1MOL   H266  266   3.440   7.923   2.096  0.2122  0.0366 -0.5913
    1MOL   H267  267   3.620   7.774   2.182 -0.5813 -0.4592  1.7932
    1MOL   C268  268   3.835   7.843   2.330 -0.1273  0.1570 -0.3912
    1MOL   C269  269   3.830   7.732   2.423 -0.3357 -0.2723 -0.2071
    1MOL   O270  270   3.819   7.708   2.286  0.4431 -0.7231  0.4686
    1MOL   C271  271   3.710   7.701   2.509  0.0323 -0.4678 -0.2046
    1MOL   O272  272   3.758   7.659   2.633 -0.2872 -0.2415  0.1236
    1MOL   C273  273   3.668   7.640   2.733 -0.4893 -0.4370  0.0683
    1MOL   C274  274   3.534   7.673   2.723  0.2054 -0.0498 -0.2017
    1MOL   C275  275   3.450   7.659   2.838 -0.3507  0.0589 -0.9164
    1MOL   C276  276   3.506   7.623   2.967 -0.5262  0.2340  0.0358
    1MOL   C277  277   3.639   7.595   2.973 -0.3807  0.9297  0.1036
    1MOL   C278  278   3.721   7.598   2.857 -0.3985  0.0132 -0.1332
    1MOL   H279  279   3.933   7.881   2.301 -0.5935  1.5026 -0.2397
    1MOL   H280  280   3.928   7.700   2.455 -0.3870 -1.7863 -1.5103
    1MOL   H281  281   3.647   7.621   2.469 -0.6916  0.3950 -0.8114
    1MOL   H282  282   3.655   7.795   2.518 -0.7963 -0.6879 -2.6015
    1MOL   H283  283   3.481   7.715   2.638  2.5211  1.1789 -1.0878
    1MOL   H284  284   3.347   7.684   2.823  0.2471  2.4110 -1.2341
    1MOL   H285  285   3.447   7.614   3.057 -2.4552  0.6812 -1.1541
    1MOL   H286  286   3.674   7.559   3.069  2.9414 -0.4344 -1.5272
    1MOL   C287  287   3.868   7.562   2.859  0.4234 -0.1063  0.1227
    1MOL   C288  288   3.983   7.652   2.894 -0.4020 -0.5579 -0.1865
    1MOL   O289  289   3.912   7.577   2.992 -0.6514 -0.4706 -0.0767
    1MOL   C290  290   3.963   7.795   2.906 -0.3617 -0.2052 -0.9653
    1MOL   O291  291   4.087   7.870   2.916 -0.0046 -0.1324  0.5949
    1MOL   C292  292   4.150   7.890   3.035 -0.4579  0.2473 -0.0016
    1MOL   C293  293   4.151   7.799   3.141 -0.4923  0.1140 -0.5874
    1MOL   C294  294   4.226   7.822   3.257  0.1940  0.2179 -0.1287
    1MOL   C295  295   4.295   7.944   3.279 -0.4253  0.0730  0.0101
    1MOL   C296  296   4.294   8.033   3.171 -0.6254 -0.9086  0.3026
    1MOL   C297  297   4.225   8.005   3.047 -0.1701  0.2267  0.5909
    1MOL   H298  298   3.879   7.460   2.822 -0.1388  0.6560 -2.2817
    1MOL   H299  299   4.084   7.618   2.875  0.9499  2.5591  1.0783
    1MOL   H300  300   3.901   7.814   2.995  0.1541 -1.0427 -0.4226
    1MOL   H301  301   3.898   7.831   2.826  1.4292 -0.5254 -2.5989
    1MOL   H302  302   4.097   7.707   3.131 -1.0284  0.4396 -0.7304
    1MOL   H303  303   4.217   7.746   3.333  1.2263  1.5009  1.3139
    1MOL   H304  304   4.348   7.968   3.369  0.8247 -1.0089 -0.4286
    1MOL   H305  305   4.328   8.134   3.187  0.3347 -0.9029 -1.6385
    1MOL   C306  306   4.225   8.095   2.926 -0.4625  0.0023  0.4939
    1MOL   C307  307   4.107   0.007   2.882  0.2522  0.4120 -0.0555
    1MOL   O308  308   4.217   0.066   2.948 -0.0138 -0.6902 -0.8435
    1MOL   C309  309   3.980   8.168   2.964 -0.4228 -0.1839 -0.4338
    1MOL   O310  310   3.910   0.119   2.956  0.0696 -0.5051 -0.4921
    1MOL   C311  311   3.833   0.138   2.847  0.0373  0.0263 -0.2307
    1MOL   C312  312   3.784   0.039   2.758 -0.2670 -0.3984  0.1193
    1MOL   C313  313   3.704   0.073   2.650  0.1554 -0.3772  0.5541
    1MOL   C314  314   3.669   0.208   2.624 -0.2066  0.1459 -0.1620
    1MOL   C315  315   3.709   0.303   2.719  0.1119  0.4199  0.6842
    1MOL   C316  316   3.790   0.272   2.822 -0.0637 -0.4892 -0.1822
    1MOL   H317  317   4.293   8.067   2.845  0.6718 -0.2850  1.5283
    1MOL   H318  318   4.101   0.039   2.778 -0.7716 -0.8833 -0.4225
    1MOL   H319  319   4.000   8.156   3.071 -3.1061  1.2558  0.2828
    1MOL   H320  320   3.931   8.071   2.953 -0.2900 -0.2846 -0.1548
    1MOL   H321  321   3.797   8.103   2.774 -0.8676 -0.8369 -2.0195
    1MOL   H322  322   3.657   8.165   2.593  0.8615  0.3854 -1.0973
    1MOL   H323  323   3.612   0.240   2.538 -0.2764  3.0412  0.8841
    1MOL   H324  324   3.679   0.407   2.710 -2.0048 -0.2596 -0.3195
    1MOL   C325  325   3.845   0.379   2.914  0.8888 -0.2212  0.1220
    1MOL   C326  326   3.990   0.432   2.908 -0.2764  0.8583  0.3479
    1MOL   O327  327   3.877   0.502   2.852 -0.1383 -0.8821  0.8223
    1MOL   C328  328   4.079   0.391   2.794  0.3589 -0.1689 -0.4070
    1MOL   O329  329   4.194   0.472   2.787 -0.2359 -0.1492  0.4300
    1MOL   C330  330   4.298   0.460   2.877 -0.3823  0.2119 -0.4035
    1MOL   C331  331   4.309   0.363   2.982 -0.1616 -0.1461  0.1324
    1MOL   C332  332   4.419   0.364   3.073  0.3898 -0.1296  0.4768
    1MOL   C333  333   4.510   0.470   3.054  0.1062  1.1814 -0.3586
    1MOL   C334  334   4.499   0.567   2.957 -0.0247 -0.3719  0.0894
    1MOL   C335  335   4.391   0.564   2.868 -0.4954 -0.0011  0.1686
    1MOL   H336  336   3.792   0.389   3.009  0.2906 -2.8138  0.0994
    1MOL   H337  337   4.033   0.479   2.997  0.4650  0.5063  0.1819
    1MOL   H338  338   4.037   0.398   2.694  0.4861  0.2558 -0.4297
    1MOL   H339  339   4.103   0.286   2.813  0.9146 -0.1570 -1.0513
    1MOL   H340  340   4.228   0.293   2.995  0.4697 -1.0835 -0.8618
    1MOL   H341  341   4.425   0.292   3.153  1.6699  0.0905  0.5787
    1MOL   H342  342   4.582   0.470   3.134  2.0073  0.7450 -2.0228
    1MOL   H343  343   4.574   0.645   2.956 -0.6608  0.2741  1.2682
    1MOL   C344  344   4.381   0.672   2.757  0.6099  0.1588  0.4715
    1MOL   C345  345   4.324   0.804   2.783 -0.6644  0.2057  0.2089
    1MOL   O346  346   4.467   0.779   2.780 -0.0952  0.3164  0.3405
    1MOL   C347  347   4.270   0.842   2.920 -0.2275  0.3459  0.0926
    1MOL   O348  348   4.183   0.959   2.912 -0.3100  0.0842  0.5536
    1MOL   C349  349   4.047   0.949   2.881  0.1436  0.4757 -0.4218
    1MOL   C350  350   3.992   0.833   2.820  0.0131 -0.2878 -0.0707
    1MOL   C351  351   3.854   0.828   2.793  0.0180  0.1650 -0.1516
    1MOL   C352  352   3.768   0.934   2.832 -0.3354  0.0780  0.6126
    1MOL   C353  353   3.825   1.049   2.878  0.0705  0.1521  0.0581
    1MOL   C354  354   3.965   1.065   2.900  0.6702  0.2363  0.2537
    1MOL   H355  355   4.398   0.632   2.657  2.1868 -0.2658  0.8972
    1MOL   H356  356   4.297   0.869   2.700  1.9312  1.1451  0.0706
    1MOL   H357  357   4.355   0.874   2.980  0.9575 -0.0338 -1.3695
    1MOL   H358  358   4.211   0.763   2.967  0.6602  0.3541  1.2522
    1MOL   H359  359   4.050   0.745   2.795 -0.2201  0.0965 -1.9979
    1MOL   H360  360   3.797   0.744   2.754 -0.0039  0.1042  0.0087
    1MOL   H361  361   3.662   0.926   2.814  0.0317  0.4019 -1.8108
    1MOL   H362  362   3.765   1.128   2.922  0.0725 -0.9110  2.0175
    1MOL   C363  363   4.026   1.199   2.943  0.2869  0.3116 -0.3491
    1MOL   C364  364   4.124   1.283   2.857  0.7089 -0.0694 -0.0389
    1MOL   O365  365   3.978   1.300   2.855 -0.1849  0.1922 -0.1162
    1MOL   C366  366   4.180   1.241   2.724  0.1747  0.5048 -0.1178
    1MOL   O367  367   4.297   1.302   2.684  0.6731 -0.2437 -0.5154
    1MOL   C368  368   4.409   1.293   2.768 -0.0625  1.4700 -0.7210
    1MOL   C369  369   4.447   1.165   2.817 -0.6067 -0.6321  0.7862
    1MOL   C370  370   4.561   1.154   2.901  0.4212  0.6236 -0.6987
    1MOL   C371  371   4.634   1.271   2.938 -0.3764  0.0920 -0.4205
    1MOL   C372  372   4.585   1.395   2.903  0.9067 -0.2722 -0.0976
    1MOL   C373  373   4.474   1.409   2.815 -0.0609 -0.1646  0.2646
    1MOL   H374  374   4.003   1.220   3.047  1.0032  0.7078 -0.2642
    1MOL   H375  375   4.166   1.369   2.910 -0.6269  0.6066 -0.0658
    1MOL   H376  376   4.102   1.264   2.651  0.3158  1.7326  0.0970
    1MOL   H377  377   4.189   1.133   2.736 -1.7796  0.1696 -1.4417
    1MOL   H378  378   4.397   1.076   2.783 -2.5035  0.4077  0.8006
    1MOL   H379  379   4.585   1.051   2.922  0.5952  0.8523  0.2772
    1MOL   H380  380   4.726   1.268   2.996 -1.7399  1.7433  1.9276
    1MOL   H381  381   4.632   1.481   2.947 -0.8262 -0.5277  2.3479
    1MOL   H382  382   4.435   1.504   2.780  0.9752 -0.2756 -1.2718
    2MOL     C1  383   1.488   3.038   6.780  0.9287  0.5105 -0.1847
    2MOL     C2  384   1.537   3.133   6.686  0.3238 -0.7697  0.1797
    2MOL     O3  385   1.553   3.153   6.826 -0.1462  0.0017 -0.3588
    2MOL     C4  386   1.448   3.235   6.616  0.0624  0.0980  0.4987
    2MOL     O5  387   1.529   3.333   6.561  0.8876 -0.1501  0.0334
    2MOL     C6  388   1.590   3.422   6.649 -0.0877 -0.1160 -0.2437
    2MOL     C7  389   1.547   3.450   6.778 -0.0702 -0.2606 -0.6536
    2MOL     C8  390   1.625   3.536   6.865 -0.5413  0.7951 -0.5452
    2MOL     C9  391   1.739   3.610   6.816 -0.8822 -0.5850 -0.2180
    2MOL    C10  392   1.779   3.585   6.687 -0.4152  0.3362  0.0342
    2MOL    C11  393   1.706   3.497   6.606  0.1144 -1.2807 -0.2055
    2MOL    H12  394   1.543   2.947   6.802  0.6938 -0.0390 -1.8345
    2MOL    H13  395   1.629   3.103   6.637  1.8077  2.7118  0.7531
    2MOL    H14  396   1.369   3.263   6.686 -0.4410  1.4528 -0.6007
    2MOL    H15  397   1.394   3.191   6.533 -0.8197  1.8155  0.1517
    2MOL    H16  398   1.456   3.405   6.813 -1.8935  1.3693 -3.1157
    2MOL    H17  399   1.604   3.538   6.971  0.8478 -2.5022 -0.1375
    2MOL    H18  400   1.791   3.672   6.887  1.4373 -2.1593 -0.4888
    2MOL    H19  401   1.863   3.634   6.640 -1.5925 -0.7603 -3.3697
    2MOL    H20  402   1.386   3.030   6.816  1.6520 -1.4651  1.5143
    2MOL    C21  403   1.744   3.492   6.461 -0.1957  0.9645 -0.0405
    2MOL    C22  404   1.757   3.614   6.367 -0.6949 -0.4798 -0.1864
    2MOL    O23  405   1.869   3.556   6.445 -0.0113 -0.6824  0.3333
    2MOL    C24  406   1.731   3.765   6.402  0.5021 -0.4690 -0.2540
    2MOL    O25  407   1.793   3.852   6.308 -0.1717 -0.4693  0.3610
    2MOL    C26  408   1.926   3.840   6.283  0.2237  1.0206  0.3465
    2MOL    C27  409   2.018   3.799   6.382 -0.3686 -0.5323  0.2520
    2MOL    C28  410   2.155   3.795   6.351  0.1715 -0.3932 -0.1815
    2MOL    C29  411   2.200   3.810   6.219 -0.0373 -0.0097 -0.0422
    2MOL    C30  412   2.105   3.827   6.115 -0.5054 -0.2971 -0.1383
    2MOL    C31  413   1.970   3.856   6.148  0.1414  0.4831 -0.5094
    2MOL    H32  414   1.741   3.393   6.418  0.0953  0.4860  1.0153
    2MOL    H33  415   1.749   3.591   6.261  1.5683 -1.0926 -0.2612
    2MOL    H34  416   1.749   3.793   6.506 -0.3668  0.3647 -0.3181
    2MOL    H35  417   1.625   3.785   6.382  0.2207 -0.3847  1.2288
    2MOL    H36  418   1.983   3.783   6.483  2.2537  0.7673  1.4226
    2MOL    H37  419   2.233   3.767   6.420 -0.0194 -0.4444  0.0120
    2MOL    H38  420   2.305   3.795   6.201  0.0586  0.2307  0.2994
    2MOL    H39  421   2.144   3.819   6.014 -0.6534  2.3373 -0.4254
    2MOL    C40  422   1.874   3.884   6.038 -0.3300  0.2314 -0.1736
    2MOL    C41  423   1.833   4.029   6.006 -0.4271 -0.2253 -0.3163
    2MOL    O42  424   1.927   3.957   5.923  0.4937 -0.1880 -0.9198
    2MOL    C43  425   1.890   4.149   6.081 -0.4633  0.2139 -0.7851
    2MOL    O44  426   1.870   4.271   6.008 -0.7807 -0.1367  0.0516
    2MOL    C45  427   1.753   4.339   6.026  0.2029  0.2304 -0.3960
    2MOL    C46  428   1.663   4.302   6.127  0.4910  0.7389  0.3884
    2MOL    C47  429   1.541   4.367   6.140  0.1761 -0.5939  0.4157
    2MOL    C48  430   1.501   4.466   6.052 -0.4455 -0.1303 -0.3181
    2MOL    C49  431   1.587   4.498   5.953 -0.0409  0.0179  0.3075
    2MOL    C50  432   1.713   4.439   5.934  0.0959  0.7095 -0.1023
    2MOL    H51  433   1.810   3.797   6.022  1.9208 -1.2061 -1.5854
    2MOL    H52  434   1.729   4.041   5.976  0.0851  2.1900 -1.2677
    2MOL    H53  435   1.998   4.139   6.090 -0.5409  0.4512  0.6403
    2MOL    H54  436   1.854   4.156   6.184  0.0931 -1.0164 -0.4976
    2MOL    H55  437   1.669   4.221   6.198  0.9692 -2.5853 -3.2692
    2MOL    H56  438   1.470   4.336   6.215  1.0982 -1.1697  1.0596
    2MOL    H57  439   1.402   4.508   6.060 -1.3279 -2.4866  2.0814
    2MOL    H58  440   1.548   4.560   5.874 -2.0357  0.5735  1.6790
    2MOL    C59  441   1.803   4.482   5.828 -0.0228  0.0357 -0.3492
    2MOL    C60  442   1.806   4.411   5.697 -0.0279  0.1425  0.0844
    2MOL    O61  443   1.736   4.535   5.710  0.7464  0.3641  0.2157
    2MOL    C62  444   1.719   4.293   5.665 -0.2309 -0.1381  0.4913
    2MOL    O63  445   1.653   4.296   5.535  0.6729 -0.2021 -0.0009
    2MOL    C64  446   1.723   4.260   5.426 -0.2151 -0.5463  0.4273
    2MOL    C65  447   1.852   4.202   5.428  0.2171 -0.7382 -0.2254
    2MOL    C66  448   1.925   4.164   5.313  0.6650 -0.1143  1.0525
    2MOL    C67  449   1.868   4.188   5.188 -0.4577 -0.0509 -0.1248
    2MOL    C68  450   1.742   4.259   5.180 -0.2373 -0.1351 -0.7011
    2MOL    C69  451   1.669   4.292   5.301 -0.4053  0.7048 -0.0425
    2MOL    H70  452   1.884   4.535   5.875  0.2899 -0.1492 -0.6742
    2MOL    H71  453   1.895   4.414   5.634 -0.3586 -1.0098 -0.4449
    2MOL    H72  454   1.637   4.283   5.736 -2.6478  1.4114 -1.9982
    2MOL    H73  455   1.774   4.199   5.674  1.7233  0.6471 -2.4855
    2MOL    H74  456   1.898   4.189   5.525  0.7320  1.2872 -0.1836
    2MOL    H75  457   2.020   4.113   5.316  0.2753 -0.8948  0.1478
    2MOL    H76  458   1.908   4.152   5.094  1.2789 -2.6361  1.5222
    2MOL    H77  459   1.706   4.281   5.080  1.5756  0.0822 -1.3175
    2MOL    C78  460   1.539   4.376   5.301  0.0407 -0.2425 -0.4876
    2MOL    C79  461   1.482   4.468   5.189  0.3156  0.3100  0.2540
    2MOL    O80  462   1.456   4.327   5.203  0.3107 -0.0079  0.0136
    2MOL    C81  463   1.549   4.508   5.059  0.4143 -0.0445 -0.1844
    2MOL    O82  464   1.683   4.533   5.061  0.4698  0.0291 -0.3846
    2MOL    C83  465   1.739   4.660   5.079 -0.3572  0.0231  0.0626
    2MOL    C84  466   1.692   4.768   4.999 -0.3288 -0.0589  0.3641
    2MOL    C85  467   1.749   4.895   5.005 -0.2096 -0.3261  0.2604
    2MOL    C86  468   1.849   4.928   5.099  0.2362  0.1247 -0.1752
    2MOL    C87  469   1.898   4.816   5.172  0.4408 -0.4091 -0.5372
    2MOL    C88  470   1.855   4.683   5.156  0.0038 -0.0492 -0.6097
    2MOL    H89  471   1.485   4.379   5.395 -0.1038 -0.3586 -0.5676
    2MOL    H90  472   1.398   4.531   5.218  0.6060  1.4101 -1.2696
    2MOL    H91  473   1.500   4.587   5.002 -0.3991  0.2816  0.9586
    2MOL    H92  474   1.536   4.429   4.984  1.0875 -0.1572 -0.1887
    2MOL    H93  475   1.609   4.752   4.932  0.1152 -0.8891  0.0013
    2MOL    H94  476   1.711   4.967   4.934  1.9210 -2.6781 -3.4231
    2MOL    H95  477   1.896   5.024   5.111 -3.2506  1.8094  0.5617
    2MOL    H96  478   1.977   4.835   5.243 -0.8110  0.1932  0.7272
    2MOL    C97  479   1.917   4.567   5.232  0.1433  0.6485  1.1580
    2MOL    C98  480   2.039   4.489   5.174 -0.1047 -0.3418 -0.5599
    2MOL    O99  481   2.050   4.592   5.276  0.1514  0.1969 -0.1313
    2MOL   C100  482   2.092   4.525   5.035 -0.0804  0.1171  0.1055
    2MOL   O101  483   2.211   4.451   4.995 -0.4164  0.5787 -0.8365
    2MOL   C102  484   2.335   4.505   5.014  0.2517  0.1385 -0.1128
    2MOL   C103  485   2.360   4.591   5.121  0.1389  0.5133 -0.1210
    2MOL   C104  486   2.485   4.644   5.141 -0.6480  0.3281  0.2755
    2MOL   C105  487   2.590   4.616   5.052 -0.2350  0.8539  0.4014
    2MOL   C106  488   2.570   4.526   4.951  0.2767 -0.0547  0.3120
    2MOL   C107  489   2.440   4.474   4.927 -0.2717 -0.1149  0.0666
    2MOL   H108  490   1.847   4.518   5.300 -1.4000  0.8414 -0.2579
    2MOL   H109  491   2.060   4.392   5.217 -3.0862 -0.4725  0.7644
    2MOL   H110  492   2.114   4.632   5.034  0.3133  0.0360 -0.1088
    2MOL   H111  493   2.018   4.508   4.957 -2.0561  2.4374  1.3982
    2MOL   H112  494   2.290   4.624   5.196  1.6321 -2.0464  2.5213
    2MOL   H113  495   2.507   4.712   5.222 -0.3970 -1.1626  1.4887
    2MOL   H114  496   2.685   4.666   5.058  0.6491 -0.6164 -1.1829
    2MOL   H115  497   2.646   4.490   4.883 -2.7023 -3.5964 -1.2835
    2MOL   C116  498   2.417   4.385   4.813 -0.1816 -0.3125 -0.0180
    2MOL   C117  499   2.399   4.441   4.674  1.1184  0.2980  0.6693
    2MOL   O118  500   2.524   4.379   4.717 -0.5148  0.4267 -0.4845
    2MOL   C119  501   2.403   4.585   4.632  0.0990 -0.1684 -0.5605
    2MOL   O120  502   2.288   4.608   4.556  0.5485 -0.2788 -0.2364
    2MOL   C121  503   2.175   4.648   4.620  0.0885  0.0938 -0.1684
    2MOL   C122  504   2.165   4.728   4.730 -0.1207 -0.0201  0.0169
    2MOL   C123  505   2.040   4.775   4.779 -0.3310 -0.5522 -0.3464
    2MOL   C124  506   1.922   4.741   4.710 -0.2421 -0.3520  0.3433
    2MOL   C125  507   1.932   4.667   4.594  0.5057 -0.6304  0.2582
    2MOL   C126  508   2.058   4.612   4.553 -0.0353 -0.1771 -0.1288
    2MOL   H127  509   2.361   4.297   4.842 -1.8143  0.3015 -1.2618
    2MOL   H128  510   2.346   4.380   4.601  0.9234  3.2505 -1.7404
    2MOL   H129  511   2.499   4.606   4.583 -0.0897  0.7463 -0.5575
    2MOL   H130  512   2.424   4.648   4.718  0.1111  0.4339 -0.9978
    2MOL   H131  513   2.255   4.754   4.782  0.2709  0.2231 -0.7687
    2MOL   H132  514   2.033   4.837   4.868 -1.1568  1.2845 -1.6597
    2MOL   H133  515   1.830   4.775   4.756  0.4491 -0.0379  1.5171
    2MOL   H134  516   1.834   4.645   4.555 -0.1002  0.7346  1.0256
    2MOL   C135  517   2.056   4.524   4.433 -0.0729  0.1276  0.5388
    2MOL   C136  518   2.051   4.376   4.446  0.2354 -0.1836  0.1569
    2MOL   O137  519   1.932   4.450   4.411  0.3036  0.1588 -0.0627
    2MOL   C138  520   2.054   4.297   4.579 -0.3034  0.8206 -0.7082
    2MOL   O139  521   2.048   4.156   4.561 -0.7112  0.2413  0.0843
    2MOL   C140  522   2.064   4.079   4.673  0.9263  0.3614 -0.5201
    2MOL   C141  523   2.075   4.123   4.807  0.5559  0.6081 -0.0952
    2MOL   C142  524   2.101   4.028   4.910  0.4799 -0.8567 -0.1813
    2MOL   C143  525   2.121   3.889   4.878 -0.7475 -0.0591  0.9054
    2MOL   C144  526   2.126   3.845   4.746  0.1760 -0.3262 -0.2730
    2MOL   C145  527   2.099   3.945   4.647  0.5691 -0.3244 -0.1510
    2MOL   H146  528   2.103   4.563   4.343  2.4438 -3.1413  0.3272
    2MOL   H147  529   2.104   4.325   4.366 -0.1582  0.4974 -0.5473
    2MOL   H148  530   1.975   4.336   4.643  0.1611 -0.5457  0.7428
    2MOL   H149  531   2.148   4.332   4.622 -0.3182 -0.4775  0.4193
    2MOL   H150  532   2.046   4.222   4.840 -0.7764 -0.9466  3.6990
    2MOL   H151  533   2.098   4.046   5.017  2.1220 -2.5740  0.1832
    2MOL   H152  534   2.141   3.821   4.959 -0.7399  1.5531  2.3009
    2MOL   H153  535   2.151   3.743   4.723  0.0881 -0.4804  0.3148
    2MOL   C154  536   2.103   3.906   4.499  0.3225 -0.2501  1.2619
    2MOL   C155  537   2.207   3.905   4.407 -0.5544 -0.2978  0.4940
    2MOL   O156  538   2.167   3.787   4.473 -0.1347 -0.9214  0.2537
    2MOL   C157  539   2.347   3.964   4.448  0.8670  0.4410 -0.1109
    2MOL   O158  540   2.408   4.030   4.341 -0.2209 -0.0259 -0.2559
    2MOL   C159  541   2.543   4.050   4.353  0.3676 -0.3959 -0.4742
    2MOL   C160  542   2.602   4.091   4.480  0.9667 -0.2160 -0.0775
    2MOL   C161  543   2.740   4.118   4.485  0.1109 -0.8439 -0.0918
    2MOL   C162  544   2.816   4.127   4.366 -0.2422 -0.2678 -0.0129
    2MOL   C163  545   2.747   4.101   4.243 -0.1985 -1.1391  0.7746
    2MOL   C164  546   2.613   4.064   4.229 -0.0102  0.5894 -0.2550
    2MOL   H165  547   2.007   3.925   4.450  1.0967  1.7274  0.4116
    2MOL   H166  548   2.189   3.901   4.300  1.9906  0.1000 -0.0017
    2MOL   H167  549   2.403   3.883   4.495  0.2419 -0.5045 -0.9707
    2MOL   H168  550   2.325   4.044   4.519 -2.3679 -1.8257  1.6293
    2MOL   H169  551   2.559   4.098   4.579  0.7175 -2.3742 -0.0086
    2MOL   H170  552   2.789   4.122   4.582 -1.1142 -0.9063  0.5333
    2MOL   H171  553   2.921   4.151   4.374 -0.0228 -1.4995  0.8532
    2MOL   H172  554   2.798   4.108   4.148 -0.6702  2.1680  0.7160
    2MOL   C173  555   2.542   4.040   4.094  0.1788 -0.0003  0.2877
    2MOL   C174  556   2.540   4.143   3.978  0.4259  0.5009 -0.6050
    2MOL   O175  557   2.629   4.025   3.986 -0.0747  0.6555  0.2510
    2MOL   C176  558   2.603   4.272   3.984 -0.3922  0.8297 -0.6937
    2MOL   O177  559   2.675   4.293   3.862  0.0732  0.1451 -0.2347
    2MOL   C178  560   2.742   4.414   3.841 -1.2520  0.4862  0.3349
    2MOL   C179  561   2.755   4.514   3.931 -0.4019  0.1262  0.0033
    2MOL   C180  562   2.846   4.623   3.903 -0.0728 -0.9345  0.5037
    2MOL   C181  563   2.910   4.632   3.779 -0.6563  0.4654  0.5160
    2MOL   C182  564   2.886   4.532   3.681  0.2474 -0.1855  0.3501
    2MOL   C183  565   2.803   4.419   3.714 -0.9299 -0.0847 -0.7612
    2MOL   H184  566   2.459   3.970   4.101 -0.9158  1.2470 -0.0441
    2MOL   H185  567   2.452   4.136   3.914 -1.0301  1.1747  1.2977
    2MOL   H186  568   2.669   4.290   4.069  2.4265 -1.2942 -2.3226
    2MOL   H187  569   2.516   4.338   3.994  0.5610  1.9597  0.2917
    2MOL   H188  570   2.704   4.512   4.027  0.8988  0.5382  0.7194
    2MOL   H189  571   2.856   4.703   3.975  0.2469 -0.9361  0.4622
    2MOL   H190  572   2.977   4.715   3.760 -1.6397  1.1629  0.0564
    2MOL   H191  573   2.941   4.562   3.593  0.3761 -0.5490  0.3067
    2MOL   C192  574   2.779   4.314   3.614  0.2328  0.0968 -0.2272
    2MOL   C193  575   2.661   4.308   3.513  0.0330 -0.0397  0.7586
    2MOL   O194  576   2.784   4.370   3.478 -0.9754  0.4462  0.0972
    2MOL   C195  577   2.549   4.408   3.520  0.1513  0.4755 -0.4584
    2MOL   O196  578   2.464   4.413   3.406  0.1578 -0.7532 -0.0020
    2MOL   C197  579   2.341   4.351   3.404 -0.1623  0.3590  0.8482
    2MOL   C198  580   2.299   4.257   3.505  0.2264 -0.0058 -0.9639
    2MOL   C199  581   2.177   4.190   3.497  0.9842  0.9145 -0.2564
    2MOL   C200  582   2.078   4.237   3.406  0.3002 -0.3234 -0.4129
    2MOL   C201  583   2.109   4.337   3.313  0.1378 -0.7082  0.3457
    2MOL   C202  584   2.243   4.387   3.310  0.0889 -0.1736  0.0636
    2MOL   H203  585   2.817   4.214   3.636  0.7877  0.0849 -1.2465
    2MOL   H204  586   2.646   4.221   3.449  2.9870 -0.4556  0.5925
    2MOL   H205  587   2.596   4.505   3.533 -0.5863  1.0340 -1.9236
    2MOL   H206  588   2.502   4.383   3.616  1.1300  0.2503 -0.0385
    2MOL   H207  589   2.374   4.223   3.576  0.0082  1.0462 -0.2324
    2MOL   H208  590   2.145   4.117   3.570  0.9756  1.1317 -0.0398
    2MOL   H209  591   1.987   4.180   3.400  0.2070 -0.3840  1.4010
    2MOL   H210  592   2.046   4.368   3.231  0.4599 -1.2907 -0.1302
    2MOL   C211  593   2.281   4.493   3.209 -0.8754 -0.1218 -0.8428
    2MOL   C212  594   2.372   4.486   3.091 -0.8348  0.1925  0.2452
    2MOL   O213  595   2.233   4.459   3.074 -1.0140  0.7085 -0.0858
    2MOL   C214  596   2.474   4.373   3.065 -0.2317  0.1765 -0.0178
    2MOL   O215  597   2.521   4.361   2.931  0.0290  0.6247  0.1509
    2MOL   C216  598   2.620   4.280   2.900 -0.2528 -0.0478 -0.2475
    2MOL   C217  599   2.651   4.158   2.972 -0.1793 -0.5546 -0.3395
    2MOL   C218  600   2.761   4.081   2.933 -0.0153  0.2528 -0.0493
    2MOL   C219  601   2.829   4.114   2.817 -0.0420  0.3330  0.4165
    2MOL   C220  602   2.799   4.233   2.751  0.5138 -0.4208  0.8922
    2MOL   C221  603   2.691   4.316   2.788 -0.3402  0.4210 -0.7224
    2MOL   H222  604   2.245   4.587   3.250 -0.6429  0.4259 -1.8714
    2MOL   H223  605   2.403   4.579   3.044  2.7474 -0.5103  1.0766
    2MOL   H224  606   2.418   4.287   3.104  1.3325 -1.1333 -0.6293
    2MOL   H225  607   2.549   4.391   3.142  1.2692 -2.3435 -0.8276
    2MOL   H226  608   2.595   4.117   3.055 -1.1911  2.2483  0.3893
    2MOL   H227  609   2.772   3.989   2.988  0.8589  0.7715  0.6601
    2MOL   H228  610   2.911   4.047   2.793 -0.9939 -0.9492  0.6664
    2MOL   H229  611   2.864   4.259   2.669  1.1607 -2.4267  0.7501
    2MOL   C230  612   2.648   4.440   2.715 -0.1093 -0.1395 -0.3408
    2MOL   C231  613   2.720   4.565   2.722 -0.5000 -0.4236 -0.1201
    2MOL   O232  614   2.746   4.481   2.614 -0.2726  0.5483 -0.0834
    2MOL   C233  615   2.841   4.588   2.813  0.1318 -0.3762  1.3599
    2MOL   O234  616   2.930   4.682   2.740 -0.2924 -0.1386 -0.6348
    2MOL   C235  617   3.051   4.714   2.796  0.4796  1.1206  0.1320
    2MOL   C236  618   3.108   4.629   2.893 -0.7011  0.1877 -0.4033
    2MOL   C237  619   3.219   4.670   2.965 -0.1505  0.4723  0.3482
    2MOL   C238  620   3.289   4.785   2.930  0.2400 -0.1519 -0.3870
    2MOL   C239  621   3.240   4.860   2.825 -0.7497  0.2630  0.0212
    2MOL   C240  622   3.125   4.825   2.750  0.1788 -0.2479 -0.4062
    2MOL   H241  623   2.552   4.440   2.663  1.2350  2.8807 -3.0636
    2MOL   H242  624   2.665   4.654   2.691  0.4614  0.5065  0.7779
    2MOL   H243  625   2.888   4.490   2.815 -0.3729 -0.6324  0.9624
    2MOL   H244  626   2.805   4.628   2.908 -1.6169 -0.6178  0.8288
    2MOL   H245  627   3.060   4.540   2.931 -0.3217  0.3804  0.5190
    2MOL   H246  628   3.260   4.596   3.032 -2.3363  0.0760  1.3039
    2MOL   H247  629   3.383   4.807   2.977  0.0467  0.1832 -0.1574
    2MOL   H248  630   3.293   4.951   2.803  0.8308 -0.4642  0.7748
    2MOL   C249  631   3.067   4.917   2.650 -0.5184 -0.1478 -0.3779
    2MOL   C250  632   2.936   4.989   2.665 -0.2827 -0.2086  0.1499
    2MOL   O251  633   3.066   5.055   2.692 -0.6852 -0.3895  0.7524
    2MOL   C252  634   2.849   5.003   2.784  0.3498 -0.7201 -0.6412
    2MOL   O253  635   2.778   5.128   2.775  0.0618 -0.1462 -0.3855
    2MOL   C254  636   2.818   5.224   2.865 -0.4070 -0.8255 -0.1212
    2MOL   C255  637   2.945   5.228   2.923  0.0145  0.4822 -0.0152
    2MOL   C256  638   2.992   5.335   2.996 -0.2933 -0.5092 -0.4153
    2MOL   C257  639   2.904   5.437   3.024  0.1312 -0.3285  0.1122
    2MOL   C258  640   2.770   5.427   2.978  0.8527 -0.2044 -0.4564
    2MOL   C259  641   2.722   5.323   2.906  0.1279  0.8426 -0.3928
    2MOL   H260  642   3.098   4.903   2.546 -2.4977 -1.0855 -0.8622
    2MOL   H261  643   2.885   5.031   2.578 -0.9099  2.1435  1.6025
    2MOL   H262  644   2.902   4.986   2.878 -1.1235  1.8242  0.7010
    2MOL   H263  645   2.772   4.928   2.772 -0.4910 -0.5900  3.2768
    2MOL   H264  646   3.017   5.153   2.894 -0.7827  0.1398 -1.1370
    2MOL   H265  647   3.093   5.337   3.031 -0.4900 -1.2910  0.2181
    2MOL   H266  648   2.937   5.528   3.072 -0.5537 -0.3538  0.6324
    2MOL   H267  649   2.700   5.501   3.016  0.0177 -0.9194 -0.5754
    2MOL   C268  650   2.574   5.318   2.870  0.2685  0.1712  0.2235
    2MOL   C269  651   2.480   5.193   2.878  0.2967 -0.4169 -0.8177
    2MOL   O270  652   2.492   5.292   2.982  0.0047  0.1746 -0.0756
    2MOL   C271  653   2.534   5.063   2.928  0.2973 -0.3396  0.4064
    2MOL   O272  654   2.437   4.993   3.014  0.0270  0.7138  0.0043
    2MOL   C273  655   2.492   4.888   3.089  0.7293  0.4145 -0.1098
    2MOL   C274  656   2.592   4.806   3.041  0.3386  0.2104 -0.5072
    2MOL   C275  657   2.642   4.697   3.121  0.4051  0.2393 -0.6405
    2MOL   C276  658   2.588   4.675   3.246 -0.1218  0.2063  0.9821
    2MOL   C277  659   2.477   4.757   3.287  0.4431 -0.2753  0.0072
    2MOL   C278  660   2.424   4.857   3.206 -0.0422  0.1395 -0.4439
    2MOL   H279  661   2.541   5.401   2.808 -1.1402 -0.4573  0.0925
    2MOL   H280  662   2.385   5.199   2.827 -0.5807 -3.0878  0.4188
    2MOL   H281  663   2.627   5.085   2.980 -1.8882  2.2006  3.4312
    2MOL   H282  664   2.570   4.999   2.847  1.8305 -0.0421  0.8349
    2MOL   H283  665   2.627   4.813   2.939  0.0363 -1.5254 -0.7372
    2MOL   H284  666   2.719   4.626   3.094  1.5129  0.5369  1.6154
    2MOL   H285  667   2.616   4.597   3.316  0.1621  0.1670  0.8258
    2MOL   H286  668   2.426   4.745   3.381 -0.3546 -0.0977 -0.4012
    2MOL   C287  669   2.316   4.944   3.261 -0.2356 -0.5430 -0.0472
    2MOL   C288  670   2.174   4.958   3.215  0.5274 -0.0846 -0.2676
    2MOL   O289  671   2.215   4.869   3.316 -0.2397  0.4432 -0.4781
    2MOL   C290  672   2.124   4.898   3.088 -0.4657  1.0799  0.0725
    2MOL   O291  673   1.986   4.920   3.062  0.0268 -0.2954  0.6649
    2MOL   C292  674   1.888   4.857   3.141 -0.0872  0.6740 -0.5899
    2MOL   C293  675   1.925   4.755   3.233 -0.3628 -0.9296  0.6153
    2MOL   C294  676   1.827   4.707   3.319 -0.1545 -0.4562  0.0920
    2MOL   C295  677   1.697   4.768   3.321  0.0065  0.8557 -0.1012
    2MOL   C296  678   1.665   4.866   3.232 -0.3100  0.2976  0.5068
    2MOL   C297  679   1.755   4.906   3.132 -0.1626  0.5852 -0.6100
    2MOL   H298  680   2.354   5.022   3.327 -1.4760 -0.3238  0.4271
    2MOL   H299  681   2.129   5.052   3.248 -1.4329 -1.2792  0.5413
    2MOL   H300  682   2.152   4.793   3.094  0.9889  1.3643 -1.3685
    2MOL   H301  683   2.174   4.942   3.002 -1.1255 -0.1725 -0.9696
    2MOL   H302  684   2.025   4.717   3.245  0.6898  1.7365  0.6842
    2MOL   H303  685   1.836   4.624   3.388 -0.0704  0.4185  1.1480
    2MOL   H304  686   1.621   4.737   3.390  0.1569  0.2607 -0.1995
    2MOL   H305  687   1.564   4.902   3.240 -0.3224  0.3952 -0.1145
    2MOL   C306  688   1.719   5.008   3.028 -0.4199  0.1032  0.2501
    2MOL   C307  689   1.661   4.970   2.892  0.0451 -0.4208 -0.2375
    2MOL   O308  690   1.579   5.011   3.004  0.3711 -0.2944 -0.0427
    2MOL   C309  691   1.657   4.825   2.847  0.1188 -0.5585  0.1756
    2MOL   O310  692   1.537   4.796   2.774  0.2298  0.0146  0.8852
    2MOL   C311  693   1.535   4.668   2.725 -0.3026 -0.5663  0.3147
    2MOL   C312  694   1.626   4.562   2.750  0.1630  0.1543  0.4315
    2MOL   C313  695   1.609   4.437   2.684  0.3722  0.7043 -0.2483
    2MOL   C314  696   1.496   4.411   2.599  0.1212 -0.4211  0.0366
    2MOL   C315  697   1.394   4.501   2.595  0.7473 -0.6830 -0.3482
    2MOL   C316  698   1.412   4.632   2.655 -0.3286 -0.8435  0.3888
    2MOL   H317  699   1.754   5.107   3.055  0.2487 -0.0458 -0.0519
    2MOL   H318  700   1.681   5.045   2.816 -0.4458 -0.4241 -0.3670
    2MOL   H319  701   1.665   4.759   2.933 -2.2291 -0.8715  0.1819
    2MOL   H320  702   1.748   4.821   2.786  0.1755  1.5267  0.0883
    2MOL   H321  703   1.709   4.576   2.818  0.7089  1.8916 -0.5711
    2MOL   H322  704   1.690   4.366   2.691  0.2969  0.6812  0.4296
    2MOL   H323  705   1.503   4.320   2.542  0.5378  0.4725 -1.3401
    2MOL   H324  706   1.301   4.484   2.544  0.3028 -0.0416  0.2280
    2MOL   C325  707   1.288   4.721   2.655  0.0636 -0.0984 -0.6007
    2MOL   C326  708   1.258   4.838   2.574  0.0371 -0.4900 -0.5559
    2MOL   O327  709   1.220   4.708   2.539 -0.3767 -0.4493 -0.2783
    2MOL   C328  710   1.336   4.907   2.462 -0.1263  0.2103  0.2082
    2MOL   O329  711   1.255   4.956   2.361  0.1082 -0.8166 -0.3183
    2MOL   C330  712   1.180   5.074   2.375 -0.9202  0.5887  0.7459
    2MOL   C331  713   1.159   5.133   2.501  0.8117  0.2937 -0.3774
    2MOL   C332  714   1.079   5.241   2.519  0.5623  0.2858 -0.2107
    2MOL   C333  715   0.997   5.288   2.414  0.0221  0.5458  0.6889
    2MOL   C334  716   1.008   5.227   2.293 -0.1261 -0.3775  0.9078
    2MOL   C335  717   1.102   5.121   2.267  0.4565  0.4420  0.2908
    2MOL   H336  718   1.225   4.697   2.740 -0.6055  1.8312 -0.5187
    2MOL   H337  719   1.182   4.898   2.622  0.6057 -0.1789 -0.0398
    2MOL   H338  720   1.403   4.833   2.419 -2.0097 -0.3982 -1.7575
    2MOL   H339  721   1.407   4.982   2.497 -1.6186  1.9334 -0.3875
    2MOL   H340  722   1.222   5.110   2.586  0.6547  2.7663  0.4351
    2MOL   H341  723   1.079   5.286   2.617  0.0399  0.4508 -0.2850
    2MOL   H342  724   0.918   5.361   2.429 -1.4398  0.0043 -3.7570
    2MOL   H343  725   0.937   5.250   2.216  0.2079 -3.8705 -0.5487
    2MOL   C344  726   1.107   5.064   2.130  0.1501  0.4196 -0.1518
    2MOL   C345  727   1.062   4.923   2.100 -0.9313 -0.3950 -0.3058
    2MOL   O346  728   0.976   5.034   2.072  0.2363 -0.2844 -0.5153
    2MOL   C347  729   1.022   4.825   2.201  0.1797  1.4221  0.1478
    2MOL   O348  730   0.961   4.721   2.116 -0.0245 -0.2856  0.2844
    2MOL   C349  731   1.044   4.608   2.111 -0.6705 -0.1601 -0.3649
    2MOL   C350  732   1.096   4.543   2.225  0.4738 -0.1294 -0.5506
    2MOL   C351  733   1.166   4.424   2.219 -0.0976  0.2490 -0.3992
    2MOL   C352  734   1.205   4.360   2.099  0.3471  0.3251 -0.0137
    2MOL   C353  735   1.152   4.428   1.982 -1.0433 -0.0001  0.5025
    2MOL   C354  736   1.076   4.547   1.990  0.3981 -0.6495  0.1396
    2MOL   H355  737   1.194   5.098   2.075  1.0715  0.8821  1.5619
    2MOL   H356  738   1.127   4.880   2.024 -1.8046  0.6296 -1.6515
    2MOL   H357  739   0.949   4.873   2.266 -0.3773  0.4415  0.2565
    2MOL   H358  740   1.113   4.800   2.256  1.2376 -0.1563 -2.2291
    2MOL   H359  741   1.074   4.582   2.324  1.1297  1.8882 -1.1733
    2MOL   H360  742   1.206   4.396   2.315 -0.3083 -0.7738 -0.6019
    2MOL   H361  743   1.266   4.271   2.092  1.1986  0.7949  1.2854
    2MOL   H362  744   1.169   4.374   1.890  1.2690 -0.6835  1.2752
    2MOL   C363  745   1.004   4.591   1.862 -0.4884  0.1391 -0.0079
    2MOL   C364  746   1.084   4.653   1.751  0.0609  0.2716  0.8305
    2MOL   O365  747   1.040   4.514   1.755  0.3326 -0.1208  0.2149
    2MOL   C366  748   1.236   4.674   1.757  0.1569 -0.7527 -0.6049
    2MOL   O367  749   1.262   4.790   1.834  0.1275 -0.4046 -0.3980
    2MOL   C368  750   1.264   4.914   1.776  0.6710  0.2016 -0.2519
    2MOL   C369  751   1.324   5.026   1.846 -0.5385 -0.5202  0.6960
    2MOL   C370  752   1.312   5.159   1.805  0.2466  0.1879  0.0901
    2MOL   C371  753   1.246   5.184   1.686 -0.0093  0.3275  0.4702
    2MOL   C372  754   1.189   5.082   1.604  0.7776 -0.6963  0.0543
    2MOL   C373  755   1.193   4.949   1.654  0.0113  0.0077 -0.1973
    2MOL   H374  756   0.898   4.611   1.877 -0.2692  2.2522 -1.0991
    2MOL   H375  757   1.032   4.700   1.668  1.1493  1.0279  0.5541
    2MOL   H376  758   1.270   4.696   1.656  0.4522  0.7802 -0.1848
    2MOL   H377  759   1.294   4.590   1.796  3.1027  1.5868  0.2757
    2MOL   H378  760   1.376   5.012   1.939  1.0959  3.6205  0.5163
    2MOL   H379  761   1.358   5.237   1.864 -0.5713  2.2066 -1.8453
    2MOL   H380  762   1.222   5.285   1.658  1.1967  0.9915  1.7635
    2MOL   H381  763   1.132   5.098   1.514 -1.8766 -1.9083  1.4492
    2MOL   H382  764   1.137   4.873   1.602 -1.3161  2.2754 -2.1767
    3MOL     C1  765   5.991   0.185   3.001  0.0718  0.1973  0.0355
    3MOL     C2  766   5.871   0.194   2.908  0.0311  0.3543  0.1355
    3MOL     O3  767   5.887   0.285   3.016 -0.2490  0.2833 -0.5151
    3MOL     C4  768   5.763   0.090   2.924  0.4619 -0.1250  0.1434
    3MOL     O5  769   5.638   0.123   2.859  0.0180 -0.0224 -0.1640
    3MOL     C6  770   5.640   0.159   2.730 -0.1721  0.1940  0.5298
    3MOL     C7  771   5.731   0.096   2.640  0.3693  0.1263  0.5604
    3MOL     C8  772   5.730   0.127   2.502 -0.6390  0.1855 -0.3566
    3MOL     C9  773   5.624   0.217   2.461 -0.8973  0.6379 -0.1750
    3MOL    C10  774   5.532   0.281   2.547  0.5245  0.0415 -0.1457
    3MOL    C11  775   5.536   0.251   2.682 -0.6250  0.7317 -0.1310
    3MOL    H12  776   6.091   0.225   2.985  0.1667 -0.1260 -0.1938
    3MOL    H13  777   5.896   0.234   2.810 -0.2582  0.7669  0.2251
    3MOL    H14  778   5.751   0.065   3.029  2.3492 -1.1659  0.1332
    3MOL    H15  779   5.803   8.161   2.901  1.0574  0.3504 -0.8946
    3MOL    H16  780   5.802   0.023   2.676  0.7033  0.8181  1.3196
    3MOL    H17  781   5.803   0.095   2.430 -0.2523  2.3475 -0.9472
    3MOL    H18  782   5.620   0.244   2.356  1.1972  1.5693 -0.0254
    3MOL    H19  783   5.457   0.351   2.514  1.6568  1.4952  0.3600
    3MOL    H20  784   5.990   0.115   3.084 -0.0809 -0.5232 -0.5702
    3MOL    C21  785   5.440   0.313   2.775 -0.5316 -0.5918  0.6491
    3MOL    C22  786   5.471   0.412   2.888 -0.4577  0.0003 -0.3280
    3MOL    O23  787   5.431   0.460   2.758 -0.4602 -0.3158  0.2866
    3MOL    C24  788   5.612   0.463   2.932 -0.3902 -0.0097  0.5039
    3MOL    O25  789   5.604   0.575   3.019  0.1182  0.5768 -0.5410
    3MOL    C26  790   5.722   0.652   3.037  0.2270 -0.4440  0.4463
    3MOL    C27  791   5.848   0.599   3.027  0.2367  0.2576  0.0347
    3MOL    C28  792   5.964   0.668   3.072 -0.1525 -0.0030  0.1521
    3MOL    C29  793   5.943   0.793   3.132 -0.3987 -0.0629  0.2635
    3MOL    C30  794   5.810   0.844   3.137  0.5540 -0.4309 -0.4771
    3MOL    C31  795   5.700   0.773   3.096  0.3104  0.5424  0.2353
    3MOL    H32  796   5.342   0.266   2.768 -1.2067  0.7151  1.0607
    3MOL    H33  797   5.400   0.399   2.970 -0.2001  0.6531  0.0059
    3MOL    H34  798   5.661   0.490   2.839  0.2058  0.9004  1.0652
    3MOL    H35  799   5.655   0.380   2.988 -0.3405 -0.8647 -0.8036
    3MOL    H36  800   5.871   0.502   2.984  0.9992 -0.1081  1.2529
    3MOL    H37  801   6.065   0.631   3.071 -0.2024 -0.2671  2.3879
    3MOL    H38  802   6.017   0.860   3.173 -0.4834  1.0231 -1.3005
    3MOL    H39  803   5.803   0.944   3.176 -1.7344 -1.0036  0.6875
    3MOL    C40  804   5.556   0.824   3.116  0.0852 -0.4622  0.5835
    3MOL    C41  805   5.466   0.798   3.239  0.2520  0.4426  0.0111
    3MOL    O42  806   5.549   0.920   3.218  0.1173  0.2815  0.2107
    3MOL    C43  807   5.503   0.714   3.359 -0.7095  0.3604  0.0442
    3MOL    O44  808   5.399   0.698   3.459 -0.6283  0.5947  0.3384
    3MOL    C45  809   5.354   0.804   3.532  0.7833 -0.0067  0.1855
    3MOL    C46  810   5.423   0.925   3.530  0.1442  0.4997 -0.8006
    3MOL    C47  811   5.378   1.029   3.618 -0.6728 -0.2596  0.7108
    3MOL    C48  812   5.267   1.013   3.704  0.0388  0.5132 -0.4008
    3MOL    C49  813   5.196   0.893   3.697 -0.2662  0.3518  0.1019
    3MOL    C50  814   5.237   0.794   3.607  0.8768 -0.1846 -0.7469
    3MOL    H51  815   5.507   0.844   3.021 -0.9140 -1.3809  0.8935
    3MOL    H52  816   5.358   0.816   3.237  0.3166  1.1966  1.8611
    3MOL    H53  817   5.605   0.745   3.381 -0.2784  0.9145 -2.5420
    3MOL    H54  818   5.511   0.608   3.334 -0.9451  0.2163  0.5704
    3MOL    H55  819   5.501   0.951   3.460 -1.6352  1.3763 -2.5095
    3MOL    H56  820   5.428   1.124   3.612 -0.2387 -0.5643 -0.5153
    3MOL    H57  821   5.246   1.097   3.768 -2.3254 -1.4611  1.5283
    3MOL    H58  822   5.100   0.889   3.746 -1.2850  1.2946 -1.7311
    3MOL    C59  823   5.152   0.675   3.591 -0.5566 -0.0861 -0.1792
    3MOL    C60  824   5.136   0.564   3.693 -0.0996  0.4386 -0.5411
    3MOL    O61  825   5.034   0.669   3.673 -0.5268 -0.0834  0.8023
    3MOL    C62  826   5.217   0.571   3.820  0.1734 -0.0955  0.0195
    3MOL    O63  827   5.152   0.524   3.937  0.5378  0.2281  0.3945
    3MOL    C64  828   5.233   0.530   4.053  0.2684  0.2272  0.3625
    3MOL    C65  829   5.362   0.589   4.065  0.6604 -0.3351 -0.2910
    3MOL    C66  830   5.430   0.577   4.187  0.3232  0.3122  0.0862
    3MOL    C67  831   5.375   0.504   4.299 -0.8290  0.2348  0.4477
    3MOL    C68  832   5.247   0.448   4.283  0.3069 -0.2681 -0.1142
    3MOL    C69  833   5.181   0.455   4.161 -0.5318  0.5447 -0.2050
    3MOL    H70  834   5.125   0.670   3.486  0.9196  0.1382 -0.5787
    3MOL    H71  835   5.101   0.466   3.662 -2.6031  0.8377  0.8383
    3MOL    H72  836   5.253   0.673   3.835  1.4617 -0.3266 -1.2682
    3MOL    H73  837   5.304   0.506   3.806  0.7708  0.7055 -0.0890
    3MOL    H74  838   5.402   0.631   3.974 -1.3902  1.2443 -0.5087
    3MOL    H75  839   5.534   0.606   4.188  0.1578  0.9591 -0.7404
    3MOL    H76  840   5.436   0.501   4.388 -0.6030 -0.9736  0.2614
    3MOL    H77  841   5.201   0.395   4.366  0.9479 -0.8376 -0.1251
    3MOL    C78  842   5.044   0.391   4.170 -0.0081 -0.0060  0.7952
    3MOL    C79  843   4.994   0.279   4.086 -0.4963 -0.1583  0.4368
    3MOL    O80  844   5.038   0.258   4.219  0.4228 -0.4349  0.5464
    3MOL    C81  845   5.079   0.208   3.982 -0.4018 -0.8486 -0.4553
    3MOL    O82  846   5.052   0.068   3.984  0.5591 -0.2622 -0.0882
    3MOL    C83  847   5.115   8.153   4.070  0.2500  0.0805  0.5620
    3MOL    C84  848   5.196   0.018   4.183  0.2279 -0.2383  0.0388
    3MOL    C85  849   5.252   8.093   4.273 -0.2157  0.3864  0.6088
    3MOL    C86  850   5.232   7.956   4.243 -0.1383 -0.0531  0.7458
    3MOL    C87  851   5.153   7.915   4.129  0.2518  0.3844  0.6834
    3MOL    C88  852   5.091   8.015   4.049 -0.3921 -0.3648 -0.0061
    3MOL    H89  853   4.974   0.462   4.212  1.5338  0.9306  1.8458
    3MOL    H90  854   4.887   0.268   4.070 -0.9253  0.9643  2.3333
    3MOL    H91  855   5.187   0.214   3.995 -0.7030  0.2392  1.7002
    3MOL    H92  856   5.057   0.261   3.890 -0.7998  0.7035  0.5150
    3MOL    H93  857   5.209   0.124   4.201  0.5846 -0.0579 -1.1844
    3MOL    H94  858   5.301   8.128   4.363  0.9915  0.7315 -0.1740
    3MOL    H95  859   5.282   7.878   4.299  1.9407 -0.6582 -1.8615
    3MOL    H96  860   5.137   7.813   4.098 -0.9257  0.3985  1.2235
    3MOL    C97  861   4.996   7.977   3.938 -1.0561  0.0280  0.5076
    3MOL    C98  862   5.032   7.987   3.796  0.2811  0.6105 -0.0894
    3MOL    O99  863   5.031   7.857   3.862 -0.1203 -0.2046  0.6983
    3MOL   C100  864   5.163   8.029   3.745 -0.3854 -0.0091 -0.1776
    3MOL   O101  865   5.206   7.959   3.633 -0.1267  0.0344 -0.1028
    3MOL   C102  866   5.176   8.009   3.505 -0.0179  0.6727 -0.6112
    3MOL   C103  867   5.078   8.111   3.486  0.7757  0.5965  0.8245
    3MOL   C104  868   5.035   8.143   3.359  0.3909  0.0893  0.5613
    3MOL   C105  869   5.092   8.077   3.249  0.7663  0.4624  0.1874
    3MOL   C106  870   5.186   7.979   3.270 -0.3233  0.2560 -0.0686
    3MOL   C107  871   5.231   7.943   3.396  0.2244 -0.0241 -0.4937
    3MOL   H108  872   4.896   8.012   3.964 -0.5472  0.6065  1.7463
    3MOL   H109  873   4.947   8.006   3.730  0.2366  1.6383  0.2523
    3MOL   H110  874   5.231   8.030   3.830 -1.4505 -1.0460  0.7084
    3MOL   H111  875   5.165   8.135   3.720  3.7680  0.3556  1.2373
    3MOL   H112  876   5.026   8.165   3.563 -2.6132  2.1167 -2.3880
    3MOL   H113  877   4.953   0.042   3.353  0.1220 -0.3159 -0.5138
    3MOL   H114  878   5.063   8.105   3.149  0.7433 -1.6582 -0.4393
    3MOL   H115  879   5.235   7.936   3.184 -1.1360  0.1803 -0.4970
    3MOL   C116  880   5.334   7.842   3.415  0.7642  0.0317 -0.2185
    3MOL   C117  881   5.332   7.700   3.367  0.1802 -0.1574  0.0824
    3MOL   O118  882   5.406   7.803   3.299 -0.0144 -0.1829 -0.5185
    3MOL   C119  883   5.201   7.633   3.305 -0.2340  0.4364  0.1138
    3MOL   O120  884   5.231   7.502   3.258  0.0179  0.2487  0.3585
    3MOL   C121  885   5.258   7.409   3.354  0.4350 -0.9253 -0.5908
    3MOL   C122  886   5.207   7.412   3.486  0.2564 -0.2307 -0.4304
    3MOL   C123  887   5.247   7.321   3.583 -0.4019  0.2474 -0.9664
    3MOL   C124  888   5.349   7.227   3.552  0.6212  0.1946  0.2742
    3MOL   C125  889   5.416   7.236   3.429 -0.6590 -0.1429 -0.6437
    3MOL   C126  890   5.364   7.316   3.322 -0.3284 -0.5268 -0.5492
    3MOL   H127  891   5.397   7.855   3.502  1.8204 -2.0044 -0.6374
    3MOL   H128  892   5.403   7.647   3.430  0.6643  0.8845  0.4271
    3MOL   H129  893   5.166   7.705   3.231  0.1220  0.5760  0.0804
    3MOL   H130  894   5.119   7.634   3.378 -0.7143 -1.0647 -0.3798
    3MOL   H131  895   5.131   7.484   3.513  1.0553  0.1071  0.9284
    3MOL   H132  896   5.201   7.323   3.680  0.5184 -0.6721 -0.5072
    3MOL   H133  897   5.367   7.152   3.628 -0.9392  0.6187  1.0974
    3MOL   H134  898   5.479   7.153   3.399 -0.2612 -0.2580  0.4840
    3MOL   C135  899   5.428   7.302   3.192  0.6076 -0.3708  0.0044
    3MOL   C136  900   5.527   7.401   3.130  1.3398  0.1065  0.2433
    3MOL   O137  901   5.565   7.284   3.198  0.1779 -0.3239 -0.0625
    3MOL   C138  902   5.572   7.533   3.187  0.6229 -0.4983  0.0457
    3MOL   O139  903   5.682   7.584   3.120  0.1265  0.2312  0.0388
    3MOL   C140  904   5.742   7.698   3.171  0.4886  0.0314 -0.4325
    3MOL   C141  905   5.703   7.752   3.298  0.6244 -0.5870 -0.1787
    3MOL   C142  906   5.768   7.872   3.339 -0.2945  0.2378  0.2250
    3MOL   C143  907   5.859   7.940   3.257 -0.4220 -0.4614 -0.8130
    3MOL   C144  908   5.895   7.889   3.137 -0.4154  0.1272  0.4234
    3MOL   C145  909   5.847   7.764   3.094 -0.6003 -0.2736  0.0813
    3MOL   H146  910   5.379   7.218   3.142 -0.0316 -0.3377  0.5690
    3MOL   H147  911   5.519   7.402   3.021 -0.3367 -0.4243  0.3523
    3MOL   H148  912   5.612   7.507   3.285 -1.5984  0.3096  1.2098
    3MOL   H149  913   5.486   7.600   3.187  0.1306 -1.1242  0.6027
    3MOL   H150  914   5.625   7.723   3.367 -0.6065 -0.9723 -1.6973
    3MOL   H151  915   5.743   7.916   3.434 -1.7099  0.3954 -0.2052
    3MOL   H152  916   5.901   8.030   3.299 -0.3039 -0.2433 -1.3864
    3MOL   H153  917   5.974   7.935   3.080 -1.2296 -0.4901 -1.2448
    3MOL   C154  918   5.882   7.710   2.959  0.5332 -0.5232  0.1037
    3MOL   C155  919   5.807   7.752   2.843  0.1866 -0.3515  0.1729
    3MOL   O156  920   5.936   7.811   2.864  0.3368  0.3877 -0.0525
    3MOL   C157  921   5.693   7.844   2.844  1.3761 -0.1418 -0.2966
    3MOL   O158  922   5.652   7.859   2.713  0.0310 -0.4530  1.2664
    3MOL   C159  923   5.536   7.937   2.695 -0.3588  0.0412 -0.3593
    3MOL   C160  924   5.472   8.017   2.795 -0.3402  0.8856  0.1880
    3MOL   C161  925   5.365   8.107   2.768 -0.3196 -0.1737 -0.3196
    3MOL   C162  926   5.319   8.114   2.635  0.2152  0.1343  0.0919
    3MOL   C163  927   5.377   8.031   2.534  0.6641 -0.0332  0.3651
    3MOL   C164  928   5.484   7.949   2.559  0.1378  0.1582 -0.3134
    3MOL   H165  929   5.928   7.611   2.961  0.0623 -0.7470 -0.1746
    3MOL   H166  930   5.806   7.685   2.757 -2.3311  0.3780 -0.4200
    3MOL   H167  931   5.724   7.930   2.904 -0.8410 -0.1734  0.9717
    3MOL   H168  932   5.609   7.797   2.895  0.8991  1.5405  0.5281
    3MOL   H169  933   5.509   8.005   2.896 -2.3727  0.0160  0.8501
    3MOL   H170  934   5.309   8.162   2.842 -1.9240  0.9421 -2.3255
    3MOL   H171  935   5.234   0.007   2.612 -0.6957  0.0277  3.0488
    3MOL   H172  936   5.342   8.040   2.432 -1.9346  0.3435  1.2506
    3MOL   C173  937   5.565   7.879   2.457 -0.3824  1.2761  0.8524
    3MOL   C174  938   5.526   7.755   2.385  0.2301  0.0591 -0.2881
    3MOL   O175  939   5.518   7.885   2.322 -0.0782  0.2114  0.1890
    3MOL   C176  940   5.395   7.683   2.378  0.4263 -0.1424 -0.2552
    3MOL   O177  941   5.308   7.726   2.480 -0.0800  0.2844  0.0941
    3MOL   C178  942   5.321   7.679   2.608  0.2747 -0.5875 -0.1851
    3MOL   C179  943   5.438   7.607   2.644  0.3711 -0.0658 -0.5384
    3MOL   C180  944   5.449   7.558   2.778 -0.0634  0.5153  1.1845
    3MOL   C181  945   5.357   7.597   2.876  0.2509  0.1663  0.5030
    3MOL   C182  946   5.240   7.662   2.838  0.6784 -0.3374 -0.2169
    3MOL   C183  947   5.219   7.705   2.705  0.1019 -0.5514 -1.2141
    3MOL   H184  948   5.672   7.888   2.479 -0.2698 -1.4744  1.5728
    3MOL   H185  949   5.604   7.694   2.340  0.7184  0.5494 -0.1225
    3MOL   H186  950   5.417   7.580   2.406  2.3265  0.4217  0.3690
    3MOL   H187  951   5.355   7.693   2.277  0.1100  2.3506  0.0839
    3MOL   H188  952   5.525   7.601   2.580  0.9389 -2.2167  0.4017
    3MOL   H189  953   5.534   7.499   2.809  0.4418 -0.4545 -1.8176
    3MOL   H190  954   5.368   7.574   2.981 -1.6788  3.3525  1.4896
    3MOL   H191  955   5.167   7.689   2.913  1.3320  0.3927  0.1698
    3MOL   C192  956   5.112   7.805   2.668 -0.8241 -0.0726  0.6564
    3MOL   C193  957   4.997   7.776   2.569 -0.3422 -0.5608 -0.7251
    3MOL   O194  958   4.982   7.765   2.713 -0.4881  0.4325  0.3508
    3MOL   C195  959   5.000   7.652   2.486  0.5812  0.0656  0.7304
    3MOL   O196  960   4.868   7.603   2.458 -0.2784  0.0855  0.6112
    3MOL   C197  961   4.810   7.511   2.549  0.2778  0.3763  0.7752
    3MOL   C198  962   4.880   7.449   2.659 -0.6828 -0.2718  0.1021
    3MOL   C199  963   4.806   7.357   2.735  0.7168  0.5087 -0.4052
    3MOL   C200  964   4.674   7.324   2.713 -0.2399 -0.2064 -0.0545
    3MOL   C201  965   4.608   7.383   2.599 -0.4537 -0.4380 -0.4768
    3MOL   C202  966   4.680   7.482   2.520  0.4655  0.2651  0.0327
    3MOL   H203  967   5.129   7.907   2.701  0.0469 -0.8444  2.6830
    3MOL   H204  968   4.940   7.855   2.520  3.2380  1.4991 -1.7753
    3MOL   H205  969   5.084   7.585   2.504 -0.1987 -1.1842 -0.1425
    3MOL   H206  970   5.028   7.687   2.386  0.4977  0.1794  0.7476
    3MOL   H207  971   4.979   7.485   2.682 -0.0862 -1.8260 -0.0027
    3MOL   H208  972   4.844   7.316   2.827  0.0819  1.8476  0.4723
    3MOL   H209  973   4.623   7.244   2.764  1.3517 -0.7133  0.7719
    3MOL   H210  974   4.504   7.363   2.580 -0.8566  0.1314  1.1108
    3MOL   C211  975   4.608   7.537   2.401  0.1299  0.3380 -0.0403
    3MOL   C212  976   4.636   7.495   2.258  0.4115  0.1176 -0.4838
    3MOL   O213  977   4.529   7.436   2.332  0.5156 -0.0811 -0.0718
    3MOL   C214  978   4.751   7.412   2.219  0.1795  0.1714 -0.2432
    3MOL   O215  979   4.779   7.401   2.074 -0.1787  0.2433 -0.3958
    3MOL   C216  980   4.698   7.326   1.994  0.8117  0.3632  0.1502
    3MOL   C217  981   4.577   7.267   2.037 -0.3741  0.0437 -0.1904
    3MOL   C218  982   4.506   7.188   1.947 -0.1870 -0.0206  0.4795
    3MOL   C219  983   4.544   7.168   1.819  0.2419 -0.0840  0.6915
    3MOL   C220  984   4.669   7.221   1.772  0.1872  0.0983  0.0790
    3MOL   C221  985   4.747   7.301   1.859  0.8216  0.2424 -0.5600
    3MOL   H222  986   4.557   7.632   2.414 -3.7876 -1.7346  0.3447
    3MOL   H223  987   4.598   7.555   2.176 -0.2669 -1.9803 -1.7535
    3MOL   H224  988   4.728   7.312   2.255 -0.4982  0.9927  1.6821
    3MOL   H225  989   4.848   7.444   2.257  1.7050 -2.5063 -1.7848
    3MOL   H226  990   4.537   7.286   2.135  0.2493  0.6155 -0.0411
    3MOL   H227  991   4.411   7.142   1.971 -1.5623  1.4912 -1.8792
    3MOL   H228  992   4.491   7.101   1.754  3.6843 -0.7948 -1.5317
    3MOL   H229  993   4.702   7.202   1.671 -0.7682 -1.3002  0.0205
    3MOL   C230  994   4.879   7.350   1.810 -0.4087  0.4370 -0.2219
    3MOL   C231  995   4.994   7.268   1.844 -0.0322 -0.2228 -0.3769
    3MOL   O232  996   4.944   7.270   1.715  0.6082 -0.1897  0.1027
    3MOL   C233  997   4.983   7.132   1.919  0.1725  0.3946  0.5653
    3MOL   O234  998   5.109   7.066   1.922  0.0657  0.1586 -0.1016
    3MOL   C235  999   5.173   7.043   1.803 -0.7126  0.5662  0.1291
    3MOL   C236 1000   5.108   7.032   1.678 -0.5087  0.5805 -0.1143
    3MOL   C237 1001   5.171   7.022   1.558  0.2589 -0.7558 -0.7140
    3MOL   C238 1002   5.313   7.005   1.565  0.0461 -0.1057 -0.3510
    3MOL   C239 1003   5.384   7.017   1.685  0.2032 -0.4818 -1.2094
    3MOL   C240 1004   5.318   7.032   1.807 -0.0552  0.4021 -0.1097
    3MOL   H241 1005   4.894   7.456   1.792  1.4523  0.2905  0.4338
    3MOL   H242 1006   5.080   7.329   1.870 -0.1379 -0.2944  0.1589
    3MOL   H243 1007   4.895   7.077   1.884  0.1353  1.0522 -0.3815
    3MOL   H244 1008   4.953   7.156   2.021  0.2887 -0.1781  0.7396
    3MOL   H245 1009   5.001   7.033   1.670 -0.4929  2.6771 -0.4572
    3MOL   H246 1010   5.115   7.008   1.467 -0.9276 -0.4229 -0.0567
    3MOL   H247 1011   5.362   6.980   1.472 -0.1920  1.1116 -0.8180
    3MOL   H248 1012   5.491   7.011   1.679  0.3146 -0.7400  0.6287
    3MOL   C249 1013   5.393   7.055   1.930 -0.0452 -0.0735 -0.9966
    3MOL   C250 1014   5.469   6.952   2.012 -0.3777 -0.6501 -0.5309
    3MOL   O251 1015   5.533   7.035   1.917  0.2060 -0.4636 -0.7485
    3MOL   C252 1016   5.445   6.804   1.975 -0.4720 -0.5700 -0.2997
    3MOL   O253 1017   5.393   6.731   2.086 -0.6616 -0.0452 -0.3269
    3MOL   C254 1018   5.329   6.609   2.067  0.1686  0.1683  0.0341
    3MOL   C255 1019   5.323   6.531   1.948  1.0168  0.1681  0.9217
    3MOL   C256 1020   5.265   6.399   1.948 -0.1317 -0.5605 -0.1854
    3MOL   C257 1021   5.200   6.350   2.066 -0.7282 -0.0583 -0.3998
    3MOL   C258 1022   5.204   6.433   2.181 -0.5859  0.0793 -0.5282
    3MOL   C259 1023   5.275   6.555   2.182  0.4084  0.3981 -0.5640
    3MOL   H260 1024   5.369   7.158   1.954 -0.2091 -0.3038 -0.1458
    3MOL   H261 1025   5.493   6.970   2.116 -1.6939  0.4113 -0.3985
    3MOL   H262 1026   5.542   6.761   1.953  0.0061 -0.1459  0.9530
    3MOL   H263 1027   5.372   6.793   1.894 -0.4343  1.2365 -0.5916
    3MOL   H264 1028   5.361   6.561   1.852  0.7117  0.2558  0.8281
    3MOL   H265 1029   5.248   6.350   1.853 -3.3230 -0.3303  0.2157
    3MOL   H266 1030   5.151   6.254   2.062  1.2089 -1.1118  0.9809
    3MOL   H267 1031   5.157   6.399   2.272  0.3534 -0.2965 -0.1763
    3MOL   C268 1032   5.262   6.629   2.307  0.1673 -0.3703 -0.4134
    3MOL   C269 1033   5.169   6.749   2.321 -0.0968 -0.6504  0.2504
    3MOL   O270 1034   5.127   6.616   2.358 -0.2432  0.3853 -0.0538
    3MOL   C271 1035   5.088   6.810   2.210 -0.3835  0.4329  0.6070
    3MOL   O272 1036   4.983   6.891   2.254  0.4991  0.4944 -0.1832
    3MOL   C273 1037   5.011   7.018   2.302 -0.5832 -0.1438  0.2396
    3MOL   C274 1038   5.137   7.086   2.282  0.4545 -0.3903 -0.1853
    3MOL   C275 1039   5.141   7.212   2.329 -0.1903 -0.2001 -0.0152
    3MOL   C276 1040   5.043   7.273   2.403  0.0091 -0.1238  0.4994
    3MOL   C277 1041   4.924   7.209   2.418 -0.5449  0.5279 -0.1836
    3MOL   C278 1042   4.903   7.080   2.369 -0.1232  0.3653  0.4430
    3MOL   H279 1043   5.330   6.599   2.386  0.0878  0.9129  0.1638
    3MOL   H280 1044   5.194   6.809   2.409 -2.4944  0.5187  0.1743
    3MOL   H281 1045   5.058   6.724   2.151  0.1599 -0.8979  2.2639
    3MOL   H282 1046   5.151   6.864   2.139  0.6212  1.9858  2.6446
    3MOL   H283 1047   5.224   7.045   2.234  0.6657  0.5148 -0.5743
    3MOL   H284 1048   5.240   7.250   2.311 -0.1114 -0.5447 -0.3085
    3MOL   H285 1049   5.044   7.378   2.428 -0.5323  0.2074 -0.8598
    3MOL   H286 1050   4.838   7.256   2.463 -0.9651  0.4682 -0.9135
    3MOL   C287 1051   4.768   7.021   2.384  0.3086 -0.4242 -0.3682
    3MOL   C288 1052   4.737   6.895   2.459  0.1737 -0.4393  0.5911
    3MOL   O289 1053   4.730   7.023   2.523  0.5127 -0.0144 -0.3961
    3MOL   C290 1054   4.848   6.808   2.500 -0.1595  0.1806 -0.2123
    3MOL   O291 1055   4.812   6.717   2.598  0.0930  0.5486 -0.1358
    3MOL   C292 1056   4.765   6.768   2.718 -0.4728  0.5309  0.2973
    3MOL   C293 1057   4.816   6.883   2.779  0.3466  0.3696  0.5373
    3MOL   C294 1058   4.747   6.937   2.884  0.6392 -0.5820 -0.1076
    3MOL   C295 1059   4.637   6.874   2.947 -0.8783  0.4173 -0.5304
    3MOL   C296 1060   4.596   6.749   2.895 -0.2892  1.0391  0.0639
    3MOL   C297 1061   4.656   6.701   2.776  0.1726  0.4523  0.1556
    3MOL   H298 1062   4.690   7.051   2.314  0.6897  2.7252  0.4939
    3MOL   H299 1063   4.641   6.844   2.468 -0.2676  0.6945  2.8579
    3MOL   H300 1064   4.938   6.863   2.529  1.6826 -3.2758  0.9838
    3MOL   H301 1065   4.874   6.750   2.411  1.3256  0.4599  0.0228
    3MOL   H302 1066   4.894   6.940   2.730 -0.8806  0.2138 -1.6529
    3MOL   H303 1067   4.771   7.034   2.925  2.6020 -1.9095  1.9966
    3MOL   H304 1068   4.579   6.917   3.028  0.9692 -0.9672  1.5985
    3MOL   H305 1069   4.522   6.684   2.940 -0.1075  0.2396 -0.7785
    3MOL   C306 1070   4.600   6.578   2.720  0.2729 -0.1306 -0.3212
    3MOL   C307 1071   4.670   6.447   2.716 -0.0450  0.0834  0.8037
    3MOL   O308 1072   4.572   6.474   2.818  0.0221  0.5235  0.1521
    3MOL   C309 1073   4.809   6.429   2.761 -0.3804 -0.5705  0.5303
    3MOL   O310 1074   4.830   6.292   2.767  0.3299  0.2732 -0.1815
    3MOL   C311 1075   4.872   6.217   2.660  0.5942  0.4078  0.5938
    3MOL   C312 1076   4.895   6.268   2.529  0.0788  1.3884  0.0958
    3MOL   C313 1077   4.940   6.192   2.418  0.1466  0.6284 -0.5935
    3MOL   C314 1078   4.966   6.053   2.439 -0.3783 -0.2700 -0.4180
    3MOL   C315 1079   4.951   5.998   2.570  0.1883  0.7185 -0.3801
    3MOL   C316 1080   4.900   6.079   2.680 -0.5652 -0.0949  0.8107
    3MOL   H317 1081   4.516   6.599   2.654 -1.9968  0.3591  2.5849
    3MOL   H318 1082   4.646   6.386   2.629 -1.0318 -0.2738  1.3136
    3MOL   H319 1083   4.814   6.474   2.860 -0.7819  1.1604 -0.2257
    3MOL   H320 1084   4.871   6.497   2.703 -1.8137  1.2671  1.1197
    3MOL   H321 1085   4.864   6.370   2.510  2.3719  2.0999  0.0737
    3MOL   H322 1086   4.958   6.229   2.318 -0.0542  1.7124 -0.2359
    3MOL   H323 1087   5.006   5.986   2.365  1.0532 -2.4516  2.2405
    3MOL   H324 1088   4.968   5.894   2.593  4.6996  1.3374 -0.4581
    3MOL   C325 1089   4.882   6.015   2.810  0.4049  0.3950  0.2203
    3MOL   C326 1090   4.751   5.960   2.865  0.6084 -0.3187  0.5207
    3MOL   O327 1091   4.848   5.875   2.793  0.1176  0.1820 -0.1727
    3MOL   C328 1092   4.613   5.966   2.792  0.1421 -0.2416 -0.0125
    3MOL   O329 1093   4.507   5.937   2.885 -0.0936  0.4289 -0.1503
    3MOL   C330 1094   4.451   6.033   2.961  0.0457 -0.1843 -0.7622
    3MOL   C331 1095   4.488   6.169   2.949 -0.3281  0.0663  0.2177
    3MOL   C332 1096   4.422   6.263   3.028  0.1341 -0.6261 -0.1128
    3MOL   C333 1097   4.330   6.226   3.129 -0.0928 -0.5599  0.4509
    3MOL   C334 1098   4.299   6.087   3.146 -1.4803 -0.1083  0.2119
    3MOL   C335 1099   4.360   5.994   3.062  0.0976 -0.6463  0.7128
    3MOL   H336 1100   4.970   6.028   2.874  0.1518  3.0236  0.0992
    3MOL   H337 1101   4.748   5.936   2.971  1.1338 -1.7505  0.2321
    3MOL   H338 1102   4.616   5.883   2.721  0.4446 -0.3831  0.1677
    3MOL   H339 1103   4.593   6.047   2.721  0.2737 -0.3600 -0.1846
    3MOL   H340 1104   4.551   6.208   2.870  1.7158 -1.9728  0.7586
    3MOL   H341 1105   4.442   6.369   3.018  0.0801 -0.5707  0.3546
    3MOL   H342 1106   4.283   6.300   3.192 -0.5928 -1.1773  0.8150
    3MOL   H343 1107   4.231   6.050   3.222 -0.5286 -0.9046  0.6803
    3MOL   C344 1108   4.328   5.848   3.078  0.0945  0.1103  0.1164
    3MOL   C345 1109   4.416   5.740   3.144 -0.5544  0.0182  0.2921
    3MOL   O346 1110   4.329   5.809   3.221 -0.4266  0.1213  0.1445
    3MOL   C347 1111   4.562   5.762   3.159  0.0222 -0.6284  0.2549
    3MOL   O348 1112   4.626   5.659   3.085  0.1091  0.4262 -0.2250
    3MOL   C349 1113   4.763   5.656   3.075 -0.1741 -0.2470 -0.6577
    3MOL   C350 1114   4.842   5.764   3.124  0.1590  0.0699 -0.4219
    3MOL   C351 1115   4.976   5.776   3.088 -0.3899 -0.2364 -0.4619
    3MOL   C352 1116   5.036   5.667   3.024  0.1034  0.2563  0.5832
    3MOL   C353 1117   4.957   5.562   2.979  0.3907 -0.6015 -1.0340
    3MOL   C354 1118   4.822   5.552   3.002  0.4584  0.0258 -1.0853
    3MOL   H355 1119   4.242   5.810   3.024  0.9809  0.3274 -1.4816
    3MOL   H356 1120   4.395   5.634   3.134  1.2874 -0.4393  0.9855
    3MOL   H357 1121   4.603   5.747   3.258 -0.0787  0.3110  0.4417
    3MOL   H358 1122   4.588   5.859   3.118  1.2370 -0.9408  0.2700
    3MOL   H359 1123   4.800   5.852   3.170 -0.7823 -0.8783  0.5847
    3MOL   H360 1124   5.031   5.860   3.127 -0.8932 -0.9067  1.7686
    3MOL   H361 1125   5.140   5.678   2.998  0.4592 -0.1894  1.7438
    3MOL   H362 1126   5.009   5.481   2.931  0.7637 -0.0289 -1.5977
    3MOL   C363 1127   4.745   5.431   2.952 -0.0834 -0.1567  1.1025
    3MOL   C364 1128   4.708   5.412   2.807  0.0403 -0.7629 -0.1808
    3MOL   O365 1129   4.815   5.337   2.870  0.4561  0.0244 -0.1168
    3MOL   C366 1130   4.749   5.516   2.704 -0.4047 -0.0662 -0.6471
    3MOL   O367 1131   4.751   5.458   2.575  0.5152 -0.1677 -0.0716
    3MOL   C368 1132   4.759   5.537   2.462 -0.1147  0.5305  0.1796
    3MOL   C369 1133   4.788   5.671   2.470  0.1640  0.0391  0.8532
    3MOL   C370 1134   4.786   5.745   2.349  0.5740  0.1079 -0.2004
    3MOL   C371 1135   4.767   5.686   2.221 -0.0824  0.7566 -0.4059
    3MOL   C372 1136   4.761   5.547   2.220 -0.0627  1.1446 -0.1722
    3MOL   C373 1137   4.760   5.468   2.336 -0.2620  0.0829 -0.3825
    3MOL   H374 1138   4.681   5.401   3.035  0.4790 -0.4693  1.4207
    3MOL   H375 1139   4.630   5.344   2.772  0.2182 -1.3390  0.5264
    3MOL   H376 1140   4.846   5.562   2.722  0.8506 -2.1382 -1.9367
    3MOL   H377 1141   4.679   5.600   2.703 -1.5820 -0.9565  1.9730
    3MOL   H378 1142   4.806   5.731   2.558  2.3483  0.7491 -0.0590
    3MOL   H379 1143   4.785   5.852   2.366 -0.5921  0.1582 -0.5396
    3MOL   H380 1144   4.753   5.752   2.137 -2.3434  0.9043  0.0541
    3MOL   H381 1145   4.759   5.494   2.126  2.8413 -0.5802  0.6765
    3MOL   H382 1146   4.745   5.361   2.333  1.8351 -0.2091 -0.7234
    4MOL     C1 1147   6.486   4.763   6.330  0.3027 -0.4363 -0.2231
    4MOL     C2 1148   6.360   4.837   6.356  0.1897 -0.5863 -0.2052
    4MOL     O3 1149   6.454   4.883   6.265 -0.1774 -0.1198 -0.1403
    4MOL     C4 1150   6.327   4.939   6.467  0.0158 -0.0933 -0.9245
    4MOL     O5 1151   6.429   4.961   6.554  0.1933  0.8909 -0.2394
    4MOL     C6 1152   6.426   4.897   6.674  0.5308  0.2414 -0.2261
    4MOL     C7 1153   6.377   4.766   6.706  0.0191  0.0522  0.6811
    4MOL     C8 1154   6.400   4.713   6.831  0.8391 -0.8394 -0.0627
    4MOL     C9 1155   6.464   4.786   6.930 -0.0304  0.0708 -0.0794
    4MOL    C10 1156   6.524   4.914   6.900  0.1403  0.3234 -0.7598
    4MOL    C11 1157   6.499   4.968   6.773 -0.4654 -0.1256 -0.3822
    4MOL    H12 1158   6.489   4.670   6.273 -2.1232 -0.7851  0.1628
    4MOL    H13 1159   6.272   4.800   6.304 -0.5159 -0.1425  0.6453
    4MOL    H14 1160   6.224   4.929   6.502 -0.0579 -0.0049 -1.1152
    4MOL    H15 1161   6.319   5.034   6.415 -0.1787  0.7924  0.6950
    4MOL    H16 1162   6.316   4.718   6.631  0.7063 -0.0425  0.1772
    4MOL    H17 1163   6.374   4.610   6.852 -0.5906 -0.2598  1.0923
    4MOL    H18 1164   6.474   4.753   7.032 -1.6023  0.4690  0.2157
    4MOL    H19 1165   6.583   4.969   6.973 -0.6350  0.9231 -0.5899
    4MOL    H20 1166   6.568   4.764   6.401 -0.4536 -2.6402  0.7391
    4MOL    C21 1167   6.578   5.087   6.735 -0.6025  0.7203 -0.7825
    4MOL    C22 1168   6.516   5.221   6.758 -0.2972  0.0134 -0.2167
    4MOL    O23 1169   6.613   5.164   6.852  0.2394  0.3141 -0.2492
    4MOL    C24 1170   6.374   5.221   6.792  0.2533 -0.0832 -0.2359
    4MOL    O25 1171   6.330   5.356   6.800 -0.0977  0.5871  0.9822
    4MOL    C26 1172   6.194   5.373   6.807 -1.0954  0.3444  0.4832
    4MOL    C27 1173   6.109   5.272   6.849 -0.0936 -0.0070 -0.2546
    4MOL    C28 1174   5.969   5.286   6.843  0.0151 -0.0534  0.0723
    4MOL    C29 1175   5.919   5.414   6.798  0.3585 -0.9316  0.1280
    4MOL    C30 1176   6.011   5.511   6.747  0.8825 -0.0196 -0.1643
    4MOL    C31 1177   6.150   5.492   6.749  0.1777  0.7487  0.2905
    4MOL    H32 1178   6.662   5.069   6.667  0.5222 -1.4648  1.1311
    4MOL    H33 1179   6.556   5.314   6.720  0.3953  1.1464  3.0478
    4MOL    H34 1180   6.355   5.175   6.889 -2.3261 -0.8582 -1.0586
    4MOL    H35 1181   6.330   5.162   6.711  1.9682  1.0235 -2.0086
    4MOL    H36 1182   6.135   5.174   6.887  0.5959 -0.6710 -2.3540
    4MOL    H37 1183   5.904   5.210   6.882 -0.2478  0.6953  1.1013
    4MOL    H38 1184   5.812   5.432   6.796  0.1446 -2.2345 -0.3592
    4MOL    H39 1185   5.969   5.597   6.696  0.1390  0.3588  1.0559
    4MOL    C40 1186   6.239   5.592   6.686  0.0092  0.5187  0.4593
    4MOL    C41 1187   6.329   5.563   6.561  0.1985 -0.5778 -0.3917
    4MOL    O42 1188   6.204   5.627   6.552 -0.1294  1.2562  0.2575
    4MOL    C43 1189   6.346   5.431   6.487  0.3516 -0.8110  0.4376
    4MOL    O44 1190   6.450   5.442   6.391  0.3754  0.5524  0.3476
    4MOL    C45 1191   6.419   5.501   6.265  0.0826 -0.0574 -0.1155
    4MOL    C46 1192   6.291   5.536   6.218  0.4142 -0.3119 -0.2522
    4MOL    C47 1193   6.270   5.594   6.092 -0.6292 -0.0996  0.1883
    4MOL    C48 1194   6.383   5.634   6.016  0.0883 -0.2804 -0.7944
    4MOL    C49 1195   6.510   5.599   6.065  0.0740 -0.6071  0.7687
    4MOL    C50 1196   6.530   5.525   6.178  0.1979  0.3231 -0.3487
    4MOL    H51 1197   6.247   5.675   6.756 -2.2700 -0.5185  2.0214
    4MOL    H52 1198   6.415   5.630   6.553  0.1778 -0.8357 -3.2366
    4MOL    H53 1199   6.251   5.392   6.451  0.9925 -1.5762 -0.4548
    4MOL    H54 1200   6.373   5.356   6.562 -0.6594  0.9549  2.6309
    4MOL    H55 1201   6.201   5.527   6.277  0.1332 -1.7213 -0.8600
    4MOL    H56 1202   6.173   5.630   6.061 -0.0475 -0.0657 -1.6522
    4MOL    H57 1203   6.369   5.683   5.921  1.3534  2.8555  0.5541
    4MOL    H58 1204   6.594   5.637   6.008 -0.2398 -1.5756 -0.3797
    4MOL    C59 1205   6.671   5.495   6.225  0.7540 -0.3586 -0.8955
    4MOL    C60 1206   6.725   5.357   6.240 -0.7542  0.5685  0.3254
    4MOL    O61 1207   6.752   5.437   6.125  0.7716  0.4257  0.2033
    4MOL    C62 1208   6.638   5.232   6.194  0.6310  0.5049  0.3523
    4MOL    O63 1209   6.697   5.121   6.116 -0.1564  0.5211 -0.0576
    4MOL    C64 1210   6.777   5.028   6.181  0.1827  0.2958  0.1664
    4MOL    C65 1211   6.767   5.000   6.320  0.3377  0.2269  0.5418
    4MOL    C66 1212   6.850   4.905   6.377  0.3474  0.1704  0.1401
    4MOL    C67 1213   6.941   4.833   6.299  0.0439 -0.0077  0.2329
    4MOL    C68 1214   6.939   4.845   6.161 -0.4681  1.0581  0.2823
    4MOL    C69 1215   6.865   4.947   6.101 -0.3944  0.8476  0.0615
    4MOL    H70 1216   6.717   5.579   6.277 -4.2348  1.0922  1.5292
    4MOL    H71 1217   6.807   5.336   6.309  1.0153  2.5871 -1.1026
    4MOL    H72 1218   6.560   5.264   6.125 -0.3332  1.5764  1.9131
    4MOL    H73 1219   6.575   5.200   6.276 -1.6738  1.2371 -1.0920
    4MOL    H74 1220   6.709   5.054   6.393 -0.0475 -2.0145  1.9217
    4MOL    H75 1221   6.862   4.880   6.481 -0.1701 -1.6216 -0.2050
    4MOL    H76 1222   7.015   4.767   6.342  1.1823 -0.6605 -2.6136
    4MOL    H77 1223   6.995   4.774   6.102  2.0263 -0.1870  3.9377
    4MOL    C78 1224   6.867   4.981   5.949  0.2643 -0.6947  0.0334
    4MOL    C79 1225   6.938   5.098   5.894  0.2320 -0.2160  0.2187
    4MOL    O80 1226   6.994   4.964   5.878  0.3803 -0.4823 -0.3876
    4MOL    C81 1227   7.010   5.199   5.983 -0.0547  0.4147 -0.1064
    4MOL    O82 1228   7.074   5.300   5.909  0.5906 -0.5819  0.5954
    4MOL    C83 1229   7.160   5.386   5.975  0.7148  0.4349 -0.0485
    4MOL    C84 1230   7.216   5.365   6.102 -0.1724  0.0403 -0.3335
    4MOL    C85 1231   7.280   5.465   6.182 -0.3181  0.2457 -0.1175
    4MOL    C86 1232   7.290   5.594   6.120  1.2246  0.1134 -0.7840
    4MOL    C87 1233   7.248   5.622   5.990 -0.0344  0.2443 -0.0806
    4MOL    C88 1234   7.180   5.510   5.920  0.2301  0.5331 -0.0390
    4MOL    H89 1235   6.790   4.924   5.896 -0.8112  0.5254  0.2581
    4MOL    H90 1236   6.907   5.136   5.796  0.3804 -2.0238 -0.5457
    4MOL    H91 1237   7.088   5.146   6.038 -2.0324 -2.0286  0.4979
    4MOL    H92 1238   6.940   5.240   6.056  0.2786 -1.1122  1.1154
    4MOL    H93 1239   7.196   5.275   6.158 -0.8577 -0.9076 -2.0776
    4MOL    H94 1240   7.307   5.446   6.285  1.3072 -0.1907 -0.6201
    4MOL    H95 1241   7.321   5.679   6.179 -0.0882 -0.4172  0.6933
    4MOL    H96 1242   7.267   5.716   5.939 -0.0283  0.1785 -0.1989
    4MOL    C97 1243   7.147   5.539   5.773 -0.2111  0.9489 -0.0889
    4MOL    C98 1244   7.009   5.565   5.727  0.1397  0.6300 -0.6943
    4MOL    O99 1245   7.105   5.677   5.754 -0.1107  0.3620  0.4138
    4MOL   C100 1246   6.882   5.554   5.814 -0.2561 -0.1579 -0.2807
    4MOL   O101 1247   6.762   5.574   5.737  0.2124  0.3864  0.5855
    4MOL   C102 1248   6.726   5.702   5.704 -0.5541 -0.1660 -0.0479
    4MOL   C103 1249   6.771   5.820   5.761 -0.0505  0.0365 -0.3199
    4MOL   C104 1250   6.724   5.946   5.730 -0.2117  0.4496  0.7560
    4MOL   C105 1251   6.638   5.960   5.622  0.1277  0.1886 -0.4177
    4MOL   C106 1252   6.591   5.841   5.559 -0.0877 -0.5099 -0.2685
    4MOL   C107 1253   6.633   5.713   5.598 -0.4044  0.2683  0.3976
    4MOL   H108 1254   7.220   5.493   5.706  1.3280  0.7445  1.6971
    4MOL   H109 1255   6.995   5.530   5.624  0.5016  1.3073 -0.9752
    4MOL   H110 1256   6.897   5.618   5.900 -1.9124  0.2870 -0.3031
    4MOL   H111 1257   6.865   5.452   5.848 -0.4739  0.6424  2.1141
    4MOL   H112 1258   6.843   5.807   5.841 -0.2469 -2.4325 -0.5070
    4MOL   H113 1259   6.763   6.029   5.787  0.0806  0.2980  0.7811
    4MOL   H114 1260   6.600   6.056   5.589  1.0090 -0.1914 -2.6132
    4MOL   H115 1261   6.525   5.860   5.476 -0.5497 -0.0744  0.1872
    4MOL   C116 1262   6.579   5.597   5.520  0.4710  0.8119  0.2610
    4MOL   C117 1263   6.464   5.513   5.563  0.2319  0.5321 -0.1335
    4MOL   O118 1264   6.451   5.619   5.471  0.3399  0.1258 -0.5770
    4MOL   C119 1265   6.394   5.538   5.695  0.1306 -0.4213  1.6456
    4MOL   O120 1266   6.260   5.481   5.681 -0.5000  0.0842 -0.4049
    4MOL   C121 1267   6.231   5.350   5.706 -0.1265 -0.2482 -0.1897
    4MOL   C122 1268   6.318   5.262   5.768 -0.0067 -0.1674 -0.3504
    4MOL   C123 1269   6.289   5.126   5.793 -0.2389  0.5993 -0.2641
    4MOL   C124 1270   6.155   5.084   5.760 -0.6950  0.9380 -0.0455
    4MOL   C125 1271   6.071   5.168   5.687  0.5615  0.0628 -0.2224
    4MOL   C126 1272   6.106   5.307   5.660  0.0723  0.2173 -0.2100
    4MOL   H127 1273   6.650   5.568   5.443 -0.3658  0.3685 -0.3443
    4MOL   H128 1274   6.456   5.412   5.524  0.8416  0.3538  0.2141
    4MOL   H129 1275   6.396   5.644   5.721 -2.3525 -0.4227  2.0001
    4MOL   H130 1276   6.448   5.487   5.774  0.8353 -1.3845  0.5632
    4MOL   H131 1277   6.422   5.289   5.773  0.0913 -0.4381 -0.8051
    4MOL   H132 1278   6.365   5.057   5.827  1.7079  2.1303 -1.3884
    4MOL   H133 1279   6.122   4.984   5.786 -0.4218  1.1356  1.0852
    4MOL   H134 1280   5.979   5.127   5.648  0.2291  0.1801  0.4414
    4MOL   C135 1281   6.030   5.408   5.579  0.5270 -0.1695 -0.2993
    4MOL   C136 1282   6.024   5.420   5.437 -0.6909 -0.5800 -0.1937
    4MOL   O137 1283   5.935   5.328   5.505 -0.5976  1.0272 -0.0114
    4MOL   C138 1284   6.125   5.364   5.345 -0.2987  0.1631 -0.7929
    4MOL   O139 1285   6.066   5.353   5.216  0.2336  0.2073 -0.0891
    4MOL   C140 1286   6.092   5.455   5.120  0.3775  0.2137 -0.2226
    4MOL   C141 1287   6.163   5.575   5.151 -0.3353 -0.8579 -0.5027
    4MOL   C142 1288   6.193   5.668   5.047  0.1343 -0.0663  0.0479
    4MOL   C143 1289   6.148   5.642   4.914 -0.3809  0.6966 -0.6228
    4MOL   C144 1290   6.077   5.522   4.879  0.0293 -0.2503 -0.4241
    4MOL   C145 1291   6.050   5.432   4.988  0.0986 -0.0211 -0.2028
    4MOL   H146 1292   5.988   5.492   5.634  3.2406 -0.0897  1.7711
    4MOL   H147 1293   5.981   5.513   5.400 -0.9606 -0.3017  0.7892
    4MOL   H148 1294   6.148   5.260   5.371 -0.2082  0.5439  0.7049
    4MOL   H149 1295   6.224   5.409   5.353  0.6073 -1.8593  0.0053
    4MOL   H150 1296   6.200   5.593   5.251 -0.5224  3.2075 -1.0850
    4MOL   H151 1297   6.255   5.754   5.061 -2.4470  2.1274 -1.4828
    4MOL   H152 1298   6.186   5.710   4.840 -0.9824  1.1512 -0.5281
    4MOL   H153 1299   6.063   5.494   4.776 -0.7617 -0.3893 -0.2829
    4MOL   C154 1300   5.982   5.299   4.956  0.4047  0.6306 -0.1269
    4MOL   C155 1301   5.830   5.296   4.961  0.8968 -0.2267 -0.2612
    4MOL   O156 1302   5.901   5.304   4.837 -0.3197 -0.4643  0.1024
    4MOL   C157 1303   5.756   5.415   5.014  0.6710  0.1287 -0.5723
    4MOL   O158 1304   5.634   5.425   4.938 -0.3144  0.1940 -0.4020
    4MOL   C159 1305   5.584   5.552   4.941  0.3925  0.5259 -0.5064
    4MOL   C160 1306   5.572   5.622   5.060 -0.3888  0.2990  0.0856
    4MOL   C161 1307   5.500   5.738   5.081  0.4105 -0.8588 -0.0068
    4MOL   C162 1308   5.446   5.796   4.968  0.2185 -0.2258  0.2742
    4MOL   C163 1309   5.459   5.728   4.842 -0.5909 -0.6368 -0.4876
    4MOL   C164 1310   5.528   5.602   4.826  0.9924 -0.3674 -0.4147
    4MOL   H165 1311   6.039   5.209   4.978 -0.3112  0.3957  0.8004
    4MOL   H166 1312   5.782   5.198   4.956 -0.2202  0.4100 -3.5280
    4MOL   H167 1313   5.815   5.503   4.986  3.4423 -1.3526  0.4981
    4MOL   H168 1314   5.741   5.410   5.121 -0.0056  0.9390 -0.6193
    4MOL   H169 1315   5.603   5.582   5.155 -4.1883 -0.9139  0.9282
    4MOL   H170 1316   5.487   5.782   5.179 -0.6458 -0.4139 -0.3378
    4MOL   H171 1317   5.393   5.890   4.980  2.2545  1.0691 -0.5394
    4MOL   H172 1318   5.412   5.779   4.758 -1.0974 -0.8321 -0.3264
    4MOL   C173 1319   5.546   5.522   4.700 -0.6258 -1.1901  0.3943
    4MOL   C174 1320   5.435   5.450   4.639 -0.2382 -0.2606  0.2898
    4MOL   O175 1321   5.464   5.583   4.591  0.2524  0.5740  0.1907
    4MOL   C176 1322   5.296   5.438   4.710 -0.0727  0.2380  0.7045
    4MOL   O177 1323   5.303   5.392   4.842  0.0749  0.6955  0.9908
    4MOL   C178 1324   5.190   5.364   4.911  0.0534 -0.0045 -0.2967
    4MOL   C179 1325   5.058   5.409   4.865 -0.6441 -0.3440  0.3806
    4MOL   C180 1326   4.947   5.378   4.939  0.3005  0.4718  0.1511
    4MOL   C181 1327   4.964   5.312   5.061  0.6476 -0.1516  0.1898
    4MOL   C182 1328   5.092   5.267   5.108 -0.3175 -0.0013  0.3155
    4MOL   C183 1329   5.207   5.285   5.028  0.2159  0.0684  0.1068
    4MOL   H184 1330   5.646   5.498   4.664 -0.2838 -0.4175  0.8212
    4MOL   H185 1331   5.459   5.369   4.570 -0.0161  0.5511 -0.5957
    4MOL   H186 1332   5.234   5.369   4.653  4.5386 -2.0141 -1.8067
    4MOL   H187 1333   5.252   5.538   4.711 -1.7666 -0.4894  0.4879
    4MOL   H188 1334   5.041   5.451   4.768  0.2626 -2.0682 -0.5494
    4MOL   H189 1335   4.846   5.394   4.904 -0.3005 -1.1920  1.0648
    4MOL   H190 1336   4.884   5.284   5.127  0.6328 -0.4883  0.0305
    4MOL   H191 1337   5.095   5.211   5.201 -0.7247 -0.7591 -0.1235
    4MOL   C192 1338   5.342   5.247   5.074  0.5078  0.3182  0.4674
    4MOL   C193 1339   5.408   5.321   5.177  0.7438  0.1876  0.2145
    4MOL   O194 1340   5.348   5.192   5.210 -0.2476  0.3070 -0.4794
    4MOL   C195 1341   5.350   5.435   5.259 -0.0629 -0.0896  0.4638
    4MOL   O196 1342   5.425   5.491   5.366 -0.3518 -0.1042  0.0459
    4MOL   C197 1343   5.458   5.404   5.471  0.2751  0.0446  0.6544
    4MOL   C198 1344   5.370   5.298   5.513 -0.3676  1.0013  0.2614
    4MOL   C199 1345   5.403   5.210   5.612 -0.2085  0.3008  0.3046
    4MOL   C200 1346   5.531   5.214   5.668  0.1680 -0.0953 -0.0073
    4MOL   C201 1347   5.620   5.311   5.629  0.3205 -0.1492 -0.0864
    4MOL   C202 1348   5.582   5.411   5.535 -0.4075  0.3289 -0.4923
    4MOL   H203 1349   5.399   5.180   5.011  0.2206 -0.3889  0.9506
    4MOL   H204 1350   5.516   5.323   5.162  1.1043 -0.8061  2.3767
    4MOL   H205 1351   5.249   5.418   5.295  0.1768  0.8868  1.6007
    4MOL   H206 1352   5.348   5.509   5.179  0.0636  0.3116  0.8307
    4MOL   H207 1353   5.279   5.280   5.458 -0.0545 -0.4866  0.2052
    4MOL   H208 1354   5.337   5.124   5.621  0.4774 -0.0945  1.7556
    4MOL   H209 1355   5.553   5.138   5.741  2.5811 -0.0493 -0.6579
    4MOL   H210 1356   5.716   5.317   5.678  0.1515  1.5453  0.0716
    4MOL   C211 1357   5.676   5.520   5.499  0.6625  0.1717  0.0506
    4MOL   C212 1358   5.664   5.654   5.564 -0.4267  0.5011  0.0303
    4MOL   O213 1359   5.761   5.556   5.608  0.0994 -0.2891 -0.3670
    4MOL   C214 1360   5.559   5.691   5.666 -0.2933  0.7901 -0.0118
    4MOL   O215 1361   5.516   5.828   5.639 -0.4229  0.8884 -0.5469
    4MOL   C216 1362   5.584   5.929   5.696 -1.0667  0.3173  0.7994
    4MOL   C217 1363   5.715   5.906   5.747  0.1277 -0.0289 -0.2995
    4MOL   C218 1364   5.785   6.012   5.804 -0.6139 -0.8775  0.2551
    4MOL   C219 1365   5.729   6.139   5.816  0.2492 -0.2959  1.0431
    4MOL   C220 1366   5.599   6.165   5.761  0.0032  0.9319  0.1282
    4MOL   C221 1367   5.524   6.060   5.695 -0.0053  0.0111 -0.0168
    4MOL   H222 1368   5.739   5.493   5.414  0.2803 -3.0916  0.7637
    4MOL   H223 1369   5.711   5.738   5.513 -2.4110  2.3756  1.1966
    4MOL   H224 1370   5.583   5.675   5.771 -1.0556  0.6869  0.1543
    4MOL   H225 1371   5.469   5.631   5.651 -0.3783  0.7834  0.4948
    4MOL   H226 1372   5.767   5.816   5.716  0.6595 -0.4968  1.8979
    4MOL   H227 1373   5.885   5.997   5.843  0.0599 -2.0862 -1.8442
    4MOL   H228 1374   5.784   6.218   5.864  1.0849  0.0526 -0.4553
    4MOL   H229 1375   5.562   6.265   5.773 -1.4750  0.3379  0.6714
    4MOL   C230 1376   5.392   6.086   5.628 -0.0886 -0.1421  1.4258
    4MOL   C231 1377   5.262   6.058   5.705  0.2823 -0.3559  0.1535
    4MOL   O232 1378   5.319   6.194   5.688  0.0236  0.5303  0.4200
    4MOL   C233 1379   5.263   6.024   5.851  0.8853 -0.6726  0.2697
    4MOL   O234 1380   5.153   6.081   5.921 -0.1100  0.4367 -0.0917
    4MOL   C235 1381   5.026   6.029   5.910  0.2802 -0.0075 -0.1045
    4MOL   C236 1382   4.978   5.931   5.816 -0.0928 -0.1083  0.0868
    4MOL   C237 1383   4.843   5.884   5.813 -0.1376  0.2801 -0.0881
    4MOL   C238 1384   4.754   5.931   5.907 -0.4624 -0.1106 -0.9283
    4MOL   C239 1385   4.798   6.021   6.009 -0.2344  0.6382  0.4333
    4MOL   C240 1386   4.933   6.073   6.008  0.0877 -0.3180 -0.2688
    4MOL   H241 1387   5.401   6.084   5.520  0.6068  1.1461  1.4488
    4MOL   H242 1388   5.170   6.051   5.647  0.6994  2.5055 -0.9402
    4MOL   H243 1389   5.361   6.054   5.889  0.3312  0.2755  0.9518
    4MOL   H244 1390   5.264   5.915   5.850  0.7383 -0.6810 -1.8228
    4MOL   H245 1391   5.043   5.890   5.740  1.1276  3.2720 -0.7742
    4MOL   H246 1392   4.806   5.818   5.736 -1.8341  2.2430 -1.0215
    4MOL   H247 1393   4.662   5.876   5.919 -0.0167 -1.0706 -1.8568
    4MOL   H248 1394   4.732   6.056   6.087 -0.5469  2.4072 -0.5919
    4MOL   C249 1395   4.975   6.179   6.093 -0.5316 -0.3537 -0.2514
    4MOL   C250 1396   4.913   6.316   6.088 -0.1297  0.1942  0.2471
    4MOL   O251 1397   4.872   6.223   6.185  0.0773 -0.7648 -0.1522
    4MOL   C252 1398   4.800   6.357   5.997 -0.1375 -0.7058 -0.3820
    4MOL   O253 1399   4.808   6.490   5.958 -0.5986 -0.4664 -0.6482
    4MOL   C254 1400   4.743   6.591   6.027  0.0782  0.2065  0.3206
    4MOL   C255 1401   4.726   6.589   6.174  0.5806 -0.3113  0.4678
    4MOL   C256 1402   4.655   6.687   6.233 -0.4950 -0.5168  0.1649
    4MOL   C257 1403   4.623   6.803   6.159  0.4846 -0.0898 -0.9696
    4MOL   C258 1404   4.642   6.813   6.021  0.2020 -0.1781  0.3462
    4MOL   C259 1405   4.702   6.707   5.954  0.6529 -0.0367  0.5006
    4MOL   H260 1406   5.074   6.170   6.138  0.1325  2.1400 -1.1746
    4MOL   H261 1407   4.966   6.399   6.134  1.7049  0.2332 -1.8635
    4MOL   H262 1408   4.703   6.347   6.048  0.0441 -0.4281  0.0225
    4MOL   H263 1409   4.801   6.292   5.910 -0.8958 -0.6099 -0.4655
    4MOL   H264 1410   4.753   6.500   6.229  0.9000 -0.0168  0.7915
    4MOL   H265 1411   4.628   6.693   6.337  1.5640 -1.6087  0.7916
    4MOL   H266 1412   4.574   6.882   6.212 -1.1699 -1.9768  0.3678
    4MOL   H267 1413   4.599   6.898   5.971  1.2613  0.3555  0.3414
    4MOL   C268 1414   4.723   6.713   5.809  0.6378 -0.2383  0.3471
    4MOL   C269 1415   4.656   6.624   5.702  0.2938  0.5338 -0.2810
    4MOL   O270 1416   4.608   6.756   5.732  0.5000 -0.0839 -0.2349
    4MOL   C271 1417   4.551   6.519   5.742 -0.0471 -0.4454 -0.4307
    4MOL   O272 1418   4.504   6.457   5.626 -0.1263 -0.1831 -0.1114
    4MOL   C273 1419   4.588   6.369   5.555  0.1497  0.8475  0.2292
    4MOL   C274 1420   4.724   6.343   5.588 -0.0442  0.1843 -0.1520
    4MOL   C275 1421   4.802   6.255   5.514  0.3200 -0.3046 -0.2242
    4MOL   C276 1422   4.748   6.177   5.410  0.2452  0.0167 -0.3472
    4MOL   C277 1423   4.618   6.209   5.367  0.6517  0.4799 -0.1365
    4MOL   C278 1424   4.533   6.294   5.445 -0.7460 -0.0321  0.1170
    4MOL   H279 1425   4.808   6.779   5.796  1.6715 -1.1666  2.2436
    4MOL   H280 1426   4.713   6.612   5.610  0.2595  1.1182 -0.3853
    4MOL   H281 1427   4.481   6.570   5.808  0.5605 -0.1053 -0.0453
    4MOL   H282 1428   4.593   6.442   5.807  0.6269 -0.0786 -0.4318
    4MOL   H283 1429   4.773   6.384   5.675  0.6158  0.0096 -0.4359
    4MOL   H284 1430   4.905   6.249   5.546  0.4633 -0.5850 -0.7225
    4MOL   H285 1431   4.810   6.106   5.358  2.6568  1.7292  0.1219
    4MOL   H286 1432   4.574   6.154   5.285 -0.1108  0.1176  0.5041
    4MOL   C287 1433   4.383   6.317   5.410 -0.0153  0.3090 -0.1419
    4MOL   C288 1434   4.345   6.403   5.298 -0.0152  0.5538 -0.7488
    4MOL   O289 1435   4.355   6.263   5.283 -0.1836  0.9668  0.3226
    4MOL   C290 1436   4.442   6.488   5.212  0.8416 -0.0771 -0.1167
    4MOL   O291 1437   4.497   6.602   5.290  0.5653  0.3507  0.2549
    4MOL   C292 1438   4.415   6.718   5.299  0.4487  0.2451  0.1487
    4MOL   C293 1439   4.274   6.718   5.273  0.1084  0.0808 -0.1878
    4MOL   C294 1440   4.204   6.836   5.270  0.0189 -0.4722  0.4283
    4MOL   C295 1441   4.265   6.961   5.302 -0.7908 -0.7044 -0.5800
    4MOL   C296 1442   4.397   6.965   5.353  0.4435  0.5976 -0.0598
    4MOL   C297 1443   4.475   6.845   5.336 -0.1451  0.3059 -0.6712
    4MOL   H298 1444   4.311   6.309   5.491  1.0737 -0.9783  0.7236
    4MOL   H299 1445   4.240   6.429   5.281 -0.8352 -0.6024  2.2814
    4MOL   H300 1446   4.403   6.520   5.115 -2.2442 -0.7124  0.8530
    4MOL   H301 1447   4.524   6.424   5.181  1.5871  1.1917 -0.8160
    4MOL   H302 1448   4.221   6.628   5.245 -0.5682 -0.3476  2.3964
    4MOL   H303 1449   4.101   6.832   5.240  0.2803 -2.8225 -0.2734
    4MOL   H304 1450   4.204   7.049   5.313 -1.2815 -1.3094  1.9595
    4MOL   H305 1451   4.444   7.060   5.376  0.8548  0.2008  0.7454
    4MOL   C306 1452   4.624   6.841   5.361  0.4758 -0.0028 -0.5270
    4MOL   C307 1453   4.726   6.873   5.254  0.0789 -0.4505 -0.3204
    4MOL   O308 1454   4.688   6.973   5.344 -0.3166  0.2249 -0.4470
    4MOL   C309 1455   4.681   6.885   5.109  0.6240  0.4196 -0.0933
    4MOL   O310 1456   4.757   6.965   5.026  0.1913  0.4383  0.1834
    4MOL   C311 1457   4.875   6.918   4.970 -0.2794  0.1745 -0.1635
    4MOL   C312 1458   4.928   6.793   4.988  0.3680 -0.1329 -0.5984
    4MOL   C313 1459   5.056   6.766   4.951  0.0233 -0.2751  0.6417
    4MOL   C314 1460   5.137   6.864   4.880  0.2414  0.1169  0.0644
    4MOL   C315 1461   5.076   6.987   4.862  0.1781  0.1259 -0.7145
    4MOL   C316 1462   4.946   7.016   4.899  0.1546  0.4729 -0.7037
    4MOL   H317 1463   4.647   6.786   5.451 -0.9609 -2.8926 -1.8606
    4MOL   H318 1464   4.830   6.839   5.262 -0.2020 -1.4635 -0.8160
    4MOL   H319 1465   4.585   6.937   5.104  0.5154  0.4027  1.4774
    4MOL   H320 1466   4.684   6.783   5.072  1.7008  0.4339 -0.0744
    4MOL   H321 1467   4.866   6.721   5.040  1.3841 -0.3402  0.3412
    4MOL   H322 1468   5.096   6.667   4.966 -0.9993 -0.6609  0.9025
    4MOL   H323 1469   5.239   6.843   4.851  0.3220  0.8899 -0.2324
    4MOL   H324 1470   5.137   7.058   4.807  1.8491 -0.5462  0.2482
    4MOL   C325 1471   4.884   7.149   4.877  0.2939  0.3486  0.0184
    4MOL   C326 1472   4.899   7.262   4.976 -0.1151 -1.0657 -0.1442
    4MOL   O327 1473   4.994   7.244   4.869  0.0527  0.2451 -0.7573
    4MOL   C328 1474   4.952   7.241   5.110 -0.4941 -1.0709 -0.2307
    4MOL   O329 1475   4.934   7.351   5.205  0.8226 -0.1979  0.4199
    4MOL   C330 1476   4.805   7.383   5.247  0.1365  0.8618 -0.7321
    4MOL   C331 1477   4.695   7.298   5.227 -0.4261  0.0935  0.2681
    4MOL   C332 1478   4.569   7.339   5.280 -0.4166  0.7782 -0.4691
    4MOL   C333 1479   4.546   7.458   5.346 -0.6885 -0.2862  0.2578
    4MOL   C334 1480   4.661   7.542   5.361  0.5015  0.3258 -0.3636
    4MOL   C335 1481   4.790   7.509   5.313 -0.2157  0.6608  0.1365
    4MOL   H336 1482   4.821   7.159   4.789  0.9309 -2.3270 -0.8050
    4MOL   H337 1483   4.837   7.350   4.957 -0.0690 -1.3447 -1.5893
    4MOL   H338 1484   5.058   7.217   5.101 -0.4045 -1.0931  0.8147
    4MOL   H339 1485   4.907   7.149   5.149 -0.9517 -1.1785 -0.9868
    4MOL   H340 1486   4.708   7.196   5.193  0.2186  0.0126  0.7431
    4MOL   H341 1487   4.487   7.277   5.248  1.0427 -0.0115 -2.8071
    4MOL   H342 1488   4.450   7.494   5.380  0.3517  1.9497  0.8988
    4MOL   H343 1489   4.654   7.631   5.422 -1.2661 -1.4818  2.2156
    4MOL   C344 1490   4.912   7.601   5.330  0.2544 -0.7223 -0.1016
    4MOL   C345 1491   4.980   7.682   5.224  0.4590  0.1099 -0.3589
    4MOL   O346 1492   4.874   7.737   5.305  0.5301  0.0688 -0.7388
    4MOL   C347 1493   4.947   7.665   5.076 -0.0451 -0.0955 -1.1811
    4MOL   O348 1494   5.002   7.780   5.016  0.0436 -0.3426  0.0077
    4MOL   C349 1495   4.973   7.814   4.885 -0.4723 -0.8204 -0.9200
    4MOL   C350 1496   4.925   7.721   4.793 -0.5358  0.1902 -0.4706
    4MOL   C351 1497   4.907   7.749   4.656  0.0947 -0.1187  0.2563
    4MOL   C352 1498   4.936   7.879   4.613  0.6347 -0.3476 -0.8870
    4MOL   C353 1499   4.976   7.983   4.703 -0.5621 -0.3020 -0.1590
    4MOL   C354 1500   4.998   7.946   4.838 -0.4840 -0.2716 -0.0413
    4MOL   H355 1501   4.960   7.584   5.426  1.6869  1.8930 -0.3153
    4MOL   H356 1502   5.077   7.723   5.249  1.8029 -0.9155 -3.5200
    4MOL   H357 1503   4.842   7.644   5.053 -0.2372  2.3752 -2.7749
    4MOL   H358 1504   4.992   7.574   5.037 -1.1733 -0.9928 -0.4302
    4MOL   H359 1505   4.897   7.620   4.818 -1.8470  1.1880  2.2682
    4MOL   H360 1506   4.870   7.670   4.593 -1.0063 -0.5806  1.4783
    4MOL   H361 1507   4.924   7.910   4.510 -0.8761  0.9747 -0.3290
    4MOL   H362 1508   4.976   8.084   4.665  1.7493 -0.0272  0.4775
    4MOL   C363 1509   5.034   8.046   4.944  0.0339  0.2476  0.2967
    4MOL   C364 1510   5.172   8.117   4.948  0.0290 -0.2479  0.1936
    4MOL   O365 1511   5.055   0.006   4.886 -0.1789 -0.3183 -0.3884
    4MOL   C366 1512   5.285   8.093   4.855  0.4593  0.7452  0.3541
    4MOL   O367 1513   5.385   0.030   4.853  0.1975  0.1291 -0.2243
    4MOL   C368 1514   5.355   0.142   4.786 -0.8383 -1.0804 -0.2891
    4MOL   C369 1515   5.234   0.156   4.701  0.3192 -0.6347 -0.4250
    4MOL   C370 1516   5.197   0.275   4.645 -0.7631  0.1772  0.2086
    4MOL   C371 1517   5.284   0.387   4.654  0.5478  0.1153 -0.2422
    4MOL   C372 1518   5.408   0.378   4.725  0.4650 -0.4869 -0.6859
    4MOL   C373 1519   5.442   0.256   4.788 -0.3083 -0.2271 -0.2237
    4MOL   H374 1520   4.966   8.048   5.029 -0.7577 -0.2978 -0.3244
    4MOL   H375 1521   5.197   0.013   5.031 -1.0774  0.3502  0.0669
    4MOL   H376 1522   5.246   8.085   4.754  1.5066  2.2090 -0.1801
    4MOL   H377 1523   5.344   8.005   4.878 -0.1333  0.5520  1.1736
    4MOL   H378 1524   5.158   0.079   4.704  0.1445 -0.4085  1.1750
    4MOL   H379 1525   5.100   0.280   4.596  0.0905  1.4815 -1.4234
    4MOL   H380 1526   5.268   0.482   4.604  0.2564  0.0194 -0.3330
    4MOL   H381 1527   5.480   0.456   4.743 -0.5986  0.4908 -0.5621
    4MOL   H382 1528   5.533   0.263   4.846 -1.0147  3.6243  0.5734
    5MOL     C1 1529   6.376   7.752   0.552 -0.3840  0.2297  0.0632
    5MOL     C2 1530   6.380   7.604   0.523 -0.0007 -0.2188  0.6758
    5MOL     O3 1531   6.489   7.696   0.497 -0.0710 -0.4365 -0.1737
    5MOL     C4 1532   6.346   7.525   0.396  0.3821 -0.7008 -0.5814
    5MOL     O5 1533   6.430   7.408   0.403  0.1387  0.5622  0.5678
    5MOL     C6 1534   6.400   7.306   0.489 -0.4802  0.2579  1.1455
    5MOL     C7 1535   6.291   7.308   0.575 -0.4955  0.1404  0.2064
    5MOL     C8 1536   6.264   7.203   0.658  0.0604  0.0060  0.3522
    5MOL     C9 1537   6.343   7.090   0.657  0.1639  0.1912  0.0837
    5MOL    C10 1538   6.459   7.086   0.577  0.5927 -0.0130 -0.4325
    5MOL    C11 1539   6.489   7.200   0.491  0.3457  0.1713 -0.2588
    5MOL    H12 1540   6.395   7.789   0.653 -0.7010 -0.5766  0.4187
    5MOL    H13 1541   6.380   7.545   0.614 -2.1029  1.0520  1.5380
    5MOL    H14 1542   6.371   7.571   0.300 -0.4877  1.9268  0.4159
    5MOL    H15 1543   6.239   7.506   0.384 -0.0157  0.8208  0.4513
    5MOL    H16 1544   6.223   7.391   0.572  0.5434  0.9858 -0.1383
    5MOL    H17 1545   6.189   7.209   0.735  0.2594 -1.5863  0.6948
    5MOL    H18 1546   6.323   7.010   0.727 -2.7130 -1.0146 -2.0034
    5MOL    H19 1547   6.524   7.000   0.580 -0.8680 -1.0880  1.9590
    5MOL    H20 1548   6.320   7.811   0.480  0.0470 -0.2862 -0.6958
    5MOL    C21 1549   6.602   7.194   0.390  0.4954 -0.4012 -0.2535
    5MOL    C22 1550   6.751   7.235   0.427  0.1184  0.1989 -0.4139
    5MOL    O23 1551   6.703   7.101   0.420  0.7190 -1.2387  0.3458
    5MOL    C24 1552   6.768   7.306   0.565  0.1362 -0.0519  0.1703
    5MOL    O25 1553   6.875   7.264   0.645 -0.2787 -0.0591  0.7343
    5MOL    C26 1554   6.891   7.137   0.700 -0.2282  0.4389 -0.2240
    5MOL    C27 1555   6.788   7.043   0.705  0.5557  0.1514 -0.2980
    5MOL    C28 1556   6.803   6.918   0.775  0.0858 -0.5257 -0.0441
    5MOL    C29 1557   6.926   6.885   0.836 -0.4969 -0.6581  0.4010
    5MOL    C30 1558   7.033   6.988   0.837 -0.4043  0.2357 -0.1225
    5MOL    C31 1559   7.016   7.113   0.772  0.0211 -0.1216 -0.1511
    5MOL    H32 1560   6.575   7.194   0.284 -2.0089  0.5573  0.3661
    5MOL    H33 1561   6.819   7.270   0.350  1.6818  1.5716  1.5526
    5MOL    H34 1562   6.671   7.299   0.616  1.0037 -0.7673  1.7551
    5MOL    H35 1563   6.768   7.415   0.559 -0.9107 -0.0068  0.8184
    5MOL    H36 1564   6.691   7.067   0.664 -0.7234  0.3813  2.7116
    5MOL    H37 1565   6.721   6.849   0.782  1.0127 -1.8113 -1.6737
    5MOL    H38 1566   6.934   6.793   0.892 -2.2119 -1.7387 -1.0718
    5MOL    H39 1567   7.123   6.958   0.891 -1.4508 -0.3160  1.3483
    5MOL    C40 1568   7.127   7.209   0.776  0.1904  0.3940 -0.1422
    5MOL    C41 1569   7.118   7.345   0.857  0.0432  0.4623 -0.0149
    5MOL    O42 1570   7.189   7.231   0.908 -0.1834  0.2645  0.2221
    5MOL    C43 1571   6.997   7.399   0.934 -0.1899 -0.7092 -0.6439
    5MOL    O44 1572   7.033   7.498   1.027 -0.5789 -0.4890  0.1400
    5MOL    C45 1573   7.066   7.630   0.980 -0.0538  0.0624  0.6849
    5MOL    C46 1574   7.030   7.678   0.855  0.6381  0.0439  0.0881
    5MOL    C47 1575   7.062   7.807   0.819  0.6561 -0.2955 -0.5815
    5MOL    C48 1576   7.133   7.893   0.905  0.1720  0.3883  0.3468
    5MOL    C49 1577   7.173   7.842   1.030  0.1182 -0.1794 -0.4770
    5MOL    C50 1578   7.135   7.711   1.068  0.8359  0.0172 -0.8482
    5MOL    H51 1579   7.202   7.192   0.698 -1.3766 -1.2219 -1.3380
    5MOL    H52 1580   7.183   7.423   0.819 -1.2198  0.9917 -1.1071
    5MOL    H53 1581   6.946   7.319   0.988 -1.1282  1.8978  2.4449
    5MOL    H54 1582   6.930   7.440   0.857 -2.4511  0.1591  1.6975
    5MOL    H55 1583   6.983   7.617   0.780  1.1972  3.3410 -3.1074
    5MOL    H56 1584   7.021   7.850   0.728  1.0977 -0.6422 -0.9469
    5MOL    H57 1585   7.155   7.996   0.879  0.4176  0.9370  2.5926
    5MOL    H58 1586   7.236   7.907   1.090 -1.4975 -0.7687  1.9366
    5MOL    C59 1587   7.186   7.648   1.199 -0.8407 -0.9644  0.0277
    5MOL    C60 1588   7.304   7.556   1.202  1.1103 -0.2984 -0.0904
    5MOL    O61 1589   7.325   7.691   1.234 -0.4426  0.1380 -0.6776
    5MOL    C62 1590   7.371   7.515   1.063  0.0843 -0.5164 -0.3670
    5MOL    O63 1591   7.507   7.470   1.073  0.1867  0.1384  0.6672
    5MOL    C64 1592   7.564   7.417   0.958  0.1264 -0.3322  0.4474
    5MOL    C65 1593   7.511   7.441   0.826  0.5441 -0.1898  0.3192
    5MOL    C66 1594   7.579   7.411   0.710 -0.0656  0.3815 -0.3007
    5MOL    C67 1595   7.699   7.338   0.723 -0.4984 -0.3172 -0.2871
    5MOL    C68 1596   7.751   7.307   0.849  0.2123 -0.4047 -1.1074
    5MOL    C69 1597   7.685   7.349   0.967  0.1082 -0.5764  0.3110
    5MOL    H70 1598   7.115   7.661   1.280 -0.7710 -1.4716  0.1702
    5MOL    H71 1599   7.315   7.489   1.287 -1.0760  1.0280  1.2912
    5MOL    H72 1600   7.354   7.594   0.990  0.4461  0.7555  0.8945
    5MOL    H73 1601   7.315   7.430   1.026 -0.2608 -0.1312 -0.7222
    5MOL    H74 1602   7.427   7.509   0.819  0.3650 -0.3003  1.2308
    5MOL    H75 1603   7.565   7.452   0.611 -1.9291  2.3623  0.7526
    5MOL    H76 1604   7.759   7.300   0.642 -0.3914  0.3020 -0.5014
    5MOL    H77 1605   7.850   7.264   0.856  0.4695  0.3838  0.2610
    5MOL    C78 1606   7.754   7.321   1.091 -0.1933  0.0083  0.2769
    5MOL    C79 1607   7.706   7.232   1.204  0.6878 -0.4629  0.0016
    5MOL    O80 1608   7.787   7.178   1.100  0.1943  0.0469 -0.0803
    5MOL    C81 1609   7.565   7.176   1.204 -0.2162  0.0695  0.3081
    5MOL    O82 1610   7.541   7.095   1.320 -0.3179 -0.0851 -0.2109
    5MOL    C83 1611   7.537   7.146   1.446 -0.2188 -0.2515 -0.3962
    5MOL    C84 1612   7.501   7.277   1.479 -0.0338  0.1012 -0.0578
    5MOL    C85 1613   7.486   7.320   1.614  0.4630  0.1799  0.7864
    5MOL    C86 1614   7.534   7.238   1.716 -0.0108 -0.1919 -0.1146
    5MOL    C87 1615   7.563   7.104   1.690 -0.7199  0.2320  0.4831
    5MOL    C88 1616   7.565   7.056   1.555  0.1843  0.4814  0.2125
    5MOL    H89 1617   7.836   7.391   1.112  1.0711 -0.2211 -3.5660
    5MOL    H90 1618   7.755   7.244   1.300  0.7583 -0.9885  0.0325
    5MOL    H91 1619   7.572   7.114   1.115  1.6410 -0.7336  0.9736
    5MOL    H92 1620   7.491   7.256   1.208  0.6786  0.8579  1.4350
    5MOL    H93 1621   7.475   7.349   1.404  2.1823  0.0019 -0.9490
    5MOL    H94 1622   7.442   7.417   1.631 -0.5343 -0.2432  0.6950
    5MOL    H95 1623   7.539   7.277   1.817  0.7377  0.0082 -0.2281
    5MOL    H96 1624   7.583   7.034   1.770  0.9414  0.9109  0.6994
    5MOL    C97 1625   7.573   6.909   1.533 -0.9328 -0.2009  0.4758
    5MOL    C98 1626   7.696   6.850   1.463 -0.7520 -0.8649 -0.1194
    5MOL    O99 1627   7.675   6.855   1.612  0.0663 -0.4995 -0.0596
    5MOL   C100 1628   7.806   6.938   1.405  0.1341 -0.5638 -0.8535
    5MOL   O101 1629   7.910   6.873   1.328 -0.2315 -0.5505  0.3879
    5MOL   C102 1630   8.017   6.807   1.394 -0.5406  0.2703 -0.1990
    5MOL   C103 1631   8.033   6.821   1.535  1.0238  0.1825  0.1894
    5MOL   C104 1632   8.143   6.754   1.595 -0.6303  0.6776  0.0697
    5MOL   C105 1633   0.057   6.661   1.524 -0.8244  0.1475 -0.9308
    5MOL   C106 1634   0.041   6.654   1.385 -0.0406  0.4834  0.0956
    5MOL   C107 1635   8.110   6.724   1.319  0.5761 -0.4005  1.2859
    5MOL   H108 1636   7.479   6.855   1.538 -0.7644 -0.3423  2.5868
    5MOL   H109 1637   7.677   6.756   1.410  0.0598 -0.9412 -0.2787
    5MOL   H110 1638   7.841   7.004   1.485 -0.8701  0.6861 -1.4190
    5MOL   H111 1639   7.756   7.000   1.330 -1.4570  2.2076  2.3026
    5MOL   H112 1640   7.967   6.871   1.604  1.6400  0.8031  0.3414
    5MOL   H113 1641   8.168   6.770   1.699 -0.4526 -2.0374  0.4757
    5MOL   H114 1642   0.133   6.605   1.577 -0.6817  0.6325 -0.6149
    5MOL   H115 1643   0.096   6.583   1.325 -1.2212  0.7720 -1.3396
    5MOL   C116 1644   8.092   6.690   1.174 -0.4334  0.7776  0.2872
    5MOL   C117 1645   8.120   6.784   1.058  0.0543 -0.2264  0.0100
    5MOL   O118 1646   0.048   6.698   1.098  0.4472 -0.2993  0.2878
    5MOL   C119 1647   8.148   6.933   1.087 -1.1813 -0.5796 -0.7321
    5MOL   O120 1648   0.030   6.987   0.966 -0.0670  0.2079 -0.7168
    5MOL   C121 1649   0.028   7.125   0.959  0.2892  1.0115  0.8481
    5MOL   C122 1650   0.075   7.205   1.065 -0.2652 -0.4360  0.0848
    5MOL   C123 1651   0.078   7.345   1.051 -0.0467  0.5530 -0.4445
    5MOL   C124 1652   0.022   7.403   0.938 -0.2374  0.4739 -0.9175
    5MOL   C125 1653   8.155   7.328   0.833 -0.1349 -0.1032 -0.4408
    5MOL   C126 1654   8.163   7.190   0.834 -0.0148 -0.5300 -0.0143
    5MOL   H127 1655   8.033   6.602   1.150 -1.5515  1.4864  0.3726
    5MOL   H128 1656   8.072   6.767   0.962  0.5402  2.0637 -0.6785
    5MOL   H129 1657   0.055   6.951   1.162 -1.3608  3.6738 -1.4644
    5MOL   H130 1658   8.063   6.990   1.121  0.4581  1.8652 -0.6088
    5MOL   H131 1659   0.094   7.161   1.161 -0.5574  0.1266  0.4030
    5MOL   H132 1660   0.117   7.407   1.130  1.4195 -0.4203 -0.3831
    5MOL   H133 1661   8.170   7.508   0.928 -1.1413  0.3555 -0.2749
    5MOL   H134 1662   8.125   7.379   0.743  0.4738  0.5025 -0.3000
    5MOL   C135 1663   8.126   7.111   0.710  0.2316  0.3119 -0.8363
    5MOL   C136 1664   8.001   7.026   0.705  0.1576 -0.2503 -0.1671
    5MOL   O137 1665   8.004   7.157   0.655  0.1702  0.0860  0.4178
    5MOL   C138 1666   7.915   7.000   0.823 -0.9163  0.2134 -0.4197
    5MOL   O139 1667   7.778   6.995   0.780 -0.0725  0.4846 -0.2984
    5MOL   C140 1668   7.684   6.945   0.867  0.5246 -0.3195 -0.0034
    5MOL   C141 1669   7.720   6.883   0.989  1.2157  0.1568 -0.1679
    5MOL   C142 1670   7.631   6.845   1.089  0.4594 -0.9333 -0.0917
    5MOL   C143 1671   7.493   6.848   1.068 -0.4095 -0.8581 -0.7221
    5MOL   C144 1672   7.452   6.916   0.947 -0.3808 -0.1916 -0.1162
    5MOL   C145 1673   7.545   6.961   0.844  0.3884  1.0206  0.4002
    5MOL   H146 1674   0.035   7.091   0.639 -0.9010  0.6949 -2.2274
    5MOL   H147 1675   7.995   6.949   0.628 -1.3296 -0.0287 -0.2704
    5MOL   H148 1676   7.923   7.070   0.907 -1.9756  0.3903 -0.4612
    5MOL   H149 1677   7.951   6.902   0.855  0.2986  1.5130  2.3332
    5MOL   H150 1678   7.823   6.880   1.020  1.0084 -3.1485  0.3352
    5MOL   H151 1679   7.670   6.801   1.180  0.6040 -0.0315  0.2816
    5MOL   H152 1680   7.430   6.825   1.152  1.9112 -1.3580  0.9378
    5MOL   H153 1681   7.348   6.940   0.935 -0.9836 -2.3604  0.5943
    5MOL   C154 1682   7.493   7.031   0.724 -0.2101  0.5181 -0.3653
    5MOL   C155 1683   7.506   6.981   0.586  0.2599  0.1017 -0.5668
    5MOL   O156 1684   7.384   6.955   0.665  0.3754  0.3505  0.2671
    5MOL   C157 1685   7.580   6.849   0.546  0.1432 -0.3317  0.6278
    5MOL   O158 1686   7.578   6.843   0.401  0.2691 -0.3416  0.6694
    5MOL   C159 1687   7.670   6.909   0.324 -0.2407  0.7083 -0.8483
    5MOL   C160 1688   7.760   6.998   0.389 -0.2195  1.0749 -0.3060
    5MOL   C161 1689   7.849   7.068   0.306  0.0075  0.1157  0.2748
    5MOL   C162 1690   7.852   7.059   0.167  0.3161  0.1839 -0.2094
    5MOL   C163 1691   7.752   6.970   0.109 -0.1345 -0.2859  0.7791
    5MOL   C164 1692   7.669   6.888   0.185 -0.0546  0.3630  0.0594
    5MOL   H165 1693   7.461   7.130   0.754 -2.0384  0.0886 -0.8194
    5MOL   H166 1694   7.480   7.048   0.504  0.9292 -0.5799 -1.3477
    5MOL   H167 1695   7.524   6.769   0.595 -0.8009  0.9366  1.6601
    5MOL   H168 1696   7.683   6.847   0.580  0.3598  1.2165  0.1063
    5MOL   H169 1697   7.770   7.034   0.491  0.6211  4.1387 -1.3916
    5MOL   H170 1698   7.918   7.137   0.353 -0.9584  0.4494  1.2087
    5MOL   H171 1699   7.922   7.120   0.112 -0.3382  0.7737 -0.4025
    5MOL   H172 1700   7.759   6.956   0.002  0.8568 -0.3316  0.8428
    5MOL   C173 1701   7.580   6.795   0.116 -0.7532 -0.8518  0.0713
    5MOL   C174 1702   7.431   6.809   0.139  0.5904 -0.2281 -0.5114
    5MOL   O175 1703   7.496   6.845   0.011  0.2978 -0.1264 -1.0049
    5MOL   C176 1704   7.353   6.933   0.200  0.3652 -0.5327  0.0931
    5MOL   O177 1705   7.426   7.051   0.190  0.1957  0.7656  0.1431
    5MOL   C178 1706   7.382   7.160   0.265  0.4228  0.0650  0.7828
    5MOL   C179 1707   7.265   7.149   0.343 -0.1087  0.2289 -0.1606
    5MOL   C180 1708   7.210   7.261   0.413 -0.5207  0.8000 -0.5535
    5MOL   C181 1709   7.291   7.377   0.406  0.3086  0.3075 -0.0848
    5MOL   C182 1710   7.410   7.383   0.333 -0.3241  0.8839 -0.4011
    5MOL   C183 1711   7.453   7.275   0.250  0.1801 -0.8108 -0.8944
    5MOL   H184 1712   7.620   6.697   0.090 -1.5462 -1.2633  0.3621
    5MOL   H185 1713   7.357   6.731   0.126  0.7690 -0.7520  1.4202
    5MOL   H186 1714   7.336   6.910   0.305 -2.8606  0.5580 -0.1368
    5MOL   H187 1715   7.260   6.940   0.143 -0.8574 -0.1320  2.0697
    5MOL   H188 1716   7.203   7.061   0.349  0.7389 -0.3661 -0.0249
    5MOL   H189 1717   7.112   7.252   0.456 -0.6140 -0.0115 -0.9162
    5MOL   H190 1718   7.270   7.468   0.459  0.1047 -0.2373  0.7954
    5MOL   H191 1719   7.477   7.467   0.329  1.3584 -0.4556 -1.0075
    5MOL   C192 1720   7.570   7.290   0.157 -0.5266  0.4538 -0.2529
    5MOL   C193 1721   7.555   7.282   0.005  0.3085  0.4882  0.2333
    5MOL   O194 1722   7.554   7.407   0.077  0.0775  0.2349  0.3708
    5MOL   C195 1723   7.422   7.232   8.109  0.3146  0.2327 -0.8169
    5MOL   O196 1724   7.426   7.239   7.968  0.2594 -0.2000 -0.2743
    5MOL   C197 1725   7.397   7.368   7.912 -0.3902  0.1985  0.8195
    5MOL   C198 1726   7.392   7.491   7.984 -0.0550 -0.2375 -0.0059
    5MOL   C199 1727   7.370   7.614   7.918 -0.0055 -0.1542  0.6512
    5MOL   C200 1728   7.332   7.617   7.781 -0.1870  0.1563 -0.4426
    5MOL   C201 1729   7.345   7.496   7.709  0.3504  0.0381 -0.8197
    5MOL   C202 1730   7.370   7.371   7.774  0.2923 -0.2687 -0.1459
    5MOL   H203 1731   7.667   7.276   0.204 -0.8165 -0.4263  0.0969
    5MOL   H204 1732   7.644   7.258   8.118  1.9351  1.4130  2.3164
    5MOL   H205 1733   7.331   7.275   8.153  1.1454  1.0382  0.1255
    5MOL   H206 1734   7.414   7.126   8.136  0.7801  0.7950  1.7287
    5MOL   H207 1735   7.415   7.495   8.089  3.1657  0.0808 -0.6698
    5MOL   H208 1736   7.373   7.706   7.975  0.8502  0.5795 -0.5618
    5MOL   H209 1737   7.326   7.715   7.738 -2.2779  0.9451  1.5791
    5MOL   H210 1738   7.334   7.500   7.602  1.4873 -1.0075 -0.9873
    5MOL   C211 1739   7.371   7.246   7.696  0.0114 -0.0303  0.1572
    5MOL   C212 1740   7.247   7.167   7.664  0.2293 -0.0980 -0.5273
    5MOL   O213 1741   7.309   7.257   7.566  0.2010  0.3738 -0.1660
    5MOL   C214 1742   7.103   7.206   7.709 -0.0604 -0.6467  0.1533
    5MOL   O215 1743   7.009   7.092   7.689 -0.2462 -0.2986 -0.2968
    5MOL   C216 1744   7.015   6.982   7.771 -0.8174  0.2680  0.2630
    5MOL   C217 1745   7.115   6.973   7.874 -0.1053  0.8626 -0.8233
    5MOL   C218 1746   7.112   6.859   7.958 -0.3420 -0.7688  0.1256
    5MOL   C219 1747   7.029   6.752   7.935 -0.6842 -0.4842  0.2074
    5MOL   C220 1748   6.934   6.757   7.833  0.9383  0.2106 -0.1996
    5MOL   C221 1749   6.929   6.872   7.755  0.2554  0.3781  0.3142
    5MOL   H222 1750   7.469   7.200   7.689  0.4595  0.9091  0.0840
    5MOL   H223 1751   7.258   7.064   7.629 -0.4811 -0.4523  0.2889
    5MOL   H224 1752   7.062   7.283   7.644 -0.6302 -2.2352 -1.3830
    5MOL   H225 1753   7.080   7.230   7.813 -1.2205 -2.6125  0.3779
    5MOL   H226 1754   7.177   7.056   7.906  1.0463 -0.9679  1.9029
    5MOL   H227 1755   7.177   6.845   8.043 -0.6810  1.8608  0.8468
    5MOL   H228 1756   7.030   6.669   8.005  0.7187 -0.3690  0.3232
    5MOL   H229 1757   6.862   6.678   7.819  2.0334 -0.7116 -0.6929
    5MOL   C230 1758   6.838   6.881   7.632 -1.0983 -0.2725  0.3413
    5MOL   C231 1759   6.867   6.793   7.508 -0.2002 -0.5159 -0.1183
    5MOL   O232 1760   6.767   6.759   7.603  0.1394  0.0369 -0.2202
    5MOL   C233 1761   6.991   6.706   7.502 -0.5702  0.2112 -0.1703
    5MOL   O234 1762   6.976   6.591   7.417 -0.7129 -1.0136  0.1629
    5MOL   C235 1763   6.992   6.604   7.283 -0.1480  0.1235 -0.5268
    5MOL   C236 1764   7.043   6.717   7.219 -0.4266 -0.3414 -0.1094
    5MOL   C237 1765   7.051   6.726   7.078  0.0385 -0.1758 -0.2562
    5MOL   C238 1766   7.000   6.627   6.996 -0.0416 -0.1978  0.3821
    5MOL   C239 1767   6.949   6.512   7.059  0.8959  0.2672 -0.2431
    5MOL   C240 1768   6.946   6.495   7.202 -0.3896 -0.4196  0.2842
    5MOL   H241 1769   6.788   6.976   7.613 -0.7908 -0.6005 -2.3749
    5MOL   H242 1770   6.818   6.823   7.416 -2.3476  1.0857  1.4949
    5MOL   H243 1771   7.019   6.667   7.600  1.1342 -1.0775 -1.1300
    5MOL   H244 1772   7.078   6.766   7.475 -2.1520  1.8815 -1.6799
    5MOL   H245 1773   7.078   6.807   7.269  0.0513 -0.5109 -0.1461
    5MOL   H246 1774   7.093   6.810   7.023 -0.2480  0.3278  0.2872
    5MOL   H247 1775   7.020   6.640   6.891 -0.4365 -0.2774  0.2947
    5MOL   H248 1776   6.912   6.430   6.999  0.8601 -2.3769  3.2653
    5MOL   C249 1777   6.901   6.362   7.264  0.8857  0.5171  0.7511
    5MOL   C250 1778   6.772   6.338   7.347  0.4932 -0.1354  0.3147
    5MOL   O251 1779   6.771   6.319   7.204  0.6967 -0.1081  0.1165
    5MOL   C252 1780   6.687   6.454   7.395  0.1067  0.8253 -0.0509
    5MOL   O253 1781   6.555   6.397   7.409  0.3949  0.0352  0.1187
    5MOL   C254 1782   6.472   6.456   7.508 -0.0071  1.0783  0.1363
    5MOL   C255 1783   6.486   6.591   7.540 -1.0020  0.3107  0.4309
    5MOL   C256 1784   6.409   6.646   7.642  0.5229 -0.2054 -0.2816
    5MOL   C257 1785   6.332   6.563   7.724 -0.0200 -0.5254 -0.0646
    5MOL   C258 1786   6.320   6.427   7.694  0.0766 -0.4768  0.5661
    5MOL   C259 1787   6.385   6.370   7.584 -0.2501 -0.0073  0.5406
    5MOL   H260 1788   6.980   6.287   7.270 -2.4771 -3.2235  0.2096
    5MOL   H261 1789   6.770   6.253   7.415 -0.7264  1.6403  2.5339
    5MOL   H262 1790   6.680   6.520   7.309 -1.2937 -0.5113 -0.9933
    5MOL   H263 1791   6.723   6.508   7.483  0.6949  0.0309  0.2035
    5MOL   H264 1792   6.552   6.661   7.491 -0.9150 -0.4652 -0.5569
    5MOL   H265 1793   6.423   6.751   7.666 -1.6617  0.2561 -0.9271
    5MOL   H266 1794   6.266   6.608   7.797  1.6545  0.2057  1.0369
    5MOL   H267 1795   6.257   6.369   7.760 -2.7348  1.6276 -0.1729
    5MOL   C268 1796   6.398   6.222   7.554  0.0046  0.1114  0.7423
    5MOL   C269 1797   6.504   6.130   7.607 -0.3651 -0.0260  0.3974
    5MOL   O270 1798   6.387   6.158   7.681 -0.6505  0.4312  0.2356
    5MOL   C271 1799   6.626   6.185   7.671  0.2282 -0.0259  0.1617
    5MOL   O272 1800   6.752   6.124   7.632 -0.3045 -0.0545  0.0159
    5MOL   C273 1801   6.771   5.994   7.665  0.2023 -0.0768 -0.1415
    5MOL   C274 1802   6.686   5.912   7.747  0.2904 -0.6469 -0.2414
    5MOL   C275 1803   6.717   5.775   7.766  0.1831  0.1745  0.1670
    5MOL   C276 1804   6.828   5.720   7.699 -0.4073  0.3779  0.3242
    5MOL   C277 1805   6.908   5.796   7.612 -0.3644 -0.4742 -0.4016
    5MOL   C278 1806   6.885   5.936   7.603  0.3371 -0.2251 -0.2833
    5MOL   H279 1807   6.335   6.183   7.474 -0.4340 -1.6935  1.9232
    5MOL   H280 1808   6.511   6.029   7.570  0.9532  0.0935  0.2936
    5MOL   H281 1809   6.624   6.170   7.779 -1.5299  1.0285  0.2880
    5MOL   H282 1810   6.638   6.288   7.640  0.2429  0.3707  1.4539
    5MOL   H283 1811   6.603   5.955   7.802  0.7623  0.3236 -0.2924
    5MOL   H284 1812   6.662   5.709   7.831  0.8307 -0.1610  0.3770
    5MOL   H285 1813   6.843   5.613   7.697 -0.9170  0.2571  2.1643
    5MOL   H286 1814   6.984   5.750   7.551 -1.0444 -1.4619 -0.5183
    5MOL   C287 1815   6.966   6.010   7.510  0.2288  0.3805  0.6620
    5MOL   C288 1816   7.052   6.125   7.548  1.0633  0.4352  0.6722
    5MOL   O289 1817   7.100   5.989   7.533  0.1264 -0.0781  0.4459
    5MOL   C290 1818   7.057   6.190   7.686 -0.8411  0.6692  0.0723
    5MOL   O291 1819   7.190   6.244   7.689 -0.0891 -0.5183  0.0172
    5MOL   C292 1820   7.230   6.323   7.796 -0.8626 -0.4563  0.8080
    5MOL   C293 1821   7.147   6.354   7.899 -0.0634 -0.2402  0.2682
    5MOL   C294 1822   7.177   6.442   8.001 -0.1107 -0.1737 -0.2113
    5MOL   C295 1823   7.305   6.500   8.000  0.1293  0.4314  0.3176
    5MOL   C296 1824   7.397   6.476   7.893 -0.0316  0.1435 -0.0977
    5MOL   C297 1825   7.364   6.379   7.792 -0.3287 -0.0586  0.6133
    5MOL   H298 1826   6.939   6.002   7.404 -0.7061  3.1073  0.6641
    5MOL   H299 1827   7.068   6.188   7.461 -0.8738 -1.2727 -0.9875
    5MOL   H300 1828   7.029   6.119   7.764 -0.0715 -0.6909 -0.8634
    5MOL   H301 1829   6.980   6.267   7.681 -1.1409  0.4443  1.1524
    5MOL   H302 1830   7.049   6.307   7.898  0.1621 -0.8961  3.3432
    5MOL   H303 1831   7.106   6.470   8.078 -0.1860 -0.4067 -0.1974
    5MOL   H304 1832   7.333   6.565   8.081 -0.7721  0.5654  0.5172
    5MOL   H305 1833   7.493   6.526   7.888 -0.4655  1.2547  2.1885
    5MOL   C306 1834   7.455   6.352   7.677  0.6719  0.9673  0.4038
    5MOL   C307 1835   7.456   6.450   7.557  0.3248  0.0119  0.7331
    5MOL   O308 1836   7.551   6.450   7.666 -0.2400  0.2215  0.0130
    5MOL   C309 1837   7.374   6.569   7.550 -0.1079  0.0751  0.3501
    5MOL   O310 1838   7.450   6.678   7.518  0.4193 -0.0789  0.6321
    5MOL   C311 1839   7.484   6.767   7.619  0.6400 -0.1103  0.0641
    5MOL   C312 1840   7.394   6.821   7.718 -0.1674  0.0786  0.4396
    5MOL   C313 1841   7.442   6.899   7.821  0.1382 -0.2350 -0.1657
    5MOL   C314 1842   7.575   6.930   7.833  0.0454  0.5449  0.3592
    5MOL   C315 1843   7.662   6.890   7.737 -0.2540 -0.6109 -0.4924
    5MOL   C316 1844   7.622   6.807   7.631 -0.4173  0.1319  0.8216
    5MOL   H317 1845   7.487   6.250   7.657 -0.1255  0.6100  0.9341
    5MOL   H318 1846   7.505   6.430   7.463 -1.8126 -2.0285  0.0050
    5MOL   H319 1847   7.315   6.575   7.642  0.3113 -0.7389  0.6694
    5MOL   H320 1848   7.295   6.540   7.481 -0.4412 -0.6651  1.0439
    5MOL   H321 1849   7.289   6.810   7.699 -0.2700  1.3551  0.2326
    5MOL   H322 1850   7.376   6.936   7.897 -0.9651 -0.7403 -0.8684
    5MOL   H323 1851   7.612   6.994   7.912  2.2138  1.1916 -1.1276
    5MOL   H324 1852   7.767   6.913   7.743 -0.3784 -0.4647  1.4441
    5MOL   C325 1853   7.721   6.735   7.539 -0.9533  0.0443 -0.2521
    5MOL   C326 1854   7.757   6.772   7.392 -0.0858 -0.5198  0.1369
    5MOL   O327 1855   7.825   6.826   7.507 -0.0429 -0.4796 -0.0083
    5MOL   C328 1856   7.708   6.891   7.311 -0.5534  0.8414 -0.6145
    5MOL   O329 1857   7.619   6.832   7.207 -0.0622  0.3711 -0.1016
    5MOL   C330 1858   7.665   6.776   7.087  0.7873  0.8424  0.4079
    5MOL   C331 1859   7.803   6.783   7.053  0.5042 -0.2830 -0.5918
    5MOL   C332 1860   7.837   6.759   6.919  0.0500 -0.0746 -0.4187
    5MOL   C333 1861   7.740   6.709   6.825  0.1592 -0.7766  0.0451
    5MOL   C334 1862   7.606   6.701   6.866  0.1102  0.6085  0.1347
    5MOL   C335 1863   7.569   6.745   6.995 -0.5388  0.0145 -0.3291
    5MOL   H336 1864   7.752   6.641   7.584 -2.0598  0.4117  1.3166
    5MOL   H337 1865   7.801   6.687   7.340  0.6291  0.3838 -0.7533
    5MOL   H338 1866   7.788   6.948   7.263 -0.7216  1.3825 -0.2669
    5MOL   H339 1867   7.658   6.967   7.372 -0.6686  1.4753 -1.4909
    5MOL   H340 1868   7.873   6.833   7.118 -0.7520 -0.1719  0.7239
    5MOL   H341 1869   7.940   6.753   6.887 -0.3808 -0.9615 -1.6355
    5MOL   H342 1870   7.769   6.685   6.724 -1.9663  0.8983 -0.9908
    5MOL   H343 1871   7.530   6.661   6.800  3.3106 -2.9156 -1.6357
    5MOL   C344 1872   7.425   6.753   7.039 -0.2590 -0.3650  0.6287
    5MOL   C345 1873   7.351   6.881   7.016  0.4895 -0.5359  0.4109
    5MOL   O346 1874   7.324   6.768   6.933  0.2443  0.0263  0.1165
    5MOL   C347 1875   7.405   6.995   6.933  0.1570  0.0735 -0.0772
    5MOL   O348 1876   7.320   7.102   6.920  0.3997  0.1157 -0.3207
    5MOL   C349 1877   7.307   7.196   7.028 -0.3180  0.8816  0.1466
    5MOL   C350 1878   7.377   7.191   7.152 -0.6368  0.3364 -0.3890
    5MOL   C351 1879   7.360   7.296   7.249  0.4422 -0.0858 -0.6246
    5MOL   C352 1880   7.262   7.398   7.229  0.2223  0.4587 -0.4180
    5MOL   C353 1881   7.196   7.401   7.110  0.6441 -0.0302  0.2437
    5MOL   C354 1882   7.211   7.303   7.011 -0.1873 -0.8693  0.7232
    5MOL   H355 1883   7.405   6.680   7.117 -2.1416 -0.5238  0.0075
    5MOL   H356 1884   7.261   6.913   7.069 -0.1301 -0.2348 -0.7766
    5MOL   H357 1885   7.433   6.961   6.833 -0.7353  1.4234 -0.7890
    5MOL   H358 1886   7.503   7.024   6.971  0.0212 -1.2857  1.3898
    5MOL   H359 1887   7.454   7.118   7.168  1.6657  2.5089 -1.2024
    5MOL   H360 1888   7.412   7.297   7.344 -1.5727  0.1136  0.5078
    5MOL   H361 1889   7.240   7.478   7.299 -1.4463 -0.0901 -0.2767
    5MOL   H362 1890   7.133   7.488   7.096 -0.8994 -0.8946  1.6980
    5MOL   C363 1891   7.131   7.310   6.884 -1.1157  0.8756 -0.2264
    5MOL   C364 1892   7.011   7.227   6.850  0.5054 -0.0912 -0.1193
    5MOL   O365 1893   6.996   7.362   6.903 -0.1820  0.2548  0.2494
    5MOL   C366 1894   6.943   7.106   6.930  0.3076 -0.1347  0.6385
    5MOL   O367 1895   6.812   7.084   6.880 -0.1379 -0.2491 -0.7149
    5MOL   C368 1896   6.724   6.998   6.942 -0.0674  0.2024 -0.5019
    5MOL   C369 1897   6.759   6.914   7.053 -0.1090  0.2333  0.0154
    5MOL   C370 1898   6.658   6.835   7.110  0.5687 -0.0671 -0.4357
    5MOL   C371 1899   6.524   6.840   7.062  0.0678 -0.1551 -0.7015
    5MOL   C372 1900   6.491   6.933   6.960 -0.1957 -0.1574  0.4478
    5MOL   C373 1901   6.589   7.011   6.903 -0.4962 -0.3641 -0.6274
    5MOL   H374 1902   7.181   7.360   6.801  1.0123  0.7097  0.9178
    5MOL   H375 1903   7.005   7.220   6.741  2.9029 -1.8617 -0.1764
    5MOL   H376 1904   6.934   7.134   7.035  2.8101  2.1062  0.3002
    5MOL   H377 1905   7.007   7.019   6.915  0.4539  0.1001 -0.0899
    5MOL   H378 1906   6.862   6.908   7.085 -0.4926 -2.2147  0.9197
    5MOL   H379 1907   6.694   6.767   7.187  1.1443  2.4726  1.6255
    5MOL   H380 1908   6.447   6.778   7.105 -0.0553  1.1372  0.9851
    5MOL   H381 1909   6.387   6.937   6.931  0.8566 -0.5606 -3.5603
    5MOL   H382 1910   6.562   7.076   6.821 -1.1961 -2.0932 -1.7817
    6MOL     C1 1911   4.482   2.465   3.520  0.6382  0.1491 -0.0471
    6MOL     C2 1912   4.336   2.420   3.516 -0.5938 -0.3955  0.0997
    6MOL     O3 1913   4.395   2.494   3.408  0.3062  0.1250  0.6186
    6MOL     C4 1914   4.234   2.478   3.608 -0.3087  0.0953  0.1425
    6MOL     O5 1915   4.109   2.442   3.554  0.2038  0.0348 -0.1231
    6MOL     C6 1916   3.994   2.475   3.630  0.4514 -0.1340  0.0227
    6MOL     C7 1917   3.997   2.539   3.759  0.2787  0.5355 -0.3478
    6MOL     C8 1918   3.873   2.572   3.820 -0.4737 -0.0095 -0.0783
    6MOL     C9 1919   3.750   2.553   3.752  0.6311  0.2764  0.0629
    6MOL    C10 1920   3.750   2.495   3.624  0.1509  0.0754 -0.2348
    6MOL    C11 1921   3.870   2.445   3.572  0.6058  0.1696 -0.0387
    6MOL    H12 1922   4.553   2.393   3.481  0.4682 -1.3589  2.3417
    6MOL    H13 1923   4.331   2.315   3.488 -0.4084 -1.4479  3.7252
    6MOL    H14 1924   4.242   2.586   3.610  0.4455  0.0894 -1.4878
    6MOL    H15 1925   4.250   2.438   3.708 -1.3858  2.8590  1.4798
    6MOL    H16 1926   4.085   2.576   3.809 -0.5580  1.1575  0.6960
    6MOL    H17 1927   3.881   2.623   3.915  1.3741 -0.2378 -0.0920
    6MOL    H18 1928   3.655   2.568   3.800 -0.2586 -0.4300 -1.4083
    6MOL    H19 1929   3.657   2.488   3.570  0.9395  2.0526 -1.9130
    6MOL    H20 1930   4.522   2.550   3.573  0.0272  0.3701  0.0687
    6MOL    C21 1931   3.872   2.382   3.431  0.2300  0.1840  0.1423
    6MOL    C22 1932   3.856   2.232   3.404  1.1212  0.3109 -0.2135
    6MOL    O23 1933   3.737   2.317   3.397 -0.6099  0.2541 -0.6453
    6MOL    C24 1934   3.867   2.121   3.507  0.8688 -0.2473  0.3824
    6MOL    O25 1935   3.986   2.121   3.575  0.0669  0.4484 -0.0390
    6MOL    C26 1936   4.094   2.059   3.521 -0.0826  1.0354  0.8425
    6MOL    C27 1937   4.094   1.995   3.390 -0.3941  0.3453 -0.5449
    6MOL    C28 1938   4.215   1.943   3.340  0.3512  0.2930 -0.0148
    6MOL    C29 1939   4.330   1.935   3.419  0.3450 -0.3759 -0.6041
    6MOL    C30 1940   4.332   1.995   3.549 -0.3392 -0.6060  0.2978
    6MOL    C31 1941   4.215   2.057   3.599 -0.0549 -0.4923 -0.6396
    6MOL    H32 1942   3.911   2.444   3.350 -1.0431  0.0782 -0.5594
    6MOL    H33 1943   3.883   2.204   3.302 -1.4683  2.3524 -1.5219
    6MOL    H34 1944   3.843   2.023   3.467 -0.5644  0.6540 -1.0262
    6MOL    H35 1945   3.792   2.153   3.580 -0.0535 -0.6065 -0.3971
    6MOL    H36 1946   4.013   1.992   3.318  1.0410  0.5993 -2.2291
    6MOL    H37 1947   4.213   1.906   3.239 -1.1714  0.0097  0.1028
    6MOL    H38 1948   4.415   1.888   3.372  1.9993  1.7867  0.1260
    6MOL    H39 1949   4.421   1.980   3.608 -0.4981 -0.9903  0.4368
    6MOL    C40 1950   4.223   2.131   3.732 -0.7565 -0.3319 -0.8884
    6MOL    C41 1951   4.242   2.044   3.857  0.2670 -0.4491 -0.5325
    6MOL    O42 1952   4.345   2.116   3.804  0.9793 -0.8122  0.7933
    6MOL    C43 1953   4.249   1.889   3.857 -0.0537  0.3498  0.5100
    6MOL    O44 1954   4.267   1.853   3.999 -0.2429 -0.2102  0.7071
    6MOL    C45 1955   4.293   1.715   4.014 -0.1506 -0.6210 -0.3389
    6MOL    C46 1956   4.358   1.627   3.925  0.3196  0.0713  0.1054
    6MOL    C47 1957   4.347   1.486   3.941  0.1500  0.0418  1.0365
    6MOL    C48 1958   4.301   1.431   4.058 -0.3542 -0.0916 -0.2439
    6MOL    C49 1959   4.251   1.518   4.157  0.1301 -0.4370 -0.3345
    6MOL    C50 1960   4.252   1.660   4.135  0.5693 -0.4112 -0.1197
    6MOL    H51 1961   4.152   2.212   3.748 -1.6693 -1.3382  0.3066
    6MOL    H52 1962   4.174   2.081   3.934  1.1325  0.3551 -0.1597
    6MOL    H53 1963   4.337   1.858   3.800 -1.2754 -0.7864 -0.8140
    6MOL    H54 1964   4.161   1.832   3.824  1.5854 -0.7314 -2.1179
    6MOL    H55 1965   4.418   1.667   3.845 -0.2773  0.9474  0.0908
    6MOL    H56 1966   4.388   1.418   3.867 -0.8827 -0.3572  0.8261
    6MOL    H57 1967   4.298   1.325   4.080  0.4474 -0.0625  0.0056
    6MOL    H58 1968   4.216   1.485   4.253  1.4376  0.7820  0.5954
    6MOL    C59 1969   4.209   1.763   4.239  0.4540 -0.8363 -0.6577
    6MOL    C60 1970   4.073   1.825   4.244  0.0724 -0.3880  0.7153
    6MOL    O61 1971   4.107   1.710   4.329 -0.1784  0.3042 -0.3507
    6MOL    C62 1972   3.967   1.799   4.139  0.4086  0.7925  0.1351
    6MOL    O63 1973   3.917   1.920   4.099 -0.3978 -0.4403 -0.1412
    6MOL    C64 1974   3.836   1.998   4.177 -0.4404 -0.2852 -1.0583
    6MOL    C65 1975   3.794   1.953   4.307 -0.3741  0.0482  0.1807
    6MOL    C66 1976   3.716   2.039   4.381 -0.7216 -0.1042 -0.5126
    6MOL    C67 1977   3.684   2.173   4.347  0.1311 -0.4956 -0.2059
    6MOL    C68 1978   3.736   2.221   4.229  0.5436  0.1416  0.6695
    6MOL    C69 1979   3.797   2.132   4.134  0.0274  0.4476  0.4103
    6MOL    H70 1980   4.297   1.804   4.288  1.0546  0.4350 -2.7571
    6MOL    H71 1981   4.066   1.915   4.305 -1.1158  1.6246 -2.2562
    6MOL    H72 1982   3.892   1.739   4.192 -0.1341  1.0162 -0.3667
    6MOL    H73 1983   4.000   1.742   4.052  1.5653  1.5361  0.0866
    6MOL    H74 1984   3.822   1.857   4.348 -0.1136 -0.0181 -0.1577
    6MOL    H75 1985   3.687   2.005   4.480  0.0690 -1.0197 -0.5792
    6MOL    H76 1986   3.636   2.234   4.422  0.4628  0.3781 -0.6948
    6MOL    H77 1987   3.731   2.328   4.213 -1.4075  0.0292  0.4102
    6MOL    C78 1988   3.843   2.186   4.000  0.1170 -0.0834 -0.1111
    6MOL    C79 1989   3.747   2.201   3.885 -0.1956  0.0349 -0.7343
    6MOL    O80 1990   3.789   2.315   3.959 -0.5659 -0.3595  0.0255
    6MOL    C81 1991   3.597   2.176   3.892 -0.4061  0.1207  0.1227
    6MOL    O82 1992   3.535   2.228   3.775  0.5836  0.9756 -0.3069
    6MOL    C83 1993   3.398   2.228   3.770  0.1663  0.1481  0.1878
    6MOL    C84 1994   3.316   2.233   3.883 -0.9935 -0.4921  0.0754
    6MOL    C85 1995   3.182   2.252   3.867  0.5804 -0.6259  0.0653
    6MOL    C86 1996   3.129   2.259   3.741 -0.0427 -0.2952  0.2713
    6MOL    C87 1997   3.202   2.233   3.624  0.2739  0.8891 -0.4536
    6MOL    C88 1998   3.344   2.221   3.638  0.0174  0.4142 -0.4362
    6MOL    H89 1999   3.947   2.155   3.989  0.2147 -0.7052  2.2051
    6MOL    H90 2000   3.790   2.202   3.785 -2.4803 -1.0190 -1.7782
    6MOL    H91 2001   3.561   2.247   3.967 -2.0133  0.3652 -0.8549
    6MOL    H92 2002   3.575   2.079   3.938  2.5356 -2.0283 -2.7868
    6MOL    H93 2003   3.361   2.218   3.980 -0.2266  1.9635  0.1234
    6MOL    H94 2004   3.128   2.272   3.958  2.0891 -0.6906  0.9922
    6MOL    H95 2005   3.022   2.273   3.737 -0.1616 -1.3169 -0.2760
    6MOL    H96 2006   3.164   2.237   3.523 -3.2504 -1.5090  0.6779
    6MOL    C97 2007   3.441   2.212   3.524 -0.0195 -0.0924 -0.3581
    6MOL    C98 2008   3.476   2.089   3.452  0.5606  0.1878  0.2582
    6MOL    O99 2009   3.380   2.181   3.395  0.0075  0.0638  0.6563
    6MOL   C100 2010   3.417   1.951   3.475 -0.1742  0.6718 -0.4216
    6MOL   O101 2011   3.517   1.857   3.447 -0.0578  0.4009  0.7221
    6MOL   C102 2012   3.606   1.815   3.546  1.2440 -0.1796  0.7038
    6MOL   C103 2013   3.635   1.884   3.664  0.1314 -0.1710  0.2558
    6MOL   C104 2014   3.721   1.828   3.758  0.1497 -0.3916 -0.7233
    6MOL   C105 2015   3.782   1.701   3.743  0.4377  0.0389  0.5216
    6MOL   C106 2016   3.766   1.636   3.615 -0.6972  0.9858 -1.1520
    6MOL   C107 2017   3.680   1.695   3.517  0.3279  0.2677  0.1368
    6MOL   H108 2018   3.497   2.305   3.519 -1.7406  0.8658 -2.5759
    6MOL   H109 2019   3.571   2.086   3.399  2.0278 -0.1871  2.8407
    6MOL   H110 2020   3.346   1.929   3.395 -0.7928 -1.0726  0.5899
    6MOL   H111 2021   3.369   1.937   3.572  1.4592 -0.8712  0.1928
    6MOL   H112 2022   3.573   1.969   3.689 -1.0839 -0.0338 -2.9919
    6MOL   H113 2023   3.743   1.885   3.847 -0.3735 -2.4216  0.7472
    6MOL   H114 2024   3.848   1.648   3.809  0.7365 -2.4344 -1.7062
    6MOL   H115 2025   3.816   1.545   3.589  0.8822  1.5445 -0.1033
    6MOL   C116 2026   3.660   1.617   3.385  0.9347 -0.3632  0.3161
    6MOL   C117 2027   3.707   1.675   3.253 -0.0145  0.3156 -0.0482
    6MOL   O118 2028   3.780   1.570   3.316 -0.0073  0.2345  0.6150
    6MOL   C119 2029   3.776   1.815   3.247 -0.4613 -0.8545 -0.0164
    6MOL   O120 2030   3.865   1.823   3.135  0.2984 -0.5656 -0.2887
    6MOL   C121 2031   3.981   1.750   3.130 -0.2340  0.4586  1.0920
    6MOL   C122 2032   4.044   1.687   3.237  0.7019 -0.4637 -0.0232
    6MOL   C123 2033   4.172   1.631   3.226 -0.5253  0.3191 -0.0930
    6MOL   C124 2034   4.230   1.620   3.105 -0.8524  0.0690 -0.0583
    6MOL   C125 2035   4.182   1.688   2.993  0.1593 -0.8021 -0.2843
    6MOL   C126 2036   4.050   1.751   3.006  0.6029 -0.1535 -0.2420
    6MOL   H127 2037   3.564   1.567   3.377  1.8543 -1.8168 -2.1220
    6MOL   H128 2038   3.655   1.640   3.164  0.4645  0.3127 -0.3284
    6MOL   H129 2039   3.835   1.844   3.334 -1.0219  1.6130 -0.4189
    6MOL   H130 2040   3.691   1.882   3.232  1.3252  1.4856 -0.0759
    6MOL   H131 2041   4.001   1.682   3.336  0.9986 -2.2562  0.0332
    6MOL   H132 2042   4.217   1.595   3.317 -1.4909  1.3344  0.7924
    6MOL   H133 2043   4.321   1.563   3.092 -0.5457  0.3813  0.6695
    6MOL   H134 2044   4.227   1.688   2.895 -0.5260 -2.7640 -0.6087
    6MOL   C135 2045   3.991   1.821   2.887 -0.1661  0.1607 -0.2401
    6MOL   C136 2046   4.025   1.964   2.852  0.6265 -0.3228 -0.4053
    6MOL   O137 2047   4.085   1.855   2.786 -0.0482  0.2858  0.5688
    6MOL   C138 2048   4.114   2.051   2.934 -0.3120 -0.2046  0.0912
    6MOL   O139 2049   4.211   2.097   2.840 -0.2438  0.4247 -0.1941
    6MOL   C140 2050   4.220   2.230   2.808 -0.0836 -0.1779  0.2733
    6MOL   C141 2051   4.181   2.338   2.896  0.6969  0.5526  0.4366
    6MOL   C142 2052   4.180   2.469   2.851  0.0793 -0.3777 -0.2238
    6MOL   C143 2053   4.232   2.501   2.727  0.1890  0.3415  0.2796
    6MOL   C144 2054   4.286   2.404   2.639  0.0144 -0.1245 -1.1238
    6MOL   C145 2055   4.280   2.267   2.683  0.0339 -0.1176  0.2609
    6MOL   H146 2056   3.905   1.768   2.846 -0.4376 -1.1780  1.9913
    6MOL   H147 2057   3.963   2.026   2.787  2.8133  0.9954 -1.3208
    6MOL   H148 2058   4.174   1.999   3.008 -0.1444 -1.4953 -0.9343
    6MOL   H149 2059   4.058   2.128   2.987 -1.4042 -0.7463 -0.2496
    6MOL   H150 2060   4.149   2.328   2.998 -1.4141 -0.9147 -0.3400
    6MOL   H151 2061   4.141   2.548   2.913 -0.3491 -0.0517 -0.9043
    6MOL   H152 2062   4.238   2.605   2.699 -1.5270  0.4926  0.4206
    6MOL   H153 2063   4.325   2.440   2.545 -0.0853  3.3033  0.0614
    6MOL   C154 2064   4.332   2.154   2.602 -0.9152 -1.0039  0.3728
    6MOL   C155 2065   4.262   2.056   2.508  0.2252 -0.0108  0.6193
    6MOL   O156 2066   4.344   2.164   2.458 -0.2792  0.0188 -0.2596
    6MOL   C157 2067   4.118   2.077   2.471 -0.0711  0.0091  0.0370
    6MOL   O158 2068   4.088   1.989   2.363  0.7035 -0.6541  0.7439
    6MOL   C159 2069   4.142   2.015   2.235 -0.2836 -0.4080  0.6612
    6MOL   C160 2070   4.185   2.146   2.195  0.5210 -0.1670  0.6372
    6MOL   C161 2071   4.227   2.168   2.065  0.2972 -0.6489 -0.1626
    6MOL   C162 2072   4.221   2.065   1.971  0.4814  0.2863 -0.3867
    6MOL   C163 2073   4.180   1.935   2.012  0.7256  0.0772 -0.5882
    6MOL   C164 2074   4.129   1.915   2.139 -0.0102  0.0317  0.1547
    6MOL   H165 2075   4.423   2.120   2.652 -0.7878  2.5934  2.8308
    6MOL   H166 2076   4.296   1.957   2.480  2.1149  0.6336  0.5770
    6MOL   H167 2077   4.105   2.182   2.442  0.7440  0.6978  2.1057
    6MOL   H168 2078   4.056   2.071   2.561 -1.3157 -1.3784 -0.8914
    6MOL   H169 2079   4.185   2.226   2.267  0.1087  0.2893  0.1268
    6MOL   H170 2080   4.270   2.266   2.047 -2.7795  0.6709 -0.5527
    6MOL   H171 2081   4.240   2.090   1.868  1.3480 -2.9474 -1.0753
    6MOL   H172 2082   4.166   1.856   1.940 -0.0866  0.3428 -0.7327
    6MOL   C173 2083   4.061   1.788   2.180  0.0426 -0.5210  0.3000
    6MOL   C174 2084   3.903   1.765   2.169 -0.2635  0.1247  0.1610
    6MOL   O175 2085   3.997   1.713   2.075 -1.1068 -0.5848 -0.7687
    6MOL   C176 2086   3.819   1.882   2.125  0.5216 -0.0076 -0.7740
    6MOL   O177 2087   3.706   1.843   2.053  0.1720  0.2325 -0.4631
    6MOL   C178 2088   3.651   1.942   1.968 -0.2097  0.0609 -0.3226
    6MOL   C179 2089   3.693   2.081   1.961  0.0288  0.6072 -0.3899
    6MOL   C180 2090   3.628   2.162   1.867 -0.1280 -0.2749 -0.6944
    6MOL   C181 2091   3.528   2.110   1.774  0.3313  0.2184  0.0041
    6MOL   C182 2092   3.484   1.980   1.795 -0.0436  0.1507  0.6380
    6MOL   C183 2093   3.543   1.894   1.886  0.3374  0.7081  0.4430
    6MOL   H184 2094   4.104   1.725   2.257 -0.9825 -0.8187  0.6316
    6MOL   H185 2095   3.868   1.701   2.250  0.4884  0.3008  0.6311
    6MOL   H186 2096   3.886   1.950   2.072  0.4936  1.1834  0.6903
    6MOL   H187 2097   3.797   1.937   2.216 -0.9836  0.0446 -1.1654
    6MOL   H188 2098   3.761   2.122   2.034 -0.6530  0.3558  0.3889
    6MOL   H189 2099   3.655   2.267   1.868 -0.2912 -0.2301 -1.0075
    6MOL   H190 2100   3.477   2.177   1.707 -0.6655 -0.6532 -0.1008
    6MOL   H191 2101   3.405   1.945   1.729  1.3289 -1.5569 -0.1579
    6MOL   C192 2102   3.497   1.755   1.888  1.1997 -0.0565  0.1280
    6MOL   C193 2103   3.400   1.715   1.988  0.7184 -0.1261 -0.4794
    6MOL   O194 2104   3.360   1.751   1.852  0.0419  0.3248 -0.1636
    6MOL   C195 2105   3.342   1.808   2.099  0.0187 -0.3274 -0.3462
    6MOL   O196 2106   3.265   1.740   2.196  0.2744 -0.0530  0.2691
    6MOL   C197 2107   3.123   1.763   2.187 -0.4915  0.3814  0.4288
    6MOL   C198 2108   3.062   1.771   2.061 -0.0517  0.0275  0.3893
    6MOL   C199 2109   2.921   1.778   2.060  0.1252 -0.1268  1.2471
    6MOL   C200 2110   2.846   1.772   2.178 -0.0221  0.1800 -0.3707
    6MOL   C201 2111   2.911   1.772   2.305  0.4764 -0.0139  0.5006
    6MOL   C202 2112   3.052   1.768   2.305  0.4611 -0.0493  0.1941
    6MOL   H203 2113   3.561   1.689   1.830  1.6081 -0.9841  1.6022
    6MOL   H204 2114   3.385   1.609   2.008 -0.1892  0.1140  0.1278
    6MOL   H205 2115   3.288   1.889   2.049  0.0519  0.5711  1.0241
    6MOL   H206 2116   3.424   1.862   2.147  0.4983 -0.2023 -1.2917
    6MOL   H207 2117   3.121   1.774   1.971 -0.1230 -1.5516  0.2762
    6MOL   H208 2118   2.881   1.780   1.960  1.4120  1.9668  0.7508
    6MOL   H209 2119   2.739   1.775   2.181  0.0019  0.5060  0.6225
    6MOL   H210 2120   2.850   1.764   2.394 -1.9373  3.7100 -0.6770
    6MOL   C211 2121   3.131   1.773   2.432  0.0157 -0.6036  0.3252
    6MOL   C212 2122   3.119   1.893   2.531 -0.3949 -0.5725  0.7546
    6MOL   O213 2123   3.043   1.779   2.545  0.8194 -0.3182 -0.3764
    6MOL   C214 2124   3.035   2.021   2.496 -0.3023  0.0159 -0.0597
    6MOL   O215 2125   3.109   2.147   2.510  0.4434 -0.5914 -0.0458
    6MOL   C216 2126   3.200   2.179   2.412 -0.0290  0.1853 -0.2229
    6MOL   C217 2127   3.227   2.107   2.295  0.2371  0.4088  0.6920
    6MOL   C218 2128   3.335   2.151   2.215 -0.0310 -0.3286 -0.0267
    6MOL   C219 2129   3.406   2.270   2.247  0.6495  0.3452  0.5172
    6MOL   C220 2130   3.378   2.341   2.362  0.4043  0.7190 -0.2032
    6MOL   C221 2131   3.271   2.298   2.447  0.7025  0.3381 -0.2359
    6MOL   H222 2132   3.218   1.708   2.440 -1.1607 -2.2621 -0.1862
    6MOL   H223 2133   3.181   1.896   2.621 -0.9136 -2.5380  1.1965
    6MOL   H224 2134   2.957   2.034   2.572  0.2166 -2.4743  0.9400
    6MOL   H225 2135   2.983   2.020   2.401 -0.4511  2.6479 -0.0386
    6MOL   H226 2136   3.170   2.022   2.259  1.6898  0.8666 -2.8942
    6MOL   H227 2137   3.352   2.103   2.119  0.6896 -0.6304  0.2415
    6MOL   H228 2138   3.489   2.297   2.183  0.1100  0.2615 -0.2305
    6MOL   H229 2139   3.419   2.437   2.390  1.6410 -0.2717  1.4489
    6MOL   C230 2140   3.232   2.378   2.564  0.0437 -0.3031 -0.0387
    6MOL   C231 2141   3.271   2.332   2.702  0.1269 -0.2533  0.2078
    6MOL   O232 2142   3.346   2.434   2.629 -0.1286 -0.6101  0.0615
    6MOL   C233 2143   3.346   2.202   2.727 -0.1785 -0.1620 -0.6161
    6MOL   O234 2144   3.433   2.215   2.842  0.6522 -0.1374 -0.1568
    6MOL   C235 2145   3.567   2.241   2.821  0.3360  0.0612  0.8501
    6MOL   C236 2146   3.623   2.278   2.697  0.2789  0.2976  0.1853
    6MOL   C237 2147   3.758   2.303   2.675 -0.1263  0.0849  0.3717
    6MOL   C238 2148   3.843   2.296   2.783 -0.3331  0.6805 -0.4867
    6MOL   C239 2149   3.794   2.263   2.911 -0.6437 -0.2590 -0.8628
    6MOL   C240 2150   3.659   2.230   2.930  0.0252  1.1961 -0.1407
    6MOL   H241 2151   3.153   2.448   2.538 -0.2769 -1.2067 -1.5865
    6MOL   H242 2152   3.217   2.372   2.787  0.8317 -3.6336  2.3377
    6MOL   H243 2153   3.394   2.171   2.634 -1.0830  2.0643 -1.8888
    6MOL   H244 2154   3.284   2.116   2.752 -0.2883  0.2332  0.4878
    6MOL   H245 2155   3.560   2.296   2.611 -1.9689 -3.5065  0.8908
    6MOL   H246 2156   3.796   2.316   2.575 -0.5175 -2.0526 -0.0859
    6MOL   H247 2157   3.950   2.314   2.775 -0.7423  2.9123 -1.4025
    6MOL   H248 2158   3.855   2.257   3.000 -1.8973 -0.2396 -0.0018
    6MOL   C249 2159   3.604   2.201   3.067 -0.0807  0.4207  0.0054
    6MOL   C250 2160   3.538   2.068   3.091  0.1980 -0.8655  0.6438
    6MOL   O251 2161   3.670   2.096   3.137  0.8074  0.0302 -0.1011
    6MOL   C252 2162   3.532   1.946   3.001 -0.1986  0.0052  0.7836
    6MOL   O253 2163   3.454   1.846   3.068  0.2571  0.2554  0.6309
    6MOL   C254 2164   3.401   1.740   2.993  0.7348 -0.9562  0.2581
    6MOL   C255 2165   3.425   1.732   2.852  0.9910 -0.5292 -0.0027
    6MOL   C256 2166   3.355   1.631   2.781 -0.7431  0.0819  0.1794
    6MOL   C257 2167   3.274   1.535   2.842 -0.0444 -0.0495 -0.1082
    6MOL   C258 2168   3.259   1.541   2.982  0.5376  0.1349  0.7419
    6MOL   C259 2169   3.318   1.646   3.060  0.8684 -0.0956 -0.3657
    6MOL   H260 2170   3.593   2.289   3.130 -0.9245  1.5795 -1.6950
    6MOL   H261 2171   3.471   2.056   3.176 -0.4397  0.7932  0.3914
    6MOL   H262 2172   3.631   1.909   2.975 -0.8938  0.0460 -2.1791
    6MOL   H263 2173   3.486   1.979   2.908  0.5693 -1.4376 -0.1339
    6MOL   H264 2174   3.484   1.804   2.797  1.2102 -0.8529 -0.2005
    6MOL   H265 2175   3.359   1.617   2.674 -0.2852 -0.1284  0.2227
    6MOL   H266 2176   3.237   1.455   2.779  0.1855  0.9988 -1.5983
    6MOL   H267 2177   3.198   1.463   3.025 -1.5901  0.5991 -1.3453
    6MOL   C268 2178   3.312   1.650   3.208  0.5974 -0.0601  0.0365
    6MOL   C269 2179   3.192   1.645   3.293  0.1721  0.3642  0.1745
    6MOL   O270 2180   3.262   1.528   3.267  0.2712 -0.4101  0.0447
    6MOL   C271 2181   3.047   1.660   3.246  0.0333 -0.8365 -0.2279
    6MOL   O272 2182   3.040   1.742   3.122  0.2459  0.0666 -0.3709
    6MOL   C273 2183   3.067   1.871   3.118 -0.5024 -0.5519 -0.3409
    6MOL   C274 2184   3.115   1.936   3.231 -0.3097  0.0278 -0.2860
    6MOL   C275 2185   3.155   2.074   3.225  0.4197  0.8239 -0.2178
    6MOL   C276 2186   3.153   2.145   3.105  0.7127  1.0270  0.4627
    6MOL   C277 2187   3.099   2.078   2.988  0.2516 -0.5165 -0.0780
    6MOL   C278 2188   3.057   1.941   2.997 -0.4118 -0.5678  0.6940
    6MOL   H279 2189   3.400   1.686   3.260 -0.7302  0.4031  1.9966
    6MOL   H280 2190   3.201   1.682   3.394  1.6809 -2.2511  1.0470
    6MOL   H281 2191   2.978   1.693   3.323 -0.8537  0.3934 -1.5140
    6MOL   H282 2192   3.010   1.559   3.231  0.2787 -0.9917  0.2083
    6MOL   H283 2193   3.119   1.900   3.333  1.6043 -1.2494 -0.7954
    6MOL   H284 2194   3.184   2.117   3.320 -0.2084  0.4792  0.1324
    6MOL   H285 2195   3.186   2.247   3.099  1.5595  0.6689 -1.1850
    6MOL   H286 2196   3.097   2.119   2.888 -1.9587 -0.3077  0.0270
    6MOL   C287 2197   3.026   1.866   2.869 -0.1250  0.0212  0.1160
    6MOL   C288 2198   2.894   1.800   2.833 -0.1234 -1.0916  0.1341
    6MOL   O289 2199   2.936   1.927   2.787 -0.2459 -0.3385 -0.1569
    6MOL   C290 2200   2.762   1.797   2.907 -0.1981 -0.2271  0.0077
    6MOL   O291 2201   2.673   1.704   2.849  0.0263  0.1818 -0.2292
    6MOL   C292 2202   2.679   1.579   2.906  0.4229 -0.2433  0.1807
    6MOL   C293 2203   2.795   1.532   2.971 -0.4244  0.0200  0.3553
    6MOL   C294 2204   2.791   1.400   3.025  0.5122 -0.5666  0.2371
    6MOL   C295 2205   2.677   1.319   3.015 -0.2881  0.6355  0.5076
    6MOL   C296 2206   2.570   1.365   2.934  0.3757  0.0953 -0.4018
    6MOL   C297 2207   2.571   1.492   2.880 -0.1909 -0.4531 -0.3362
    6MOL   H298 2208   3.115   1.825   2.823 -1.1374 -2.8307  0.6275
    6MOL   H299 2209   2.902   1.723   2.756  1.3989  0.4937 -1.3483
    6MOL   H300 2210   2.714   1.895   2.912  0.7846  0.3788 -2.1095
    6MOL   H301 2211   2.791   1.778   3.011  0.0893 -1.4314 -0.2914
    6MOL   H302 2212   2.876   1.596   3.004 -0.9782  1.0542 -0.2790
    6MOL   H303 2213   2.875   1.368   3.085  1.0861 -1.9921 -1.2984
    6MOL   H304 2214   2.679   1.219   3.058  2.7812  0.4929  0.1434
    6MOL   H305 2215   2.486   1.305   2.902 -1.4427  1.7001  1.2197
    6MOL   C306 2216   2.460   1.545   2.799 -0.0246 -0.0009  1.1925
    6MOL   C307 2217   2.464   1.559   2.645 -0.4539  0.1570  0.2466
    6MOL   O308 2218   2.408   1.446   2.720  0.1955 -0.5752 -0.0115
    6MOL   C309 2219   2.595   1.543   2.570  0.2306  0.8194  0.4895
    6MOL   O310 2220   2.586   1.476   2.442 -0.3028 -0.5225 -0.2130
    6MOL   C311 2221   2.506   1.539   2.351 -0.0413  0.2591  0.0104
    6MOL   C312 2222   2.524   1.679   2.328  0.3754 -0.3202 -0.2290
    6MOL   C313 2223   2.433   1.741   2.237 -0.8934  0.4503  0.1971
    6MOL   C314 2224   2.336   1.666   2.171  0.2124  0.1447  0.1473
    6MOL   C315 2225   2.322   1.531   2.192 -0.4720  0.1729 -0.5807
    6MOL   C316 2226   2.414   1.459   2.275  0.3964 -0.6328 -0.5433
    6MOL   H317 2227   2.388   1.598   2.862  0.3730 -0.2911  1.9039
    6MOL   H318 2228   2.398   1.629   2.594  0.1371  0.3264 -0.3010
    6MOL   H319 2229   2.668   1.480   2.621 -1.6362 -0.3626  1.7908
    6MOL   H320 2230   2.645   1.639   2.569  2.1122 -0.1392 -1.2936
    6MOL   H321 2231   2.595   1.742   2.378  2.8334 -0.5488 -3.2559
    6MOL   H322 2232   2.434   1.848   2.224 -0.2861  0.4760  0.4463
    6MOL   H323 2233   2.255   1.713   2.117 -0.8242  0.2656  1.7754
    6MOL   H324 2234   2.248   1.472   2.139 -0.5188 -0.3121  0.0062
    6MOL   C325 2235   2.406   1.316   2.305  0.7414 -0.5393  0.2481
    6MOL   C326 2236   2.292   1.273   2.402  0.6167 -1.0208 -0.1071
    6MOL   O327 2237   2.291   1.248   2.259 -0.0942  0.8289 -0.2529
    6MOL   C328 2238   2.193   1.375   2.470 -0.0666 -0.1833  0.0107
    6MOL   O329 2239   2.073   1.322   2.503 -0.4744  0.3926 -0.2900
    6MOL   C330 2240   2.068   1.243   2.620 -0.1034 -0.1129 -0.1319
    6MOL   C331 2241   2.095   1.305   2.746  0.4492 -0.0494  0.0823
    6MOL   C332 2242   2.066   1.239   2.869 -0.1151 -0.3875 -0.2680
    6MOL   C333 2243   2.025   1.103   2.865 -0.3516 -0.6459  0.6383
    6MOL   C334 2244   2.002   1.049   2.740 -0.0490 -0.1286  0.3912
    6MOL   C335 2245   2.021   1.114   2.617  0.5522 -0.2087 -0.1324
    6MOL   H336 2246   2.491   1.249   2.306  3.3435  2.4464 -4.1701
    6MOL   H337 2247   2.321   1.185   2.460  1.8924  0.9207  2.3184
    6MOL   H338 2248   2.176   1.462   2.407  0.2380 -0.1228  0.0118
    6MOL   H339 2249   2.250   1.438   2.538 -0.2537 -0.8039  0.7464
    6MOL   H340 2250   2.134   1.405   2.739 -1.3608  0.7124  0.6602
    6MOL   H341 2251   2.093   1.289   2.961 -1.7057  1.1513 -0.6158
    6MOL   H342 2252   2.004   1.035   2.946  1.2924  0.5608  2.1172
    6MOL   H343 2253   1.967   0.946   2.745  0.2080 -0.2830 -0.8286
    6MOL   C344 2254   1.973   1.055   2.490  0.0063  0.3189  0.1242
    6MOL   C345 2255   2.061   0.949   2.424 -0.8283  0.7487 -0.2652
    6MOL   O346 2256   1.934   0.917   2.476 -0.3524 -0.1513 -0.5552
    6MOL   C347 2257   2.181   0.892   2.506 -0.2246  0.0906 -0.3690
    6MOL   O348 2258   2.244   0.788   2.432 -0.4247 -0.1090 -0.1379
    6MOL   C349 2259   2.186   0.670   2.395  0.7607 -0.4807 -0.3082
    6MOL   C350 2260   2.069   0.619   2.450  0.2574 -0.6947 -0.1598
    6MOL   C351 2261   2.017   0.497   2.405  0.2123  1.3651 -0.0619
    6MOL   C352 2262   2.094   0.409   2.328 -0.1116  0.4616  0.5441
    6MOL   C353 2263   2.210   0.460   2.272 -0.0685 -0.1471 -0.2137
    6MOL   C354 2264   2.254   0.588   2.302 -0.0399  0.5823  0.6646
    6MOL   H355 2265   1.926   1.118   2.415  0.6756 -1.3681 -1.7782
    6MOL   H356 2266   2.066   0.940   2.315  2.0594 -0.3824 -0.1051
    6MOL   H357 2267   2.144   0.856   2.602  1.7864 -0.6551  0.1481
    6MOL   H358 2268   2.253   0.972   2.527  0.2278 -1.2767  3.6929
    6MOL   H359 2269   2.008   0.675   2.520  1.9894  1.1887 -0.1033
    6MOL   H360 2270   1.927   0.457   2.450 -0.7133  0.7264 -2.4353
    6MOL   H361 2271   2.051   0.313   2.305 -0.1727 -0.0758  2.7729
    6MOL   H362 2272   2.269   0.396   2.208 -0.4199 -4.0370  3.0976
    6MOL   C363 2273   2.377   0.632   2.236 -0.8040  0.0331  0.1043
    6MOL   C364 2274   2.508   0.629   2.308  0.6986 -0.6031  0.7411
    6MOL   O365 2275   2.475   0.530   2.208  0.2875  0.3808  0.0345
    6MOL   C366 2276   2.525   0.576   2.450 -0.1691 -0.2692  0.4509
    6MOL   O367 2277   2.655   0.583   2.500  0.3886  0.2594  0.3574
    6MOL   C368 2278   2.752   0.501   2.449  0.5424  0.0065  0.5039
    6MOL   C369 2279   2.722   0.394   2.368 -0.7051  0.1389 -0.3538
    6MOL   C370 2280   2.827   0.309   2.327 -0.2773  0.5010 -0.2174
    6MOL   C371 2281   2.960   0.326   2.372  0.3885  0.1571  0.5549
    6MOL   C372 2282   2.987   0.432   2.452 -0.2421 -0.5320 -0.3671
    6MOL   C373 2283   2.880   0.514   2.493 -0.3870  0.1724  0.0679
    6MOL   H374 2284   2.359   0.709   2.162 -2.4808 -1.9206 -1.5934
    6MOL   H375 2285   2.576   0.707   2.273  1.3931 -1.6263 -0.1983
    6MOL   H376 2286   2.482   0.476   2.458  0.9552 -0.8512 -0.5667
    6MOL   H377 2287   2.462   0.633   2.518  1.3773  1.5902  0.3722
    6MOL   H378 2288   2.621   0.366   2.342 -1.3420 -1.2691  3.3050
    6MOL   H379 2289   2.803   0.225   2.264 -0.3792  0.6926 -0.4338
    6MOL   H380 2290   3.038   0.256   2.345 -0.7599 -0.2689 -1.7991
    6MOL   H381 2291   3.088   0.452   2.484 -0.2883  0.3855 -0.7958
    6MOL   H382 2292   2.907   0.594   2.561 -0.4767  1.4727 -1.3847
    7MOL     C1 2293   4.109   0.236   5.143  0.0750  0.1104 -0.0872
    7MOL     C2 2294   4.034   0.364   5.187 -0.4746  0.6938  0.2857
    7MOL     O3 2295   4.067   0.336   5.051 -0.0952  0.1787  0.4381
    7MOL     C4 2296   4.119   0.467   5.256  0.1022  0.5956 -0.2494
    7MOL     O5 2297   4.037   0.575   5.296  0.0562  0.4194  0.1965
    7MOL     C6 2298   4.016   0.679   5.203  0.2618  0.3278  0.2560
    7MOL     C7 2299   4.055   0.678   5.067 -0.3671  0.3987 -0.0072
    7MOL     C8 2300   4.031   0.789   4.983 -0.0818  0.0754 -0.2309
    7MOL     C9 2301   3.964   0.903   5.033  0.0304  0.4127  0.1163
    7MOL    C10 2302   3.933   0.903   5.166 -0.5330 -0.0611  0.1843
    7MOL    C11 2303   3.953   0.793   5.259  0.3228  0.0626  0.4052
    7MOL    H12 2304   4.057   0.141   5.145 -0.4357  0.4047  1.1103
    7MOL    H13 2305   3.932   0.354   5.223 -0.8128  0.5713 -0.6854
    7MOL    H14 2306   4.201   0.498   5.191 -0.5752  0.0201 -1.3734
    7MOL    H15 2307   4.169   0.426   5.345  0.3717 -0.2009 -0.7656
    7MOL    H16 2308   4.103   0.592   5.022  2.0213  1.4789  0.4194
    7MOL    H17 2309   4.068   0.799   4.883 -1.4497  1.6362 -0.6134
    7MOL    H18 2310   3.939   0.984   4.966  0.2934 -0.1841 -0.7244
    7MOL    H19 2311   3.899   0.992   5.215 -1.0576 -0.9132  1.3776
    7MOL    H20 2312   4.218   0.237   5.152  0.0568 -0.1837  0.1691
    7MOL    C21 2313   3.912   0.793   5.401  1.1446  0.0883 -0.7313
    7MOL    C22 2314   4.010   0.796   5.513  0.0800  0.1411 -0.4631
    7MOL    O23 2315   3.944   0.913   5.472  0.0050 -0.0643 -0.1498
    7MOL    C24 2316   4.163   0.806   5.496  0.1978 -0.5511 -0.4235
    7MOL    O25 2317   4.217   0.865   5.611 -0.6555  0.0494  0.2445
    7MOL    C26 2318   4.227   0.791   5.727  0.0827  0.2101  0.3887
    7MOL    C27 2319   4.193   0.655   5.734 -0.6350  0.2897 -0.1804
    7MOL    C28 2320   4.210   0.582   5.855  0.0466 -0.2088  0.1622
    7MOL    C29 2321   4.246   0.652   5.968 -0.0889 -0.0045  0.4551
    7MOL    C30 2322   4.282   0.791   5.962  0.4565 -0.0919  0.8904
    7MOL    C31 2323   4.269   0.854   5.844 -0.5120 -0.5000 -0.0258
    7MOL    H32 2324   3.814   0.750   5.420  2.3417 -2.0520  0.7667
    7MOL    H33 2325   3.965   0.760   5.605 -1.0716  1.1718 -0.6073
    7MOL    H34 2326   4.187   0.849   5.399  1.4841 -1.4519 -0.5107
    7MOL    H35 2327   4.202   0.706   5.479 -1.1162 -1.3700  1.1134
    7MOL    H36 2328   4.158   0.596   5.650 -1.2666 -1.8351  1.5243
    7MOL    H37 2329   4.188   0.477   5.868  1.9843 -1.1871 -3.7277
    7MOL    H38 2330   4.265   0.611   6.066  0.6526  0.7634  0.6361
    7MOL    H39 2331   4.326   0.853   6.039  1.0484  1.9502 -1.0417
    7MOL    C40 2332   4.310   0.998   5.834 -1.0454  0.1674 -0.7493
    7MOL    C41 2333   4.243   1.114   5.912  0.6791  0.4860  0.0135
    7MOL    O42 2334   4.366   1.058   5.956  0.2450 -0.0059 -0.3823
    7MOL    C43 2335   4.122   1.097   6.001  0.2050 -0.0582  0.2726
    7MOL    O44 2336   4.113   1.216   6.080 -0.6787 -0.1922  0.7651
    7MOL    C45 2337   3.998   1.231   6.156 -0.0190 -0.5656 -0.5043
    7MOL    C46 2338   3.912   1.123   6.188  0.2348 -0.4495  0.6342
    7MOL    C47 2339   3.806   1.135   6.274 -0.0384 -0.4611 -0.2168
    7MOL    C48 2340   3.792   1.256   6.348  0.4085  0.4092  0.6897
    7MOL    C49 2341   3.878   1.361   6.328  0.4093 -0.0143 -0.1295
    7MOL    C50 2342   3.980   1.352   6.228 -0.0327 -0.6765  0.6362
    7MOL    H51 2343   4.382   1.019   5.756 -2.7067  2.6238 -1.6788
    7MOL    H52 2344   4.245   1.211   5.864 -0.6578  1.0688  1.0882
    7MOL    H53 2345   4.144   1.012   6.065  0.5925  0.5464  0.9562
    7MOL    H54 2346   4.039   1.075   5.934  1.8556  0.6872 -2.1037
    7MOL    H55 2347   3.919   1.022   6.150 -0.9362 -0.4165  0.3023
    7MOL    H56 2348   3.735   1.057   6.294 -0.0239 -0.2589  0.6446
    7MOL    H57 2349   3.708   1.272   6.414  0.3582 -0.9266  0.9641
    7MOL    H58 2350   3.871   1.456   6.380  0.1866  0.9265 -1.8361
    7MOL    C59 2351   4.057   1.472   6.192 -0.4400 -0.6432 -0.3878
    7MOL    C60 2352   4.085   1.526   6.049  0.1556 -0.4295 -0.0155
    7MOL    O61 2353   3.969   1.564   6.127  0.7763  0.3106  0.3056
    7MOL    C62 2354   4.049   1.456   5.919  0.4140  0.4467  0.5456
    7MOL    O63 2355   4.006   1.548   5.819  0.0796 -0.0232 -0.0017
    7MOL    C64 2356   4.107   1.612   5.740 -0.4067 -0.4920  0.1638
    7MOL    C65 2357   4.248   1.574   5.736  0.0955  0.1045  0.0406
    7MOL    C66 2358   4.336   1.626   5.640 -0.5282 -0.2247 -0.4371
    7MOL    C67 2359   4.286   1.722   5.548 -0.9732  1.0814  0.1032
    7MOL    C68 2360   4.154   1.767   5.562 -0.1456 -0.1828  0.2419
    7MOL    C69 2361   4.063   1.715   5.655  0.2798  0.3527 -0.0501
    7MOL    H70 2362   4.119   1.515   6.271 -0.9175 -1.2143  0.2969
    7MOL    H71 2363   4.154   1.608   6.032 -1.6262  1.2950  0.8099
    7MOL    H72 2364   3.971   1.381   5.932 -1.2794  1.9012 -0.8636
    7MOL    H73 2365   4.142   1.404   5.896 -0.2503 -1.4793  2.0973
    7MOL    H74 2366   4.290   1.495   5.797 -0.2402 -0.1778 -0.0931
    7MOL    H75 2367   4.437   1.588   5.632 -0.3751  0.2756 -0.9565
    7MOL    H76 2368   4.340   1.774   5.470  0.4608  1.7723  1.5094
    7MOL    H77 2369   4.131   1.848   5.494  0.2718 -1.0993 -1.0202
    7MOL    C78 2370   3.918   1.759   5.648  0.2713  0.2064  0.4762
    7MOL    C79 2371   3.846   1.833   5.757 -0.6263  1.1719  0.2901
    7MOL    O80 2372   3.911   1.901   5.650  0.6763 -0.1700  0.0508
    7MOL    C81 2373   3.907   1.837   5.898 -0.0246 -0.1781  0.2365
    7MOL    O82 2374   3.890   1.964   5.968  0.0833 -0.4067  1.0781
    7MOL    C83 2375   3.784   1.990   6.051 -0.5817 -0.0278  1.0563
    7MOL    C84 2376   3.702   1.890   6.107  0.1755  0.0006 -0.1755
    7MOL    C85 2377   3.603   1.922   6.198  0.7398 -1.1046 -0.1248
    7MOL    C86 2378   3.583   2.053   6.242  0.5062 -0.3046  0.3325
    7MOL    C87 2379   3.671   2.153   6.186 -0.4436  0.5456  0.7750
    7MOL    C88 2380   3.769   2.129   6.089 -0.5106 -0.4667  0.0469
    7MOL    H89 2381   3.854   1.705   5.578  0.7510 -2.0411  1.7211
    7MOL    H90 2382   3.737   1.826   5.749 -0.5191  2.1859 -3.0320
    7MOL    H91 2383   4.013   1.811   5.897 -0.5019 -2.2396  0.5938
    7MOL    H92 2384   3.862   1.750   5.946 -2.0382  0.4247 -0.5383
    7MOL    H93 2385   3.724   1.789   6.074 -0.0566 -0.1582  0.1594
    7MOL    H94 2386   3.546   1.843   6.243  1.1733 -0.7924  0.9883
    7MOL    H95 2387   3.500   2.075   6.306  1.0738 -3.8889  2.4512
    7MOL    H96 2388   3.663   2.253   6.227  0.3344  0.6517  0.6854
    7MOL    C97 2389   3.859   2.230   6.025  0.2091  0.1201 -0.0725
    7MOL    C98 2390   3.843   2.266   5.882  0.1492 -0.3714  0.1478
    7MOL    O99 2391   3.802   2.353   5.986 -0.2341 -0.2076  0.3301
    7MOL   C100 2392   3.741   2.212   5.789  0.0233 -0.3756  0.0954
    7MOL   O101 2393   3.679   2.315   5.700  0.2414  0.4456 -0.0713
    7MOL   C102 2394   3.567   2.278   5.631  0.3442  0.3458  0.0721
    7MOL   C103 2395   3.460   2.205   5.689 -0.1864  0.1453 -0.0515
    7MOL   C104 2396   3.344   2.178   5.618 -0.1612  0.1185 -0.1255
    7MOL   C105 2397   3.338   2.205   5.475  0.3046 -0.2512 -0.5880
    7MOL   C106 2398   3.451   2.275   5.420 -0.2117 -0.0124 -1.0477
    7MOL   C107 2399   3.566   2.309   5.495 -0.9417 -0.2615 -0.2844
    7MOL   H108 2400   3.961   2.237   6.063  0.5583  0.1125 -0.9917
    7MOL   H109 2401   3.924   2.318   5.833 -1.7876  1.7750 -0.8237
    7MOL   H110 2402   3.661   2.166   5.847  0.7319 -0.4166  1.0448
    7MOL   H111 2403   3.779   2.131   5.727 -0.1382  0.0470 -0.5623
    7MOL   H112 2404   3.460   2.189   5.796  1.1690  1.5128  0.1679
    7MOL   H113 2405   3.261   2.131   5.669  2.3312 -0.8697  3.2070
    7MOL   H114 2406   3.243   2.203   5.424 -1.2727  1.8947  2.1416
    7MOL   H115 2407   3.456   2.313   5.319  0.9015 -0.2192 -1.0844
    7MOL   C116 2408   3.671   2.392   5.433 -0.6696 -0.3575 -0.0741
    7MOL   C117 2409   3.812   2.341   5.393  0.2757 -0.1933 -0.3881
    7MOL   O118 2410   3.705   2.336   5.307  0.0013  0.6397  0.5303
    7MOL   C119 2411   3.860   2.202   5.416  0.6225  0.2395  0.0632
    7MOL   O120 2412   3.963   2.176   5.323  0.5079 -0.7885  0.0530
    7MOL   C121 2413   3.955   2.055   5.248 -0.3109  0.6107  0.1660
    7MOL   C122 2414   3.918   1.935   5.307  0.6521  0.4211  0.1267
    7MOL   C123 2415   3.913   1.816   5.237 -0.6247 -0.5659 -0.2589
    7MOL   C124 2416   3.952   1.816   5.105 -0.1080  0.7990  0.9619
    7MOL   C125 2417   3.978   1.938   5.037 -0.2461  0.3302 -0.4837
    7MOL   C126 2418   3.971   2.057   5.112 -0.0958  0.0172  0.6779
    7MOL   H127 2419   3.647   2.498   5.440  2.1659  0.1990  2.5374
    7MOL   H128 2420   3.881   2.419   5.363  0.8310 -0.6106 -0.2111
    7MOL   H129 2421   3.769   2.144   5.409  0.5939  0.0970  1.4533
    7MOL   H130 2422   3.885   2.177   5.519  1.4296 -1.7693 -0.5884
    7MOL   H131 2423   3.895   1.931   5.412 -0.2986  0.0231 -0.0953
    7MOL   H132 2424   3.888   1.725   5.291  0.2127 -0.2952  0.6096
    7MOL   H133 2425   3.947   1.729   5.042  2.5412  1.7941 -0.7100
    7MOL   H134 2426   3.999   1.942   4.931 -0.8940 -0.3536 -0.6444
    7MOL   C135 2427   3.979   2.193   5.045  0.0388 -0.7920  0.1442
    7MOL   C136 2428   4.098   2.279   5.044  0.2501 -0.1201  0.6593
    7MOL   O137 2429   4.074   2.185   4.938 -0.1268 -0.9728  0.1128
    7MOL   C138 2430   4.228   2.243   5.117 -0.0640  0.0691  0.1237
    7MOL   O139 2431   4.342   2.318   5.096 -0.2654 -0.2123  0.1847
    7MOL   C140 2432   4.351   2.442   5.154  0.0813  0.2139  0.1258
    7MOL   C141 2433   4.294   2.475   5.283 -0.3020  0.1500  0.1144
    7MOL   C142 2434   4.291   2.610   5.334 -0.1590  0.0140  0.5229
    7MOL   C143 2435   4.335   2.712   5.242  0.8699  0.1276 -0.6625
    7MOL   C144 2436   4.423   2.679   5.136  0.3010 -0.4005  0.1872
    7MOL   C145 2437   4.423   2.542   5.087 -0.2677 -0.3035  0.0716
    7MOL   H146 2438   3.878   2.224   5.019  0.3899 -0.0660 -0.4043
    7MOL   H147 2439   4.067   2.382   5.031 -2.4389 -0.7068  2.1903
    7MOL   H148 2440   4.260   2.142   5.093 -0.8232 -0.5286  1.5904
    7MOL   H149 2441   4.213   2.218   5.222  0.9083 -0.1252  0.2244
    7MOL   H150 2442   4.249   2.397   5.343  1.6389  0.9486  2.7013
    7MOL   H151 2443   4.239   2.635   5.425 -2.2736  0.8596 -0.8531
    7MOL   H152 2444   4.326   2.817   5.266  2.1531  0.1097 -0.0663
    7MOL   H153 2445   4.478   2.752   5.080 -2.5345  0.2405 -1.8896
    7MOL   C154 2446   4.502   2.517   4.960 -0.2091 -0.5325 -0.3601
    7MOL   C155 2447   4.448   2.450   4.833  0.1862  0.3598  0.5305
    7MOL   O156 2448   4.456   2.593   4.854  0.4027 -0.2257 -0.4942
    7MOL   C157 2449   4.304   2.389   4.811  0.2560  0.1676 -0.5197
    7MOL   O158 2450   4.254   2.381   4.674 -0.1171  0.2413  0.0812
    7MOL   C159 2451   4.181   2.487   4.626  1.0652 -0.4227  0.5571
    7MOL   C160 2452   4.170   2.616   4.688  0.6852  0.3010 -0.0602
    7MOL   C161 2453   4.090   2.708   4.623  0.3548 -0.0844 -0.6953
    7MOL   C162 2454   4.015   2.675   4.506  0.2771 -0.0740  0.4043
    7MOL   C163 2455   4.030   2.553   4.438 -0.0362  0.2003 -0.8349
    7MOL   C164 2456   4.113   2.461   4.501  0.0032  0.2439  0.7186
    7MOL   H165 2457   4.609   2.518   4.976  0.0021  2.1185 -1.7475
    7MOL   H166 2458   4.522   2.401   4.771 -0.3515 -1.5498  1.3762
    7MOL   H167 2459   4.231   2.436   4.877 -0.4408 -2.0158  0.2890
    7MOL   H168 2460   4.297   2.282   4.832  0.9156  0.4774  1.3981
    7MOL   H169 2461   4.225   2.647   4.776 -1.8529  0.0025  1.6912
    7MOL   H170 2462   4.075   2.804   4.670 -2.2925 -0.3868 -0.8420
    7MOL   H171 2463   3.957   2.755   4.463 -0.1825  0.5846  2.2234
    7MOL   H172 2464   3.979   2.522   4.348 -1.1122 -0.2857 -0.0661
    7MOL   C173 2465   4.137   2.330   4.436  0.1325  0.6118 -0.0945
    7MOL   C174 2466   4.069   2.203   4.475 -0.5721 -0.1561 -0.2549
    7MOL   O175 2467   4.027   2.283   4.365 -0.1634  0.2415  0.0118
    7MOL   C176 2468   3.971   2.179   4.588 -0.8683 -0.8627 -0.6962
    7MOL   O177 2469   3.967   2.035   4.598  0.0340 -0.3069 -0.1558
    7MOL   C178 2470   3.877   1.978   4.692  0.0632 -0.0715  0.6856
    7MOL   C179 2471   3.778   2.056   4.765 -0.3770  0.0484  0.0086
    7MOL   C180 2472   3.694   1.994   4.861 -0.8354 -0.3341 -0.7217
    7MOL   C181 2473   3.695   1.854   4.870 -0.0096 -0.4350  0.0614
    7MOL   C182 2474   3.780   1.777   4.791 -0.2114 -0.1275  0.9290
    7MOL   C183 2475   3.876   1.838   4.710 -0.4716 -0.1729 -0.0874
    7MOL   H184 2476   4.241   2.315   4.406 -0.3885  1.4251 -2.4202
    7MOL   H185 2477   4.117   2.111   4.441 -1.3319 -0.2832 -0.9988
    7MOL   H186 2478   3.875   2.222   4.561 -0.4572  0.1218 -0.6426
    7MOL   H187 2479   4.007   2.232   4.677 -0.8884  1.0454 -1.7921
    7MOL   H188 2480   3.784   2.164   4.769 -1.7733  0.1113  0.7711
    7MOL   H189 2481   3.631   2.056   4.923 -0.0808 -0.5506  0.2695
    7MOL   H190 2482   3.634   1.802   4.943  1.6043 -1.3228  0.8053
    7MOL   H191 2483   3.783   1.670   4.797  0.5409 -0.2870 -1.8821
    7MOL   C192 2484   3.968   1.749   4.623  0.4005  0.1395 -0.1530
    7MOL   C193 2485   4.107   1.709   4.656 -0.8702 -0.0402 -1.0056
    7MOL   O194 2486   3.997   1.617   4.682 -0.0636  0.0503 -0.2559
    7MOL   C195 2487   4.179   1.757   4.779 -0.2837 -0.4578 -0.1557
    7MOL   O196 2488   4.277   1.666   4.811  0.1797 -0.4803  0.4303
    7MOL   C197 2489   4.350   1.693   4.921 -0.8791  0.0506  0.2049
    7MOL   C198 2490   4.328   1.814   5.006  0.5474 -0.6012  0.4830
    7MOL   C199 2491   4.400   1.826   5.128 -0.4931 -0.2037  0.9649
    7MOL   C200 2492   4.506   1.729   5.156  0.1753  0.6489 -0.7148
    7MOL   C201 2493   4.514   1.606   5.078 -0.0267 -0.0896  0.1780
    7MOL   C202 2494   4.443   1.597   4.958  0.0039 -0.4372  0.7607
    7MOL   H203 2495   3.933   1.746   4.520  0.2070  0.9066 -0.1162
    7MOL   H204 2496   4.174   1.681   4.575 -0.9763  0.6593 -1.3465
    7MOL   H205 2497   4.108   1.777   4.859 -0.7460 -0.0025 -0.6737
    7MOL   H206 2498   4.225   1.854   4.757  0.4402 -0.0836  2.7464
    7MOL   H207 2499   4.257   1.892   4.981  0.7986 -0.9770 -1.4685
    7MOL   H208 2500   4.387   1.917   5.185 -0.8430 -0.0929  0.7054
    7MOL   H209 2501   4.554   1.746   5.252  0.6675  1.2798 -1.0694
    7MOL   H210 2502   4.586   1.532   5.111  0.4605  0.0069 -0.6447
    7MOL   C211 2503   4.467   1.474   4.881 -0.2026  0.6944 -0.2509
    7MOL   C212 2504   4.529   1.454   4.748  0.3095  0.1970 -0.3352
    7MOL   O213 2505   4.611   1.447   4.867  0.2539 -0.2500 -0.0250
    7MOL   C214 2506   4.544   1.569   4.648  0.6436  0.2997  0.0030
    7MOL   O215 2507   4.639   1.534   4.543 -0.3161  0.0410  0.4637
    7MOL   C216 2508   4.617   1.591   4.417 -0.2680 -0.0987 -0.6558
    7MOL   C217 2509   4.544   1.713   4.390 -0.0923 -0.3242  0.0646
    7MOL   C218 2510   4.544   1.768   4.261  0.0073  0.1012 -0.0744
    7MOL   C219 2511   4.608   1.698   4.162 -0.3105 -0.0947 -0.0934
    7MOL   C220 2512   4.681   1.581   4.185  0.2866  0.4824 -0.6452
    7MOL   C221 2513   4.685   1.524   4.312 -0.0534 -0.4932  0.4387
    7MOL   H222 2514   4.412   1.393   4.928  1.0085  0.8274  1.4659
    7MOL   H223 2515   4.532   1.354   4.705 -1.5701 -0.1244  0.2462
    7MOL   H224 2516   4.574   1.660   4.700 -0.7748  0.5379  0.4435
    7MOL   H225 2517   4.447   1.597   4.608  0.6588  1.9893  1.1048
    7MOL   H226 2518   4.492   1.766   4.468 -1.0571 -2.7705  1.1245
    7MOL   H227 2519   4.501   1.864   4.238 -1.3182 -0.0801  1.5641
    7MOL   H228 2520   4.612   1.746   4.065  2.7700  1.4498  0.7369
    7MOL   H229 2521   4.719   1.526   4.100 -0.3530 -1.8107  0.5180
    7MOL   C230 2522   4.759   1.392   4.338  0.2199  0.8408 -0.2220
    7MOL   C231 2523   4.694   1.254   4.347 -0.3037 -0.3580 -0.5874
    7MOL   O232 2524   4.761   1.304   4.227 -0.3657  0.5168 -0.8234
    7MOL   C233 2525   4.546   1.243   4.356  0.0530  0.1929  0.1469
    7MOL   O234 2526   4.501   1.123   4.297  0.2999  0.2276 -0.3803
    7MOL   C235 2527   4.368   1.084   4.300 -0.3356 -0.0345  0.2483
    7MOL   C236 2528   4.267   1.166   4.349  0.4817  0.1977  0.3071
    7MOL   C237 2529   4.128   1.136   4.338 -0.6670 -0.5227 -0.2028
    7MOL   C238 2530   4.093   1.003   4.289  0.0954  0.0680 -0.5562
    7MOL   C239 2531   4.196   0.924   4.233 -0.8880 -0.1048 -0.7265
    7MOL   C240 2532   4.328   0.966   4.235 -0.0150 -0.5526  0.6282
    7MOL   H241 2533   4.856   1.414   4.381  0.5950 -0.6444 -0.2553
    7MOL   H242 2534   4.754   1.194   4.415  0.0497 -1.2477 -1.6896
    7MOL   H243 2535   4.505   1.332   4.309  1.1613  1.1195  0.9034
    7MOL   H244 2536   4.516   1.260   4.460  0.9145 -1.6019  0.7125
    7MOL   H245 2537   4.286   1.266   4.384 -1.9299  1.0695 -0.7809
    7MOL   H246 2538   4.061   1.213   4.372  2.6976  1.9431  1.0887
    7MOL   H247 2539   3.991   0.968   4.285 -0.1377  0.4547  1.5303
    7MOL   H248 2540   4.174   0.822   4.207  0.6744 -0.3127 -1.2656
    7MOL   C249 2541   4.432   0.872   4.177  0.2357 -0.2700  0.4720
    7MOL   C250 2542   4.518   0.775   4.254 -0.3221  0.9885 -0.4341
    7MOL   O251 2543   4.400   0.731   4.185  0.6571  0.6545  0.0072
    7MOL   C252 2544   4.511   0.775   4.400  0.1273  0.5737 -0.1170
    7MOL   O253 2545   4.578   0.659   4.446  0.1383 -0.1362  0.1349
    7MOL   C254 2546   4.714   0.655   4.450 -0.3135 -0.0793 -0.1089
    7MOL   C255 2547   4.807   0.756   4.400 -0.0332 -0.3694  0.1515
    7MOL   C256 2548   4.942   0.736   4.403  0.2085 -0.3108 -0.2893
    7MOL   C257 2549   4.993   0.607   4.457 -0.2245  0.3860  0.5549
    7MOL   C258 2550   4.908   0.518   4.515  0.6235 -0.8296 -0.4625
    7MOL   C259 2551   4.767   0.539   4.512 -0.3503 -0.1497 -0.1295
    7MOL   H260 2552   4.442   0.897   4.071 -1.8214 -3.4881 -0.5650
    7MOL   H261 2553   4.607   0.729   4.212 -0.5608 -3.4965  3.6110
    7MOL   H262 2554   4.406   0.753   4.421  0.3805 -1.0641 -0.4838
    7MOL   H263 2555   4.540   0.871   4.441 -1.6154  1.1580 -0.1907
    7MOL   H264 2556   4.780   0.854   4.363  1.0286  0.1457  0.7485
    7MOL   H265 2557   5.006   0.822   4.388 -0.6159  0.0716 -1.7194
    7MOL   H266 2558   5.096   0.598   4.488 -0.4631  0.2600  1.3064
    7MOL   H267 2559   4.956   0.431   4.557 -0.7008 -1.1691  0.3922
    7MOL   C268 2560   4.676   0.453   4.583  0.0748  0.2880  0.1730
    7MOL   C269 2561   4.615   0.333   4.509  0.1729  0.5966  0.5959
    7MOL   O270 2562   4.721   0.318   4.607 -0.2739  0.6297  0.2215
    7MOL   C271 2563   4.667   0.281   4.369 -0.1511 -0.8214 -0.1720
    7MOL   O272 2564   4.567   0.195   4.312 -0.4061  0.0619  0.8102
    7MOL   C273 2565   4.580   0.064   4.328 -0.3451 -0.0626  0.1941
    7MOL   C274 2566   4.633   0.006   4.448 -0.9029 -0.0813  0.1946
    7MOL   C275 2567   4.629   8.037   4.469  0.2308  0.6784  0.6063
    7MOL   C276 2568   4.541   7.958   4.383  0.5619  0.1971 -0.2545
    7MOL   C277 2569   4.485   8.017   4.263  0.8428  0.2851 -0.2233
    7MOL   C278 2570   4.504   8.154   4.233 -0.9154  0.0074  0.4977
    7MOL   H279 2571   4.640   0.497   4.675 -2.9965 -0.3809 -0.6358
    7MOL   H280 2572   4.512   0.318   4.539 -0.2090  2.0137  0.0586
    7MOL   H281 2573   4.764   0.232   4.382  0.2685  0.1048  0.1941
    7MOL   H282 2574   4.689   0.354   4.291  0.2821  0.4377  1.1031
    7MOL   H283 2575   4.679   0.070   4.522  1.2834  1.1301 -2.1607
    7MOL   H284 2576   4.675   7.991   4.555  2.1486 -0.2129 -0.8521
    7MOL   H285 2577   4.518   7.859   4.419 -1.0412  0.4170 -0.6431
    7MOL   H286 2578   4.426   7.956   4.196  0.6885 -1.5789  1.5626
    7MOL   C287 2579   4.441   0.047   4.119 -0.1384  0.0832 -0.3712
    7MOL   C288 2580   4.517   0.061   3.989 -0.2975 -0.1317  0.3821
    7MOL   O289 2581   4.414   8.128   4.006 -0.1089 -0.5559 -0.1626
    7MOL   C290 2582   4.662   0.007   3.966 -0.6013 -0.4977 -0.0326
    7MOL   O291 2583   4.668   8.116   3.843 -0.3740 -0.1929 -0.3759
    7MOL   C292 2584   4.694   0.041   3.747  0.5109 -0.1940  0.4524
    7MOL   C293 2585   4.811   0.111   3.741  0.5698 -0.4926  0.5039
    7MOL   C294 2586   4.833   0.219   3.650  0.2581 -0.5649 -0.0952
    7MOL   C295 2587   4.736   0.238   3.547  0.0568 -0.9724 -1.3620
    7MOL   C296 2588   4.618   0.159   3.550  0.5300 -0.0527 -0.3625
    7MOL   C297 2589   4.597   0.058   3.643  0.6433 -0.9965  0.0297
    7MOL   H298 2590   4.356   0.113   4.132  0.2532  0.5880 -0.3408
    7MOL   H299 2591   4.492   0.151   3.932  0.0391 -0.8528 -0.9381
    7MOL   H300 2592   4.691   8.099   4.037  2.3040  0.4534 -0.1196
    7MOL   H301 2593   4.739   0.082   3.983 -2.4205  1.1644  1.0734
    7MOL   H302 2594   4.887   0.099   3.817  1.0891 -1.2721 -0.1277
    7MOL   H303 2595   4.920   0.282   3.655  0.1364 -0.5329  2.2283
    7MOL   H304 2596   4.755   0.316   3.475 -1.3342 -0.1871 -0.8911
    7MOL   H305 2597   4.537   0.185   3.484  1.4287 -2.2659 -2.4175
    7MOL   C306 2598   4.472   8.148   3.649 -0.0200  0.5565  0.4461
    7MOL   C307 2599   4.326   0.029   3.652  0.3579 -0.1770  0.5304
    7MOL   O308 2600   4.395   8.163   3.531  0.1868 -0.0346 -0.2473
    7MOL   C309 2601   4.286   0.176   3.675 -0.5500  0.3567  1.0996
    7MOL   O310 2602   4.145   0.190   3.657  0.0587  0.4818 -0.2895
    7MOL   C311 2603   4.089   0.190   3.529 -0.4629  0.0701 -0.0088
    7MOL   C312 2604   4.168   0.173   3.407  0.1318  0.0961 -0.2819
    7MOL   C313 2605   4.101   0.188   3.285 -0.5651 -0.2064 -0.7951
    7MOL   C314 2606   3.960   0.197   3.276  0.0481  0.2735 -0.0954
    7MOL   C315 2607   3.886   0.196   3.392 -0.3314  0.7292  0.0323
    7MOL   C316 2608   3.949   0.203   3.521 -0.2308  0.5540 -0.6146
    7MOL   H317 2609   4.478   8.050   3.695 -1.9587  1.4001  2.5999
    7MOL   H318 2610   4.257   8.132   3.702 -0.9988  1.9611  1.6008
    7MOL   H319 2611   4.339   0.248   3.612 -1.2026 -0.2700 -0.1754
    7MOL   H320 2612   4.319   0.195   3.777 -2.2775 -0.3864  1.8174
    7MOL   H321 2613   4.276   0.170   3.412  0.0207 -1.1571  1.5873
    7MOL   H322 2614   4.173   0.199   3.204 -0.0600 -0.8433 -0.4384
    7MOL   H323 2615   3.916   0.198   3.178  0.9797 -0.5751 -0.5300
    7MOL   H324 2616   3.779   0.195   3.378 -0.2598 -2.9950 -0.5937
    7MOL   C325 2617   3.875   0.232   3.646  0.3237 -0.5856  0.2268
    7MOL   C326 2618   3.857   0.366   3.708 -0.7970 -0.3244 -0.5065
    7MOL   O327 2619   3.756   0.316   3.627 -0.0036 -0.2764  0.3963
    7MOL   C328 2620   3.920   0.490   3.651 -0.2070  0.4501  0.6643
    7MOL   O329 2621   3.913   0.590   3.751 -0.1985  0.0685 -0.3952
    7MOL   C330 2622   3.999   0.695   3.754  0.5944  0.4212 -0.4069
    7MOL   C331 2623   4.073   0.736   3.643 -0.6127 -0.5293 -0.0259
    7MOL   C332 2624   4.169   0.841   3.657 -0.1774  0.3091  0.3597
    7MOL   C333 2625   4.189   0.906   3.781 -0.0075  0.0666  0.5663
    7MOL   C334 2626   4.109   0.869   3.891  0.4200 -0.4916 -1.1543
    7MOL   C335 2627   4.009   0.766   3.877 -0.2850 -0.4005 -0.1135
    7MOL   H336 2628   3.851   0.145   3.707 -0.4740  0.5519  1.5598
    7MOL   H337 2629   3.828   0.380   3.812 -2.5009 -0.1992 -0.9760
    7MOL   H338 2630   3.868   0.529   3.564 -0.1689 -2.0960 -0.5366
    7MOL   H339 2631   4.023   0.463   3.627 -0.7176 -2.1431  1.2317
    7MOL   H340 2632   4.068   0.703   3.540 -0.1079  2.0756 -0.9232
    7MOL   H341 2633   4.236   0.861   3.574  1.3410  1.2827  1.7796
    7MOL   H342 2634   4.273   0.972   3.798  1.4382 -1.4413 -0.5928
    7MOL   H343 2635   4.122   0.913   3.989  2.4404 -1.5946 -0.9085
    7MOL   C344 2636   3.933   0.732   4.005 -0.1471  0.0281 -0.1990
    7MOL   C345 2637   3.818   0.813   4.058  0.1455 -0.0486 -0.4610
    7MOL   O346 2638   3.796   0.688   3.992  0.5642 -0.4327 -0.1144
    7MOL   C347 2639   3.771   0.932   3.990 -0.4072  0.4398  0.7555
    7MOL   O348 2640   3.874   1.029   4.005  0.3109  0.2793 -0.5097
    7MOL   C349 2641   3.835   1.150   4.065  0.9840 -0.4246  0.7100
    7MOL   C350 2642   3.765   1.163   4.188 -0.4284 -0.0712 -0.5012
    7MOL   C351 2643   3.717   1.293   4.223  0.3468  0.5626 -0.5488
    7MOL   C352 2644   3.764   1.411   4.162 -0.4616  0.3657  0.8451
    7MOL   C353 2645   3.846   1.394   4.053  0.0274  0.0903 -0.0621
    7MOL   C354 2646   3.880   1.266   3.998 -0.9148  0.3827 -0.5307
    7MOL   H355 2647   4.006   0.687   4.072 -0.7258 -0.7006 -0.0437
    7MOL   H356 2648   3.810   0.825   4.166 -0.5720 -0.1898 -0.4970
    7MOL   H357 2649   3.685   0.975   4.042 -1.8306 -0.7158 -0.6267
    7MOL   H358 2650   3.746   0.915   3.886  0.1563 -0.3195  0.7436
    7MOL   H359 2651   3.729   1.078   4.244 -1.1648 -0.8092 -2.0703
    7MOL   H360 2652   3.664   1.302   4.317  1.9872  0.7585  0.3672
    7MOL   H361 2653   3.720   1.507   4.186 -1.8312 -0.2958  1.0546
    7MOL   H362 2654   3.878   1.486   4.007 -1.7830  1.1103  0.6740
    7MOL   C363 2655   3.968   1.252   3.875 -0.7316 -0.2381 -0.1605
    7MOL   C364 2656   3.921   1.219   3.740 -0.1078 -0.5423 -0.5706
    7MOL   O365 2657   3.940   1.358   3.786 -0.4015 -0.0462  0.0931
    7MOL   C366 2658   3.777   1.183   3.709  0.7804  0.3590 -0.0547
    7MOL   O367 2659   3.735   1.231   3.577 -0.0095  0.3543  0.5470
    7MOL   C368 2660   3.783   1.171   3.462 -0.3941  0.2241  0.3281
    7MOL   C369 2661   3.751   1.226   3.335  0.2835  0.0590  0.4838
    7MOL   C370 2662   3.800   1.156   3.223  0.6630 -0.9635  0.4914
    7MOL   C371 2663   3.874   1.038   3.239  0.2406  0.8329 -0.1677
    7MOL   C372 2664   3.910   0.984   3.365 -0.1125 -0.4107  0.4684
    7MOL   C373 2665   3.868   1.058   3.477 -0.1826  0.7975 -0.0732
    7MOL   H374 2666   4.074   1.233   3.893 -0.3810  0.2171 -1.6307
    7MOL   H375 2667   4.001   1.190   3.672  0.2136 -0.0519 -0.4056
    7MOL   H376 2668   3.714   1.228   3.786  1.7021 -0.0358  0.9520
    7MOL   H377 2669   3.763   1.075   3.716  0.7620  0.1851 -2.4764
    7MOL   H378 2670   3.701   1.321   3.336  2.0356  1.0027  1.0640
    7MOL   H379 2671   3.781   1.199   3.126 -0.5201 -0.3483  0.9789
    7MOL   H380 2672   3.914   0.979   3.158 -0.4020 -0.5806  0.5245
    7MOL   H381 2673   3.960   0.890   3.377  0.3534 -0.1165  0.8623
    7MOL   H382 2674   3.883   1.008   3.571 -0.5182 -2.3852 -1.6397
    8MOL     C1 2675   5.557   7.236   5.741  0.4056 -0.7589  0.0363
    8MOL     C2 2676   5.585   7.086   5.733 -0.0430  0.3763 -0.3774
    8MOL     O3 2677   5.671   7.180   5.674 -0.1324  0.4561  0.2559
    8MOL     C4 2678   5.529   6.991   5.634 -0.1417  0.0307  0.1811
    8MOL     O5 2679   5.412   7.049   5.579  0.1235 -0.1713 -0.1185
    8MOL     C6 2680   5.364   6.986   5.464 -0.1250  0.7117 -0.3795
    8MOL     C7 2681   5.419   6.873   5.411  0.5683  0.0096 -0.4670
    8MOL     C8 2682   5.354   6.803   5.306  0.3192  0.2643  0.6554
    8MOL     C9 2683   5.232   6.859   5.257  0.6101  0.3650  0.0287
    8MOL    C10 2684   5.191   6.985   5.303  0.0184  0.2095  0.1191
    8MOL    C11 2685   5.249   7.045   5.410  0.0884 -0.4431  0.7785
    8MOL    H12 2686   5.582   7.297   5.827  1.1857  0.1164 -0.8020
    8MOL    H13 2687   5.623   7.040   5.824 -1.8000 -0.1196  0.1200
    8MOL    H14 2688   5.509   6.894   5.680  1.8853  0.1486  1.3879
    8MOL    H15 2689   5.617   6.976   5.571 -0.4811 -1.9183  0.1538
    8MOL    H16 2690   5.514   6.834   5.446  0.8708  2.0594  1.1349
    8MOL    H17 2691   5.400   6.714   5.267 -1.1133  0.2567 -1.0455
    8MOL    H18 2692   5.185   6.808   5.174  1.1284  0.7998 -0.5342
    8MOL    H19 2693   5.102   7.030   5.261  0.1100  1.2041  0.9537
    8MOL    H20 2694   5.478   7.275   5.677 -0.1783 -1.2075  0.4754
    8MOL    C21 2695   5.201   7.172   5.462  0.1960  0.1902  0.4824
    8MOL    C22 2696   5.271   7.305   5.448  0.1849 -0.1988  0.9247
    8MOL    O23 2697   5.157   7.262   5.365 -0.2006 -0.0380  0.3880
    8MOL    C24 2698   5.401   7.324   5.368  0.1732 -0.0804 -0.4068
    8MOL    O25 2699   5.403   7.462   5.325  0.1326  0.1532  0.3920
    8MOL    C26 2700   5.353   7.503   5.204 -0.6780 -0.3863  0.6340
    8MOL    C27 2701   5.287   7.420   5.107 -0.3830  0.0140  0.9055
    8MOL    C28 2702   5.263   7.471   4.973 -0.2170  0.4776  0.1195
    8MOL    C29 2703   5.291   7.606   4.947 -0.1488 -0.1178 -0.1652
    8MOL    C30 2704   5.336   7.697   5.046  1.2217 -0.6212 -0.5530
    8MOL    C31 2705   5.377   7.639   5.172  0.3839  0.2531  0.2866
    8MOL    H32 2706   5.129   7.159   5.543  0.3914 -0.5584  0.5357
    8MOL    H33 2707   5.237   7.394   5.500 -0.0192  1.1285 -1.3775
    8MOL    H34 2708   5.397   7.250   5.288 -2.6155 -0.2379 -0.1714
    8MOL    H35 2709   5.495   7.314   5.422  1.2929  0.3107 -2.2568
    8MOL    H36 2710   5.260   7.316   5.115  0.7934 -0.3892 -0.2209
    8MOL    H37 2711   5.224   7.403   4.898  0.0774 -0.1312  0.5084
    8MOL    H38 2712   5.253   7.651   4.857 -0.2036  3.4685  1.5725
    8MOL    H39 2713   5.340   7.801   5.016 -0.2814  0.3048  2.2809
    8MOL    C40 2714   5.445   7.727   5.273 -0.0237  0.4052  0.5346
    8MOL    C41 2715   5.589   7.724   5.298  0.1146 -0.1256 -0.8476
    8MOL    O42 2716   5.528   7.823   5.211  0.5175 -0.1714 -0.1027
    8MOL    C43 2717   5.675   7.625   5.225  0.2142 -0.1673  0.2666
    8MOL    O44 2718   5.814   7.650   5.254  0.7825 -0.7313  0.4295
    8MOL    C45 2719   5.863   7.605   5.376 -0.0921  0.9749  0.3399
    8MOL    C46 2720   5.784   7.537   5.473  0.2055  0.1906  0.3624
    8MOL    C47 2721   5.844   7.489   5.590  0.3311 -0.6665 -0.2868
    8MOL    C48 2722   5.985   7.516   5.613  0.4713  0.4955  0.2021
    8MOL    C49 2723   6.049   7.594   5.517 -0.5694  0.1064 -0.4977
    8MOL    C50 2724   5.998   7.637   5.394  0.5004  0.1486 -0.5546
    8MOL    H51 2725   5.369   7.779   5.330  2.2887  0.3019  3.8440
    8MOL    H52 2726   5.635   7.759   5.391 -2.3503 -1.6911  1.0383
    8MOL    H53 2727   5.665   7.635   5.117  0.2630  1.7136  0.4196
    8MOL    H54 2728   5.638   7.527   5.252  0.4013  0.3268  2.4034
    8MOL    H55 2729   5.681   7.510   5.456 -0.1995  1.1022  1.3625
    8MOL    H56 2730   5.782   7.441   5.664  2.2320 -1.0480  1.0991
    8MOL    H57 2731   6.021   7.476   5.706 -3.0804  0.4190  1.6146
    8MOL    H58 2732   6.155   7.613   5.529 -1.0174  1.9464  0.6496
    8MOL    C59 2733   6.081   7.709   5.291 -0.0229  0.3034  0.0669
    8MOL    C60 2734   6.106   7.857   5.288 -0.2128  0.0146  0.2611
    8MOL    O61 2735   6.207   7.761   5.335 -0.6815 -0.2467 -0.1379
    8MOL    C62 2736   6.033   7.949   5.385  0.3977  0.4191  0.0436
    8MOL    O63 2737   6.104   7.983   5.499  0.0707 -0.3646  0.7541
    8MOL    C64 2738   6.177   8.099   5.484  0.0747  0.0560  0.1199
    8MOL    C65 2739   6.292   8.105   5.400  0.5226  0.2064  0.1975
    8MOL    C66 2740   6.378   0.048   5.400 -0.2652  0.8948 -0.0982
    8MOL    C67 2741   6.353   0.157   5.484  0.5661  0.0574  0.0237
    8MOL    C68 2742   6.243   0.150   5.572  0.8354  0.1571 -0.1204
    8MOL    C69 2743   6.163   0.034   5.578 -0.5758  0.4718 -0.2240
    8MOL    H70 2744   6.071   7.658   5.196  3.0347 -0.9742  0.3518
    8MOL    H71 2745   6.133   7.902   5.192  0.8897 -0.8674  0.1451
    8MOL    H72 2746   5.940   7.902   5.417 -0.6191  2.6382  0.4239
    8MOL    H73 2747   5.990   8.031   5.328  1.2676 -0.6799 -2.2515
    8MOL    H74 2748   6.319   8.020   5.339  2.1489  0.4290  0.5853
    8MOL    H75 2749   6.476   0.043   5.355  0.4051 -0.7388  1.4789
    8MOL    H76 2750   6.419   0.243   5.489 -0.2385  0.7365 -0.9270
    8MOL    H77 2751   6.235   0.226   5.648  2.4116  1.0001 -0.7662
    8MOL    C78 2752   6.064   0.036   5.690  1.1563  0.4986 -0.5800
    8MOL    C79 2753   6.061   8.095   5.799 -0.5918  0.0969  0.1895
    8MOL    O80 2754   6.111   0.058   5.822  0.8952  0.1027 -0.5383
    8MOL    C81 2755   6.164   7.977   5.796  0.3861  0.3780  0.0624
    8MOL    O82 2756   6.176   7.909   5.928  0.0994 -0.0409  0.0028
    8MOL    C83 2757   6.099   7.797   5.964 -0.2905  0.1446  0.9368
    8MOL    C84 2758   6.007   7.740   5.879  0.2219  0.4469  0.0390
    8MOL    C85 2759   5.921   7.648   5.932  0.5714 -0.2866  0.4392
    8MOL    C86 2760   5.921   7.603   6.068 -0.7790 -0.2641 -0.5627
    8MOL    C87 2761   6.013   7.665   6.155  0.6533  0.2575  0.2313
    8MOL    C88 2762   6.102   7.763   6.104  0.7542 -0.2276 -0.0820
    8MOL    H89 2763   5.987   0.111   5.673  0.2826 -0.4555 -0.9027
    8MOL    H90 2764   5.956   8.071   5.816 -1.0715 -0.0296 -2.6448
    8MOL    H91 2765   6.264   8.017   5.786  0.5671  0.0382  0.5230
    8MOL    H92 2766   6.138   7.908   5.715  2.8783  0.0259 -0.4542
    8MOL    H93 2767   5.978   7.778   5.782 -0.7849  0.1839  0.2241
    8MOL    H94 2768   5.844   7.610   5.866  1.0533 -2.3810  1.0591
    8MOL    H95 2769   5.850   7.529   6.102  0.4000 -1.6839 -1.1436
    8MOL    H96 2770   6.020   7.644   6.261  1.9267 -1.5022 -0.1788
    8MOL    C97 2771   6.206   7.815   6.194  0.2894 -0.3974 -0.4039
    8MOL    C98 2772   6.200   7.966   6.236 -0.4960 -0.3743  0.2728
    8MOL    O99 2773   6.156   7.865   6.322  0.4774 -0.0806  0.4863
    8MOL   C100 2774   6.097   8.070   6.183 -0.0426  0.0345 -0.1061
    8MOL   O101 2775   6.063   8.160   6.283  0.4756  0.5360  0.0340
    8MOL   C102 2776   6.001   0.107   6.238 -0.0102 -0.6141 -0.2621
    8MOL   C103 2777   5.925   0.112   6.115  0.1551 -0.0561 -0.5316
    8MOL   C104 2778   5.860   0.232   6.078 -0.8781 -0.4008 -0.0315
    8MOL   C105 2779   5.869   0.339   6.169 -0.5837 -0.2867  0.2342
    8MOL   C106 2780   5.917   0.321   6.303  0.4297 -0.9272 -0.1550
    8MOL   C107 2781   5.993   0.209   6.329 -0.7220 -0.1150 -0.1993
    8MOL   H108 2782   6.301   7.762   6.189 -0.3992 -1.9831  2.3844
    8MOL   H109 2783   6.292   8.006   6.278 -0.6966 -0.3531  0.6958
    8MOL   H110 2784   6.010   8.015   6.146 -0.6849  2.0018 -1.6347
    8MOL   H111 2785   6.146   8.109   6.094 -0.2389  0.4486 -0.0346
    8MOL   H112 2786   5.923   0.033   6.041 -1.5952 -2.0490  1.5881
    8MOL   H113 2787   5.820   0.248   5.979 -0.5674  1.7755  0.1750
    8MOL   H114 2788   5.839   0.435   6.128  0.0753 -0.6946 -1.2237
    8MOL   H115 2789   5.925   0.410   6.364  1.0326 -0.0339 -1.4803
    8MOL   C116 2790   6.067   0.194   6.460  0.4442 -0.8135 -0.4934
    8MOL   C117 2791   6.216   0.176   6.458  0.1336 -0.0060  0.3967
    8MOL   O118 2792   6.159   0.305   6.485 -0.5255 -0.1080 -0.1781
    8MOL   C119 2793   6.307   0.161   6.338 -0.5811 -0.1308  0.6599
    8MOL   O120 2794   6.423   0.237   6.362 -0.4590  0.5260  0.1413
    8MOL   C121 2795   6.518   0.192   6.448 -0.4097 -0.1345 -0.2438
    8MOL   C122 2796   6.501   0.068   6.520  0.1040 -0.0043  0.4691
    8MOL   C123 2797   6.594   0.032   6.619 -0.3401 -0.2007  0.7514
    8MOL   C124 2798   6.696   0.131   6.652  0.3641  0.9512 -0.0314
    8MOL   C125 2799   6.709   0.249   6.580 -0.2660 -0.0793 -0.1608
    8MOL   C126 2800   6.621   0.282   6.479  0.3765  0.7664 -0.9655
    8MOL   H127 2801   6.002   0.170   6.545  1.4302  0.4443  0.6528
    8MOL   H128 2802   6.252   0.128   6.549 -1.9778 -1.6552  0.4051
    8MOL   H129 2803   6.254   0.204   6.253  0.5920  0.0316 -0.0005
    8MOL   H130 2804   6.313   0.052   6.328 -4.0012 -0.1963 -1.0744
    8MOL   H131 2805   6.423   8.164   6.514 -0.9793  1.1691 -0.0484
    8MOL   H132 2806   6.592   8.105   6.665 -1.8760 -0.1023  0.9317
    8MOL   H133 2807   6.771   0.112   6.727  0.6319  1.4224 -0.1823
    8MOL   H134 2808   6.786   0.321   6.605 -2.0122  1.7110  0.2149
    8MOL   C135 2809   6.663   0.396   6.386  0.0266 -1.0046 -0.0742
    8MOL   C136 2810   6.576   0.526   6.372  0.4993 -0.0384 -0.0201
    8MOL   O137 2811   6.698   0.520   6.454 -0.3870 -0.1804  0.0396
    8MOL   C138 2812   6.444   0.549   6.453  0.0019 -0.1262 -0.0129
    8MOL   O139 2813   6.417   0.687   6.481  0.1780  0.4280  0.0897
    8MOL   C140 2814   6.368   0.768   6.379 -0.5394 -0.9110  0.1018
    8MOL   C141 2815   6.321   0.728   6.250  0.1684  0.4650  0.0119
    8MOL   C142 2816   6.280   0.822   6.153  0.3100  0.4046 -0.7504
    8MOL   C143 2817   6.281   0.957   6.181 -0.0728  0.3458 -0.3130
    8MOL   C144 2818   6.325   1.000   6.306  0.7684 -0.1219  0.0946
    8MOL   C145 2819   6.372   0.906   6.403 -0.6547 -0.5648  0.3944
    8MOL   H146 2820   6.729   0.361   6.308  0.1735 -0.8917 -0.0016
    8MOL   H147 2821   6.578   0.574   6.274 -1.4631  1.1688  0.4895
    8MOL   H148 2822   6.456   0.491   6.545 -0.2330 -2.1083 -1.1926
    8MOL   H149 2823   6.362   0.501   6.399  0.5911 -0.6037 -0.4973
    8MOL   H150 2824   6.319   0.626   6.215  0.4085  0.1840  0.7950
    8MOL   H151 2825   6.229   0.783   6.066  2.1500 -0.8698 -1.2955
    8MOL   H152 2826   6.259   1.031   6.106 -1.3709 -0.1180 -0.4051
    8MOL   H153 2827   6.331   1.103   6.339  0.8525 -0.7121  1.9724
    8MOL   C154 2828   6.426   0.948   6.544  0.1618 -0.3439 -0.2080
    8MOL   C155 2829   6.497   1.081   6.583  0.3149  0.2200 -0.3604
    8MOL   O156 2830   6.353   1.064   6.600 -0.3718 -0.0102 -0.0541
    8MOL   C157 2831   6.533   1.195   6.489  0.8060 -0.2426 -0.3295
    8MOL   O158 2832   6.659   1.252   6.505 -0.2516  0.0968 -0.3435
    8MOL   C159 2833   6.695   1.316   6.624 -0.3007  0.7374  0.6118
    8MOL   C160 2834   6.607   1.338   6.725  0.0450  0.1554 -0.2384
    8MOL   C161 2835   6.637   1.417   6.841 -0.1419  0.7020  0.1127
    8MOL   C162 2836   6.766   1.467   6.855 -0.2925  0.7299 -0.7580
    8MOL   C163 2837   6.859   1.431   6.764  0.5195 -0.2552 -0.2563
    8MOL   C164 2838   6.825   1.367   6.640 -0.0095  0.4375  0.1387
    8MOL   H165 2839   6.418   0.863   6.610 -2.6400  0.7175  0.9149
    8MOL   H166 2840   6.559   1.083   6.673  1.3241  3.3698 -1.0626
    8MOL   H167 2841   6.458   1.274   6.495 -0.3791 -1.3152 -0.8106
    8MOL   H168 2842   6.531   1.157   6.387 -2.8105 -0.1272 -0.3572
    8MOL   H169 2843   6.503   1.311   6.713  0.5997 -1.2067 -2.2093
    8MOL   H170 2844   6.558   1.432   6.913 -0.5475 -2.4577  0.4000
    8MOL   H171 2845   6.792   1.520   6.945 -0.1783 -0.1766 -0.2481
    8MOL   H172 2846   6.959   1.468   6.782  0.1933 -0.6729  2.7698
    8MOL   C173 2847   6.933   1.352   6.540 -0.1806 -0.4782  0.0797
    8MOL   C174 2848   6.956   1.441   6.417  0.0059 -0.3721 -0.5569
    8MOL   O175 2849   7.031   1.460   6.545 -0.6193 -0.2349  0.0793
    8MOL   C176 2850   6.866   1.560   6.384 -0.3142  0.1604 -0.0870
    8MOL   O177 2851   6.937   1.665   6.319 -0.2040  0.1748  0.1572
    8MOL   C178 2852   6.866   1.771   6.272  0.3373  0.2584 -0.1942
    8MOL   C179 2853   6.727   1.771   6.286 -0.0795  0.1322  0.3817
    8MOL   C180 2854   6.648   1.876   6.231  0.0628  0.7791 -0.0512
    8MOL   C181 2855   6.713   1.974   6.159 -0.0834 -0.0062  0.3273
    8MOL   C182 2856   6.856   1.985   6.162  0.2309 -0.1107  0.5617
    8MOL   C183 2857   6.930   1.887   6.221  0.3195 -0.2255 -0.3496
    8MOL   H184 2858   6.963   1.247   6.533 -2.6027 -1.0101 -4.7029
    8MOL   H185 2859   7.003   1.393   6.331 -1.7188  0.0167 -1.7462
    8MOL   H186 2860   6.811   1.597   6.470  1.5507  2.7221  0.0775
    8MOL   H187 2861   6.796   1.526   6.307  0.3507 -1.9268  0.2090
    8MOL   H188 2862   6.673   1.698   6.344  0.5879 -0.2849  0.4899
    8MOL   H189 2863   6.543   1.852   6.239 -0.0068  1.6275  1.9374
    8MOL   H190 2864   6.655   2.055   6.118  0.0534  0.7202  1.5359
    8MOL   H191 2865   6.897   2.075   6.120 -0.8237  0.2056  0.2128
    8MOL   C192 2866   7.082   1.895   6.211 -0.1295 -0.2426  0.2657
    8MOL   C193 2867   7.158   1.872   6.083 -0.5363 -0.0252 -0.5798
    8MOL   O194 2868   7.139   2.005   6.138  0.8975  0.8156 -0.2965
    8MOL   C195 2869   7.090   1.840   5.961  0.2766  0.2587 -0.5046
    8MOL   O196 2870   7.162   1.746   5.872  0.0385  0.0704  0.4228
    8MOL   C197 2871   7.178   1.610   5.910  0.5892 -0.1800  0.3416
    8MOL   C198 2872   7.111   1.554   6.023  0.1194 -0.0639  0.0900
    8MOL   C199 2873   7.132   1.417   6.059 -0.3184  0.4977  0.9295
    8MOL   C200 2874   7.221   1.345   5.981  0.3046 -0.3807 -0.3067
    8MOL   C201 2875   7.293   1.403   5.871  0.3628  0.4987  0.0857
    8MOL   C202 2876   7.269   1.535   5.834 -0.0875  0.7712 -0.0459
    8MOL   H203 2877   7.134   1.875   6.304  1.1224 -0.9128 -0.5602
    8MOL   H204 2878   7.262   1.844   6.103  0.2702  1.9000 -1.9138
    8MOL   H205 2879   7.070   1.934   5.909  0.2063 -0.3376 -1.5681
    8MOL   H206 2880   6.992   1.794   5.976  0.1607 -0.1451 -2.3714
    8MOL   H207 2881   7.039   1.611   6.080  0.5958 -0.0865  0.7218
    8MOL   H208 2882   7.073   1.370   6.137 -1.0967 -1.3284 -0.7288
    8MOL   H209 2883   7.220   1.241   6.009 -1.2013 -0.1758  0.4867
    8MOL   H210 2884   7.342   1.333   5.805 -0.2710 -0.1921  0.3333
    8MOL   C211 2885   7.342   1.594   5.720  0.4606  0.0447 -0.3712
    8MOL   C212 2886   7.469   1.663   5.749  0.1191  0.1107 -0.3118
    8MOL   O213 2887   7.471   1.529   5.696 -0.7193  0.0225 -0.0533
    8MOL   C214 2888   7.538   1.690   5.883  0.5631 -0.2037 -0.0212
    8MOL   O215 2889   7.679   1.711   5.864  0.2649 -0.2295  0.5416
    8MOL   C216 2890   7.767   1.604   5.880 -0.7939 -0.5756  0.1164
    8MOL   C217 2891   7.741   1.471   5.852  0.2477 -0.4118  0.1715
    8MOL   C218 2892   7.836   1.372   5.859 -0.2423  0.1040  0.6625
    8MOL   C219 2893   7.967   1.409   5.901  0.0401  0.2522  0.1571
    8MOL   C220 2894   8.001   1.536   5.949 -0.0897 -0.1057  0.3971
    8MOL   C221 2895   7.900   1.637   5.933  0.8478 -0.1733 -0.0398
    8MOL   H222 2896   7.278   1.619   5.637 -1.6539  1.3367  1.5936
    8MOL   H223 2897   7.498   1.733   5.670  0.6782  0.8121  0.5090
    8MOL   H224 2898   7.525   1.602   5.946 -1.2003 -0.0396 -0.1314
    8MOL   H225 2899   7.485   1.773   5.930  1.2116  1.1424 -1.6211
    8MOL   H226 2900   7.644   1.445   5.811 -0.9105  1.4052  1.6730
    8MOL   H227 2901   7.804   1.273   5.830 -1.4997  0.0086  2.2502
    8MOL   H228 2902   8.045   1.334   5.909 -0.9729 -0.8967 -0.6377
    8MOL   H229 2903   8.093   1.557   6.001  0.6153 -1.5875 -0.2176
    8MOL   C230 2904   7.944   1.777   5.964 -0.2964  0.5153  1.0287
    8MOL   C231 2905   7.882   1.871   6.067  0.2200 -0.0734  0.3638
    8MOL   O232 2906   7.988   1.785   6.097 -0.0551 -0.1002 -0.2847
    8MOL   C233 2907   7.748   1.841   6.141  0.6445  0.2441  0.4716
    8MOL   O234 2908   7.767   1.874   6.276  0.6450  0.4182  0.1171
    8MOL   C235 2909   7.656   1.901   6.352  0.0733  0.0316 -0.0770
    8MOL   C236 2910   7.525   1.859   6.323 -0.6490 -0.1511 -0.1613
    8MOL   C237 2911   7.422   1.893   6.414  0.6275 -0.2959  0.0414
    8MOL   C238 2912   7.437   1.978   6.529 -0.6768  0.2890 -0.0491
    8MOL   C239 2913   7.564   2.029   6.547  0.7264  0.8391 -0.4241
    8MOL   C240 2914   7.675   1.983   6.468 -0.0543 -0.6194  0.3640
    8MOL   H241 2915   8.026   1.803   5.898  0.0359 -0.6908  0.9539
    8MOL   H242 2916   7.917   1.974   6.065  1.4563 -0.4906 -1.5073
    8MOL   H243 2917   7.730   1.735   6.124 -0.7155  0.4927  0.2591
    8MOL   H244 2918   7.663   1.899   6.105  0.2703  0.2173  1.2987
    8MOL   H245 2919   7.498   1.804   6.234 -3.2270  0.3748  0.2452
    8MOL   H246 2920   7.326   1.853   6.386 -0.2710  1.4553  0.5622
    8MOL   H247 2921   7.348   1.996   6.587  0.5949 -2.3621  2.8935
    8MOL   H248 2922   7.576   2.105   6.623 -1.9837  1.5442 -0.6338
    8MOL   C249 2923   7.806   2.035   6.509  0.1458 -0.5809 -0.2120
    8MOL   C250 2924   7.884   2.143   6.432  0.5479  0.0953 -0.5514
    8MOL   O251 2925   7.797   2.175   6.542 -0.2308 -0.6761 -0.4814
    8MOL   C252 2926   7.831   2.184   6.302  0.5771  0.2374 -0.1203
    8MOL   O253 2927   7.860   2.324   6.278 -0.4579 -0.2868 -0.9048
    8MOL   C254 2928   7.794   2.422   6.352 -0.1079  0.9471 -0.0159
    8MOL   C255 2929   7.674   2.404   6.425 -0.0634 -0.2322  0.1634
    8MOL   C256 2930   7.615   2.517   6.488 -0.0908 -0.6612 -1.0433
    8MOL   C257 2931   7.672   2.645   6.470  0.3140 -0.2899  0.0042
    8MOL   C258 2932   7.794   2.661   6.395  0.2490 -0.5520 -0.6525
    8MOL   C259 2933   7.852   2.548   6.329  0.6106 -0.5328  0.3507
    8MOL   H260 2934   7.843   1.975   6.592 -0.5246  2.1243  2.1502
    8MOL   H261 2935   7.987   2.156   6.463  0.0436 -0.1190  1.2823
    8MOL   H262 2936   7.723   2.178   6.297  0.5945  1.8093 -3.6108
    8MOL   H263 2937   7.888   2.134   6.224  1.5197  0.5053  0.3780
    8MOL   H264 2938   7.633   2.306   6.442  1.0713 -0.5375  1.2015
    8MOL   H265 2939   7.529   2.502   6.551  1.0963 -0.1170  0.7393
    8MOL   H266 2940   7.619   2.736   6.496  0.2478  0.0426 -1.2373
    8MOL   H267 2941   7.829   2.763   6.382 -0.6296 -0.5046 -2.7660
    8MOL   C268 2942   7.976   2.564   6.245 -0.5481  0.4015 -0.7107
    8MOL   C269 2943   7.968   2.612   6.098 -0.0859 -0.2473  0.1857
    8MOL   O270 2944   8.004   2.699   6.210  0.2844 -0.2930  0.1488
    8MOL   C271 2945   7.833   2.618   6.035 -0.7747 -0.0702 -0.5256
    8MOL   O272 2946   7.850   2.681   5.902 -0.2632  0.0009 -0.2938
    8MOL   C273 2947   7.879   2.823   5.898  0.5665 -0.8218  0.8763
    8MOL   C274 2948   7.868   2.907   6.010  0.1323 -0.5894  0.0108
    8MOL   C275 2949   7.896   3.045   5.998  0.2315  0.1581  0.0325
    8MOL   C276 2950   7.918   3.107   5.875  0.2603  0.6553 -0.0713
    8MOL   C277 2951   7.920   3.022   5.759 -0.3048 -0.3706  0.3739
    8MOL   C278 2952   7.903   2.883   5.770 -0.1698  0.3797 -0.1190
    8MOL   H279 2953   8.064   2.508   6.277 -0.9419  1.1057  1.7367
    8MOL   H280 2954   8.051   2.591   6.032 -1.3725 -1.2412 -1.1347
    8MOL   H281 2955   7.759   2.674   6.092 -0.0314 -2.6965  3.2239
    8MOL   H282 2956   7.800   2.514   6.037 -0.9221  0.0059  1.7420
    8MOL   H283 2957   7.841   2.874   6.109  0.4619 -2.0532 -0.3752
    8MOL   H284 2958   7.891   3.097   6.093  1.3046  1.5944 -0.6719
    8MOL   H285 2959   7.929   3.214   5.864  0.8321  0.8463  2.0777
    8MOL   H286 2960   7.934   3.081   5.670 -1.2120 -0.7056  0.0092
    8MOL   C287 2961   7.905   2.802   5.649 -0.6842 -0.6005  0.0070
    8MOL   C288 2962   7.798   2.818   5.541  0.3050  0.2928  0.5607
    8MOL   O289 2963   7.924   2.885   5.532  0.0627 -0.1824  0.1770
    8MOL   C290 2964   7.676   2.916   5.559 -0.5227 -0.3213  0.3037
    8MOL   O291 2965   7.672   2.998   5.445  0.2557  0.6360 -0.7483
    8MOL   C292 2966   7.730   3.120   5.461 -0.5899  0.4849 -0.6225
    8MOL   C293 2967   7.684   3.208   5.565  0.0665  0.4572  0.0302
    8MOL   C294 2968   7.724   3.343   5.568  0.3328 -0.2827  0.7635
    8MOL   C295 2969   7.806   3.390   5.463  0.1124  0.4257 -0.4775
    8MOL   C296 2970   7.861   3.305   5.369 -0.0153 -0.3410 -0.6980
    8MOL   C297 2971   7.825   3.170   5.364  0.5175 -0.0431  0.4581
    8MOL   H298 2972   7.972   2.718   5.660  1.8062  1.2654 -0.4236
    8MOL   H299 2973   7.785   2.737   5.469  0.0461  0.1457  0.7719
    8MOL   H300 2974   7.675   2.970   5.653  2.2436 -1.1936  0.8639
    8MOL   H301 2975   7.589   2.851   5.547 -0.1684 -0.6745 -0.3976
    8MOL   H302 2976   7.609   3.171   5.633 -1.0936  0.8455 -1.0167
    8MOL   H303 2977   7.691   3.418   5.638  3.7290  3.3301 -1.2357
    8MOL   H304 2978   7.840   3.493   5.469 -1.2895  0.8538  0.2791
    8MOL   H305 2979   7.930   3.349   5.299  2.5782 -0.6651  1.5573
    8MOL   C306 2980   7.865   3.074   5.258 -1.2534  0.9510 -0.1071
    8MOL   C307 2981   7.818   3.080   5.112  0.3718  0.1247 -0.5947
    8MOL   O308 2982   7.936   3.145   5.154 -0.0858  0.2563 -0.0459
    8MOL   C309 2983   7.704   3.176   5.063  0.2665 -0.7236 -0.1221
    8MOL   O310 2984   7.616   3.105   4.978  0.1998  0.2939 -0.0660
    8MOL   C311 2985   7.520   3.016   5.042  0.2134 -0.6192  0.0375
    8MOL   C312 2986   7.496   3.008   5.185 -0.1490 -0.1370  0.0060
    8MOL   C313 2987   7.406   2.925   5.242  0.1445  0.6767  0.3110
    8MOL   C314 2988   7.320   2.851   5.163 -0.2412 -0.0325  0.1521
    8MOL   C315 2989   7.338   2.854   5.019  0.7703 -0.1568 -0.9677
    8MOL   C316 2990   7.432   2.941   4.957 -0.6559  0.2760 -0.3839
    8MOL   H317 2991   7.920   2.987   5.293 -0.1074  1.3921 -0.7847
    8MOL   H318 2992   7.849   3.004   5.042  1.6123  1.5212 -1.5935
    8MOL   H319 2993   7.749   3.262   5.015  0.2220  0.1921  1.4433
    8MOL   H320 2994   7.658   3.223   5.150 -3.0242  2.2505 -3.3309
    8MOL   H321 2995   7.568   3.062   5.246  0.0451 -1.3023  0.8325
    8MOL   H322 2996   7.395   2.926   5.350  0.4922  0.5928  0.3470
    8MOL   H323 2997   7.246   2.789   5.211 -0.0234  0.9756  1.8311
    8MOL   H324 2998   7.269   2.812   4.948 -2.0853  2.3266  0.2106
    8MOL   C325 2999   7.435   2.958   4.806  0.0589  0.4772 -0.0413
    8MOL   C326 3000   7.515   2.867   4.712  0.1266 -0.2185  0.4458
    8MOL   O327 3001   7.374   2.853   4.737  0.2813 -0.7148 -0.5421
    8MOL   C328 3002   7.594   2.747   4.749  0.2810  0.3458 -0.4536
    8MOL   O329 3003   7.578   2.645   4.646  0.0637 -0.1781 -0.1218
    8MOL   C330 3004   7.635   2.659   4.524 -0.2206 -0.1343  0.7491
    8MOL   C331 3005   7.748   2.742   4.494  0.0378  0.1599  0.5005
    8MOL   C332 3006   7.814   2.743   4.366 -0.4199  0.0785  0.0770
    8MOL   C333 3007   7.761   2.659   4.268  0.7357 -0.3742  0.1189
    8MOL   C334 3008   7.659   2.568   4.299 -0.2177  0.5031  0.9762
    8MOL   C335 3009   7.594   2.568   4.424  0.6959 -0.2051  0.3280
    8MOL   H336 3010   7.394   3.053   4.771  1.1332  1.1346  0.4166
    8MOL   H337 3011   7.528   2.899   4.608 -1.8037  1.2796  0.6341
    8MOL   H338 3012   7.550   2.710   4.842  0.4674  1.6876  0.1745
    8MOL   H339 3013   7.700   2.768   4.765 -0.0709 -0.4136  3.4991
    8MOL   H340 3014   7.797   2.795   4.574  0.6375 -0.2503  0.4101
    8MOL   H341 3015   7.897   2.811   4.354  0.4120 -0.9588 -0.1830
    8MOL   H342 3016   7.796   2.664   4.166 -0.6632  2.3908 -0.2762
    8MOL   H343 3017   7.625   2.501   4.221 -0.3337  1.2032  0.4224
    8MOL   C344 3018   7.487   2.462   4.440 -0.1012 -0.3175 -0.2667
    8MOL   C345 3019   7.346   2.501   4.460 -0.3295 -0.6644  0.1218
    8MOL   O346 3020   7.394   2.445   4.338  0.0704  0.0620  0.0515
    8MOL   C347 3021   7.289   2.640   4.460 -0.0313 -0.4176 -0.0472
    8MOL   O348 3022   7.158   2.626   4.414 -0.2770 -0.1172  0.0997
    8MOL   C349 3023   7.067   2.727   4.412  0.8359 -0.4613  0.4681
    8MOL   C350 3024   7.106   2.861   4.445  0.4567 -0.2685  0.5719
    8MOL   C351 3025   7.016   2.967   4.434  0.0668 -0.2081  0.4319
    8MOL   C352 3026   6.880   2.947   4.386 -0.0408  0.4841 -0.0526
    8MOL   C353 3027   6.841   2.812   4.365 -0.2922 -0.5265 -0.3023
    8MOL   C354 3028   6.933   2.700   4.369  0.2952  0.3778  0.2578
    8MOL   H355 3029   7.524   2.370   4.484  0.5008 -0.0553 -0.2219
    8MOL   H356 3030   7.282   2.434   4.517 -1.5137  1.2386  1.0932
    8MOL   H357 3031   7.352   2.691   4.387  0.8392 -0.2997  0.7790
    8MOL   H358 3032   7.304   2.678   4.561  2.9482 -0.4447 -0.4417
    8MOL   H359 3033   7.212   2.881   4.456  0.3077  0.7403  0.2271
    8MOL   H360 3034   7.049   3.068   4.453  1.7681 -0.4729 -1.0461
    8MOL   H361 3035   6.806   3.026   4.380 -0.8160 -0.1807  0.6049
    8MOL   H362 3036   6.739   2.785   4.339 -0.3978 -0.6860  0.2774
    8MOL   C363 3037   6.883   2.560   4.336 -0.0823 -0.3871  0.2270
    8MOL   C364 3038   6.825   2.472   4.441 -0.8626  0.0365 -0.0357
    8MOL   O365 3039   6.743   2.539   4.350 -0.4523 -0.3176  0.0195
    8MOL   C366 3040   6.798   2.512   4.583 -0.0544 -0.6147  0.0784
    8MOL   O367 3041   6.697   2.434   4.641  0.3943  0.0435  0.1442
    8MOL   C368 3042   6.640   2.474   4.758 -0.1662  0.3846 -1.1074
    8MOL   C369 3043   6.513   2.420   4.794  0.2989  0.2479  0.6195
    8MOL   C370 3044   6.438   2.476   4.902 -0.3243 -0.2423 -0.2949
    8MOL   C371 3045   6.491   2.582   4.979 -0.0441 -0.6305 -0.3854
    8MOL   C372 3046   6.619   2.628   4.946 -0.5618  0.1750  0.3940
    8MOL   C373 3047   6.698   2.576   4.840  0.6875  0.1521 -0.2354
    8MOL   H374 3048   6.931   2.529   4.243 -1.7804  0.3710 -0.9265
    8MOL   H375 3049   6.838   2.366   4.420  2.6328  0.1542  1.3044
    8MOL   H376 3050   6.778   2.620   4.584 -0.9157 -0.7654  0.1536
    8MOL   H377 3051   6.894   2.490   4.629  1.1350  1.1226 -1.4936
    8MOL   H378 3052   6.471   2.354   4.720  0.5111  0.7694  0.0312
    8MOL   H379 3053   6.338   2.441   4.921  0.1873 -0.1026  3.0013
    8MOL   H380 3054   6.438   2.640   5.054 -0.6356 -2.1984  0.4324
    8MOL   H381 3055   6.655   2.719   4.992 -0.3622 -0.6007  1.8090
    8MOL   H382 3056   6.793   2.617   4.810  1.1459 -1.4847 -1.1016
    9MOL     C1 3057   1.683   0.580   4.522  0.2395 -0.1105 -0.6714
    9MOL     C2 3058   1.749   0.492   4.625 -0.0669  0.0562 -0.1056
    9MOL     O3 3059   1.753   0.639   4.635 -0.2070  0.6363  0.0584
    9MOL     C4 3060   1.888   0.417   4.616  0.0411 -0.4303 -0.2743
    9MOL     O5 3061   1.924   0.353   4.730  0.7395 -0.2008 -0.0264
    9MOL     C6 3062   1.968   0.417   4.851  0.2209  0.5580  0.2786
    9MOL     C7 3063   1.992   0.556   4.870  0.2540  0.3353 -0.0285
    9MOL     C8 3064   2.050   0.601   4.985  0.2184 -0.0019 -0.0938
    9MOL     C9 3065   2.073   0.513   5.094 -0.2495 -0.0398 -0.0407
    9MOL    C10 3066   2.050   0.373   5.076 -0.1447 -0.4758  0.1678
    9MOL    C11 3067   1.995   0.330   4.960 -0.0090  0.4742 -0.3265
    9MOL    H12 3068   1.575   0.590   4.525  0.2729  0.0938 -0.0291
    9MOL    H13 3069   1.663   0.444   4.671 -1.1431 -1.2884 -3.3726
    9MOL    H14 3070   1.971   0.485   4.595 -1.5355  1.2423 -1.3408
    9MOL    H15 3071   1.878   0.344   4.535  0.3310 -0.2977 -0.4283
    9MOL    H16 3072   1.977   0.628   4.792  0.6113  1.9884  1.3975
    9MOL    H17 3073   2.063   0.707   5.002 -0.8318  0.4271 -1.8397
    9MOL    H18 3074   2.113   0.558   5.184  1.3494  0.8115 -1.1486
    9MOL    H19 3075   2.073   0.302   5.154  1.4000 -0.6937 -0.4744
    9MOL    H20 3076   1.729   0.588   4.424  2.4400  0.6474  0.3737
    9MOL    C21 3077   1.970   0.180   4.959  0.8759  0.4506  0.5049
    9MOL    C22 3078   2.080   0.088   4.904  0.5588  0.7605  0.7534
    9MOL    O23 3079   2.061   0.106   5.041  0.2598  0.2628  0.2666
    9MOL    C24 3080   2.215   0.130   4.838 -0.1114  0.1590  0.6065
    9MOL    O25 3081   2.318   0.030   4.866  0.1257  0.0737  0.0106
    9MOL    C26 3082   2.371   0.019   4.995  0.2504 -0.8591  0.7374
    9MOL    C27 3083   2.400   0.139   5.071  0.3648 -0.3441  0.0500
    9MOL    C28 3084   2.447   0.128   5.204  0.1289 -0.4423  0.4815
    9MOL    C29 3085   2.464   0.007   5.260  0.1191  0.0498  0.0503
    9MOL    C30 3086   2.417   8.061   5.194 -0.8497 -0.5299 -0.7716
    9MOL    C31 3087   2.383   8.067   5.060 -0.8026  0.3006  1.2035
    9MOL    H32 3088   1.873   0.142   4.992  1.2260 -1.4150 -0.5860
    9MOL    H33 3089   2.043   8.166   4.861 -0.9439  1.0447  1.4290
    9MOL    H34 3090   2.249   0.223   4.884  1.6306 -0.1906  0.0683
    9MOL    H35 3091   2.204   0.149   4.732  0.7817 -1.4651  0.1994
    9MOL    H36 3092   2.400   0.235   5.022  1.5873  0.9257  2.5124
    9MOL    H37 3093   2.477   0.216   5.258 -0.6216  0.1221 -0.0198
    9MOL    H38 3094   2.515   8.164   5.354 -0.4221 -2.2702  0.0378
    9MOL    H39 3095   2.424   7.965   5.244 -1.9015  0.2997  1.0201
    9MOL    C40 3096   2.360   7.945   4.982  0.0575  0.0922  0.6078
    9MOL    C41 3097   2.468   7.874   4.893 -0.6739  0.5905 -0.0760
    9MOL    O42 3098   2.435   7.828   5.027  0.5312 -0.1782  0.1830
    9MOL    C43 3099   2.610   7.918   4.889 -0.1133  0.2037  0.1769
    9MOL    O44 3100   2.682   7.801   4.860  0.2022  0.0795 -0.0557
    9MOL    C45 3101   2.813   7.805   4.912  0.2384 -0.1634  0.3481
    9MOL    C46 3102   2.902   7.893   4.860  0.1538 -0.1263  0.4288
    9MOL    C47 3103   3.029   7.904   4.917  0.2573 -0.1931 -0.1663
    9MOL    C48 3104   3.060   7.833   5.033  0.4693 -0.1113  0.3779
    9MOL    C49 3105   2.966   7.748   5.089  0.1401 -0.2500  0.0227
    9MOL    C50 3106   2.838   7.736   5.030  0.0243  0.1846  1.0598
    9MOL    H51 3107   2.253   7.924   4.977 -0.0590  0.2667  2.1607
    9MOL    H52 3108   2.435   7.809   4.812 -0.5411  1.2571 -0.6673
    9MOL    H53 3109   2.639   7.983   4.971  0.9290 -1.3681  1.0715
    9MOL    H54 3110   2.614   7.981   4.799  0.9552 -2.2486 -1.5584
    9MOL    H55 3111   2.882   7.951   4.771  4.3039 -1.4681 -1.5296
    9MOL    H56 3112   3.101   7.965   4.867  1.3227 -0.7897  0.6183
    9MOL    H57 3113   3.155   7.854   5.080  0.0077 -0.1503  1.3325
    9MOL    H58 3114   2.986   7.698   5.183  0.5892  0.9843  0.6032
    9MOL    C59 3115   2.736   7.642   5.088  0.2715 -0.1148  0.5359
    9MOL    C60 3116   2.709   7.506   5.039  0.7032  0.6697  0.0872
    9MOL    O61 3117   2.784   7.530   5.156 -0.3510  0.0017 -0.0925
    9MOL    C62 3118   2.790   7.443   4.928  0.1305  0.7751 -0.0097
    9MOL    O63 3119   2.719   7.316   4.897 -0.5171 -0.3639 -0.2945
    9MOL    C64 3120   2.739   7.256   4.780 -0.3711  0.4335  0.0809
    9MOL    C65 3121   2.857   7.259   4.707 -0.4524  0.0316 -0.8799
    9MOL    C66 3122   2.860   7.218   4.576  0.1622 -0.0263  0.1956
    9MOL    C67 3123   2.750   7.154   4.518  0.5614 -0.1448 -0.3134
    9MOL    C68 3124   2.633   7.145   4.589 -0.2220  0.5285 -0.3710
    9MOL    C69 3125   2.623   7.202   4.721 -0.1615 -0.1219  0.7999
    9MOL    H70 3126   2.653   7.695   5.134 -0.8990 -0.2023 -1.4220
    9MOL    H71 3127   2.612   7.459   5.054  0.1264  1.3825 -1.3020
    9MOL    H72 3128   2.895   7.430   4.956 -0.1376 -0.6491  0.3533
    9MOL    H73 3129   2.797   7.503   4.837  2.0932 -0.2492 -0.5506
    9MOL    H74 3130   2.948   7.304   4.743 -0.0326  0.0455 -1.9378
    9MOL    H75 3131   2.945   7.224   4.509 -0.1314  0.5142 -0.1255
    9MOL    H76 3132   2.767   7.115   4.419  2.8785 -0.9068  0.3353
    9MOL    H77 3133   2.546   7.094   4.549  0.2691 -0.6166  0.0226
    9MOL    C78 3134   2.489   7.210   4.788  0.1543  0.3414 -0.1694
    9MOL    C79 3135   2.413   7.337   4.795  0.0339 -0.4192 -0.3910
    9MOL    O80 3136   2.382   7.228   4.697  0.6292  0.7382 -0.6446
    9MOL    C81 3137   2.459   7.464   4.730  0.2790 -0.6789 -0.4124
    9MOL    O82 3138   2.355   7.513   4.652 -0.0913 -0.1308 -0.3630
    9MOL    C83 3139   2.256   7.597   4.709 -0.8170  0.1908  0.7017
    9MOL    C84 3140   2.228   7.617   4.845  0.3502 -0.2504 -0.1518
    9MOL    C85 3141   2.125   7.709   4.885  0.1697  0.1285  0.8378
    9MOL    C86 3142   2.035   7.760   4.786 -0.5765  0.2460 -0.4483
    9MOL    C87 3143   2.062   7.738   4.652 -0.1102  0.0436  0.0039
    9MOL    C88 3144   2.170   7.655   4.610  0.4381  0.1777 -0.4071
    9MOL    H89 3145   2.470   7.132   4.861 -0.9593  0.6659 -0.0894
    9MOL    H90 3146   2.340   7.345   4.875  0.7841 -2.1104  0.4835
    9MOL    H91 3147   2.547   7.451   4.666  2.7357 -0.7356  2.8480
    9MOL    H92 3148   2.484   7.542   4.802 -0.3002 -0.2625 -0.6559
    9MOL    H93 3149   2.299   7.587   4.921  1.8166 -0.4553 -1.5801
    9MOL    H94 3150   2.114   7.733   4.989 -0.3013  1.0678  0.5716
    9MOL    H95 3151   1.946   7.816   4.814  0.7847  1.4189  1.6543
    9MOL    H96 3152   2.001   7.783   4.576  0.3264  1.0713  0.2457
    9MOL    C97 3153   2.198   7.638   4.459 -0.1058 -0.2689 -0.1879
    9MOL    C98 3154   2.117   7.543   4.366  0.4372 -0.6027  0.3684
    9MOL    O99 3155   2.086   7.682   4.381  0.3796  0.2943  0.2856
    9MOL   C100 3156   2.027   7.445   4.426  0.0425  0.2114  0.1217
    9MOL   O101 3157   1.937   7.379   4.329 -0.2785  0.0414  0.0053
    9MOL   C102 3158   1.872   7.260   4.356 -0.3789 -0.0588 -0.3498
    9MOL   C103 3159   1.868   7.192   4.473 -0.2648 -0.6682 -0.1848
    9MOL   C104 3160   1.810   7.063   4.486 -0.2591 -0.8095  0.0367
    9MOL   C105 3161   1.744   7.001   4.382 -0.2423 -0.4194  0.2873
    9MOL   C106 3162   1.743   7.072   4.259 -0.4986 -0.3166  0.4471
    9MOL   C107 3163   1.808   7.197   4.243  0.0817 -0.2376 -0.5949
    9MOL   H108 3164   2.288   7.674   4.412 -0.8322  2.0299  0.1372
    9MOL   H109 3165   2.161   7.527   4.268 -0.3917 -3.6191  0.4506
    9MOL   H110 3166   1.966   7.497   4.500  0.4613  1.8590 -0.6721
    9MOL   H111 3167   2.070   7.364   4.485 -0.7042 -1.4924 -1.6259
    9MOL   H112 3168   1.912   7.227   4.565 -2.5511  1.0000  0.3164
    9MOL   H113 3169   1.810   7.016   4.583 -2.9367 -3.4087 -1.1469
    9MOL   H114 3170   1.703   6.901   4.386 -0.6774 -0.2032  1.2443
    9MOL   H115 3171   1.689   7.020   4.181 -0.4471 -0.2472  0.3647
    9MOL   C116 3172   1.808   7.268   4.114  0.2086  0.0598 -0.3388
    9MOL   C117 3173   1.894   7.226   3.992 -0.1141  0.0238 -0.2128
    9MOL   O118 3174   1.757   7.186   4.009  0.2597 -0.2230 -0.3409
    9MOL   C119 3175   2.000   7.119   4.006  0.4207  0.1023  0.5079
    9MOL   O120 3176   2.082   7.141   4.125 -0.4842 -0.0365  0.5411
    9MOL   C121 3177   2.186   7.230   4.122  0.2144  0.5303  0.1454
    9MOL   C122 3178   2.209   7.324   4.015 -0.4206  0.3112 -0.4964
    9MOL   C123 3179   2.304   7.424   4.035  0.1091 -0.0932  1.0777
    9MOL   C124 3180   2.377   7.433   4.156 -0.3794 -0.3890 -0.6872
    9MOL   C125 3181   2.356   7.340   4.258  0.2342 -0.2062 -0.5841
    9MOL   C126 3182   2.258   7.240   4.242  0.0059  0.1693 -0.1613
    9MOL   H127 3183   1.758   7.365   4.117 -1.0521 -0.6091  2.0017
    9MOL   H128 3184   1.913   7.297   3.912 -0.4308 -1.6354 -1.7953
    9MOL   H129 3185   2.074   7.122   3.925  0.8757  3.9129  0.9461
    9MOL   H130 3186   1.956   7.021   4.020 -0.6808  0.6881  1.2611
    9MOL   H131 3187   2.156   7.331   3.920 -0.1954 -2.5181 -0.8827
    9MOL   H132 3188   2.322   7.496   3.957 -1.0000 -1.7072 -0.7062
    9MOL   H133 3189   2.456   7.507   4.156  0.8887 -1.6708  1.8845
    9MOL   H134 3190   2.405   7.342   4.354 -2.6949 -2.2426  1.0053
    9MOL   C135 3191   2.244   7.145   4.362 -0.5210  0.6180  0.6406
    9MOL   C136 3192   2.265   6.991   4.355 -0.4043  0.5542  0.5764
    9MOL   O137 3193   2.370   7.082   4.381  0.7055  0.0359  0.0515
    9MOL   C138 3194   2.275   6.913   4.224  0.1494 -0.3960  0.1076
    9MOL   O139 3195   2.371   6.809   4.232 -0.0675 -0.4102 -0.0398
    9MOL   C140 3196   2.384   6.720   4.128  0.1711 -0.3440  0.2373
    9MOL   C141 3197   2.295   6.723   4.014  0.0361  0.8452 -0.1145
    9MOL   C142 3198   2.322   6.634   3.904 -0.3456  0.3763 -0.0459
    9MOL   C143 3199   2.424   6.538   3.909 -0.4580 -0.5922 -0.4086
    9MOL   C144 3200   2.498   6.526   4.028  0.9025 -0.5152 -0.1374
    9MOL   C145 3201   2.479   6.619   4.136 -0.2317  0.4564  0.4977
    9MOL   H146 3202   2.220   7.189   4.458  1.1922 -0.8698  1.7904
    9MOL   H147 3203   2.225   6.941   4.443 -0.2438 -0.3623  0.1305
    9MOL   H148 3204   2.301   6.976   4.139  1.2036  1.0945  1.5013
    9MOL   H149 3205   2.179   6.870   4.197  0.9579 -2.6127  0.6709
    9MOL   H150 3206   2.213   6.792   3.995 -0.9994  0.8047  3.7516
    9MOL   H151 3207   2.253   6.636   3.821 -0.9233  1.1074  0.4343
    9MOL   H152 3208   2.449   6.480   3.821  1.0866 -1.2386  0.4236
    9MOL   H153 3209   2.581   6.457   4.028  1.3846  0.0629  1.0793
    9MOL   C154 3210   2.576   6.617   4.243 -0.1791  0.0122 -0.5775
    9MOL   C155 3211   2.551   6.549   4.373  0.0844 -0.2999  0.0458
    9MOL   O156 3212   2.615   6.478   4.273 -0.1833 -0.0963 -0.3952
    9MOL   C157 3213   2.422   6.487   4.429 -0.7048 -0.2765 -0.3552
    9MOL   O158 3214   2.419   6.477   4.574 -0.2996  0.0080 -0.0237
    9MOL   C159 3215   2.423   6.589   4.654 -1.1271  0.5548  0.0066
    9MOL   C160 3216   2.439   6.720   4.605  0.2115  0.2578 -0.1002
    9MOL   C161 3217   2.452   6.827   4.703 -0.0631  0.2191  0.2321
    9MOL   C162 3218   2.439   6.799   4.842 -0.2674 -0.3451  0.3707
    9MOL   C163 3219   2.423   6.667   4.884  0.4680  0.6319  0.3679
    9MOL   C164 3220   2.415   6.556   4.793 -0.3256  0.1537  0.3479
    9MOL   H165 3221   2.666   6.678   4.231  0.3277 -0.7996 -1.0128
    9MOL   H166 3222   2.627   6.568   4.449 -0.0846 -1.4344  0.5052
    9MOL   H167 3223   2.393   6.391   4.388 -1.3663  0.3326 -1.3454
    9MOL   H168 3224   2.343   6.547   4.383  0.1440  1.2565  0.1277
    9MOL   H169 3225   2.442   6.732   4.497  1.7003  3.2393  0.2482
    9MOL   H170 3226   2.468   6.928   4.670 -0.6732  0.2587  0.0412
    9MOL   H171 3227   2.446   6.879   4.914 -0.0923 -1.2051  1.3116
    9MOL   H172 3228   2.420   6.647   4.990 -0.2031 -2.3524 -0.1708
    9MOL   C173 3229   2.380   6.417   4.841  0.2848 -0.6506  0.5212
    9MOL   C174 3230   2.479   6.326   4.901 -0.5804 -0.0750  0.7511
    9MOL   O175 3231   2.389   6.399   4.984 -0.3605 -0.1606 -0.2954
    9MOL   C176 3232   2.628   6.356   4.911 -0.2361 -0.0455  0.1131
    9MOL   O177 3233   2.676   6.277   5.020  0.1353  0.2728 -0.3798
    9MOL   C178 3234   2.809   6.240   5.034  0.7042  0.7894  0.1127
    9MOL   C179 3235   2.905   6.319   4.971 -0.1013  0.6276  0.1413
    9MOL   C180 3236   3.038   6.275   4.973 -0.2604 -0.4617 -0.3738
    9MOL   C181 3237   3.071   6.150   5.026  0.2599 -0.3651 -0.0070
    9MOL   C182 3238   2.975   6.074   5.095  0.1592  0.2558 -0.2583
    9MOL   C183 3239   2.839   6.114   5.089 -0.0436 -0.0354  0.1393
    9MOL   H184 3240   2.280   6.379   4.817 -0.4014  1.6868 -0.4214
    9MOL   H185 3241   2.452   6.221   4.909  1.4002 -0.6378  0.0822
    9MOL   H186 3242   2.650   6.463   4.919  0.1487 -0.0641 -0.5986
    9MOL   H187 3243   2.663   6.328   4.811 -0.2440 -0.0949  0.1248
    9MOL   H188 3244   2.877   6.418   4.937 -1.3328 -0.5894 -2.5119
    9MOL   H189 3245   3.112   6.336   4.925  0.2496  0.9519  2.1280
    9MOL   H190 3246   3.170   6.107   5.019 -0.5677 -2.3653  0.2532
    9MOL   H191 3247   3.011   5.983   5.139  1.7936  0.8738 -0.2832
    9MOL   C192 3248   2.738   6.032   5.163 -0.5738 -0.0939  0.0538
    9MOL   C193 3249   2.686   5.896   5.118  0.3780 -0.4822 -0.0115
    9MOL   O194 3250   2.796   5.904   5.212  0.0653  0.1490  0.4167
    9MOL   C195 3251   2.715   5.813   4.996  0.5448  0.1696 -0.7072
    9MOL   O196 3252   2.722   5.671   5.034 -0.1474  0.0615 -0.1950
    9MOL   C197 3253   2.764   5.585   4.935  0.5316  0.5870 -0.5075
    9MOL   C198 3254   2.781   5.616   4.798 -0.4106  0.5512 -0.3249
    9MOL   C199 3255   2.840   5.521   4.713 -0.9536  0.4518  0.0868
    9MOL   C200 3256   2.871   5.392   4.764  0.1203  0.4735  0.4920
    9MOL   C201 3257   2.840   5.359   4.898  0.6820 -0.2095 -0.3331
    9MOL   C202 3258   2.789   5.456   4.989 -1.0244  0.4520  0.1356
    9MOL   H203 3259   2.678   6.090   5.232  0.1990  1.5148 -0.6148
    9MOL   H204 3260   2.590   5.873   5.165 -0.3977 -0.1689 -1.4199
    9MOL   H205 3261   2.807   5.854   4.954  1.3377 -1.8479 -0.9761
    9MOL   H206 3262   2.642   5.840   4.919 -1.6591  0.2658  1.3690
    9MOL   H207 3263   2.756   5.715   4.764 -2.3210  0.8441  1.7876
    9MOL   H208 3264   2.855   5.539   4.607 -0.1900  0.4287  0.1934
    9MOL   H209 3265   2.914   5.326   4.691 -0.6706  1.8950 -1.2920
    9MOL   H210 3266   2.855   5.263   4.946 -0.0869  0.4206  1.1975
    9MOL   C211 3267   2.762   5.431   5.135  0.4748  0.2029 -0.5735
    9MOL   C212 3268   2.632   5.418   5.205  0.4034 -0.0356 -0.7716
    9MOL   O213 3269   2.705   5.302   5.167 -0.1004  0.0610  0.3150
    9MOL   C214 3270   2.500   5.438   5.128  0.7746 -0.1686  0.4906
    9MOL   O215 3271   2.390   5.386   5.200 -0.2886 -0.5746  0.6132
    9MOL   C216 3272   2.375   5.249   5.213 -0.0549 -0.4944 -1.1975
    9MOL   C217 3273   2.456   5.149   5.150 -0.4049  0.2104 -0.1568
    9MOL   C218 3274   2.434   5.019   5.170 -0.3747  0.5616  0.1524
    9MOL   C219 3275   2.338   4.984   5.266  0.4604 -0.1666 -0.6531
    9MOL   C220 3276   2.257   5.074   5.333 -0.0442 -0.5217 -0.3495
    9MOL   C221 3277   2.271   5.213   5.299  0.5735 -0.4362 -0.4975
    9MOL   H222 3278   2.852   5.462   5.189  0.0072 -0.1812  0.4355
    9MOL   H223 3279   2.617   5.408   5.313  1.4096  1.8398 -0.4385
    9MOL   H224 3280   2.509   5.393   5.029  0.5018  0.9948 -0.0715
    9MOL   H225 3281   2.481   5.545   5.118 -1.2615 -0.5407  0.2545
    9MOL   H226 3282   2.539   5.174   5.086  0.7606 -0.6721  0.9884
    9MOL   H227 3283   2.499   4.938   5.139  1.4568  1.9047  0.4384
    9MOL   H228 3284   2.324   4.880   5.293 -1.2156  0.1476 -0.2650
    9MOL   H229 3285   2.188   5.044   5.411 -0.5723 -2.0828 -1.3905
    9MOL   C230 3286   2.178   5.309   5.360  0.9257 -0.7810  0.3211
    9MOL   C231 3287   2.063   5.368   5.272 -0.2089  0.4560 -0.2892
    9MOL   O232 3288   2.039   5.266   5.369 -0.1845 -0.1428 -0.4829
    9MOL   C233 3289   2.032   5.322   5.125 -0.9166 -0.3506 -0.4680
    9MOL   O234 3290   1.888   5.339   5.114 -0.1043 -0.6165 -0.6752
    9MOL   C235 3291   1.836   5.313   4.992 -0.6644 -0.6483  0.7604
    9MOL   C236 3292   1.893   5.236   4.884 -0.5838 -0.3561  0.1693
    9MOL   C237 3293   1.838   5.234   4.761 -0.1148 -0.4149 -0.2809
    9MOL   C238 3294   1.713   5.293   4.737  0.6994  0.1462 -0.0108
    9MOL   C239 3295   1.646   5.354   4.841  0.3031  0.5957 -0.3088
    9MOL   C240 3296   1.710   5.368   4.968  0.5524  1.1176 -0.4718
    9MOL   H241 3297   2.230   5.382   5.421  3.8723 -2.1567 -0.4376
    9MOL   H242 3298   2.039   5.470   5.301 -1.7789 -0.3929  1.4481
    9MOL   H243 3299   2.075   5.223   5.107  1.1654  0.8147 -2.1099
    9MOL   H244 3300   2.082   5.390   5.056 -0.4876 -0.4502 -0.2540
    9MOL   H245 3301   1.977   5.171   4.903  0.7413  1.9751  2.7228
    9MOL   H246 3302   1.884   5.166   4.691  0.1122  0.4341 -0.9699
    9MOL   H247 3303   1.674   5.289   4.636 -0.8444 -0.1325  0.5725
    9MOL   H248 3304   1.551   5.403   4.826 -0.5332 -1.4595 -1.9408
    9MOL   C249 3305   1.642   5.438   5.077  0.2612 -0.1705  0.2624
    9MOL   C250 3306   1.678   5.572   5.129 -0.4325  0.0184 -0.3972
    9MOL   O251 3307   1.595   5.563   5.019  0.4574  0.0883  0.5200
    9MOL   C252 3308   1.800   5.656   5.104  0.2920 -0.0341  0.6340
    9MOL   O253 3309   1.752   5.793   5.126 -0.3429 -0.1673  0.9461
    9MOL   C254 3310   1.789   5.893   5.039  0.5686 -0.4683 -0.4169
    9MOL   C255 3311   1.810   5.871   4.902 -0.4356 -0.1359 -0.2475
    9MOL   C256 3312   1.829   5.982   4.818 -0.4363 -1.0197 -0.4738
    9MOL   C257 3313   1.831   6.112   4.867 -0.2210  0.4101 -0.4634
    9MOL   C258 3314   1.817   6.136   5.000  0.1567 -0.3667  0.0506
    9MOL   C259 3315   1.797   6.026   5.087  0.2105 -0.1375 -0.0078
    9MOL   H260 3316   1.551   5.392   5.116  1.6350 -1.7399  1.7115
    9MOL   H261 3317   1.621   5.600   5.217 -0.8025 -2.8287  0.3117
    9MOL   H262 3318   1.850   5.632   5.011  0.1820  1.8622  0.0701
    9MOL   H263 3319   1.877   5.640   5.180  1.5013 -0.8222 -0.7465
    9MOL   H264 3320   1.807   5.774   4.855  0.3277  0.3836 -1.3842
    9MOL   H265 3321   1.859   5.964   4.715  0.6512  1.0841 -0.5381
    9MOL   H266 3322   1.853   6.196   4.804 -1.2083  1.3160  0.3727
    9MOL   H267 3323   1.824   6.233   5.046 -1.5055 -0.5360  0.7304
    9MOL   C268 3324   1.771   6.064   5.231 -0.2066  0.3269 -0.1689
    9MOL   C269 3325   1.870   6.037   5.338  0.2438  0.4038 -0.2026
    9MOL   O270 3326   1.861   6.166   5.282  0.1251 -0.1138  0.4393
    9MOL   C271 3327   1.998   5.957   5.313 -0.3330  0.0931  0.3672
    9MOL   O272 3328   2.106   6.016   5.381 -0.1132 -0.2174 -0.4671
    9MOL   C273 3329   2.225   5.946   5.379 -0.4405  0.0053 -0.2473
    9MOL   C274 3330   2.238   5.822   5.315  0.0721  0.3180  0.0462
    9MOL   C275 3331   2.357   5.754   5.313 -0.2343 -0.1747 -0.4068
    9MOL   C276 3332   2.473   5.812   5.374 -0.9333  0.4043  0.2373
    9MOL   C277 3333   2.461   5.936   5.445  0.0299 -0.3070  0.5036
    9MOL   C278 3334   2.338   6.005   5.443  0.1677  0.3612 -0.1479
    9MOL   H279 3335   1.665   6.080   5.250 -0.2587 -0.3657  0.1305
    9MOL   H280 3336   1.837   6.030   5.441 -1.4318  4.2689 -0.4031
    9MOL   H281 3337   2.018   5.962   5.206 -0.8339 -0.0573  0.2656
    9MOL   H282 3338   1.985   5.858   5.358 -2.5682 -0.0771 -0.5857
    9MOL   H283 3339   2.151   5.767   5.280  2.2325 -2.9058 -0.5216
    9MOL   H284 3340   2.362   5.651   5.283  1.2838 -0.0041 -0.7686
    9MOL   H285 3341   2.566   5.758   5.364 -0.7885  1.0143 -2.0647
    9MOL   H286 3342   2.550   5.979   5.489  1.6764 -0.8163 -2.2331
    9MOL   C287 3343   2.340   6.138   5.501  0.1448 -0.7887 -0.2058
    9MOL   C288 3344   2.267   6.181   5.626 -0.7270  0.3295  0.0936
    9MOL   O289 3345   2.408   6.136   5.631 -0.5087  0.6398  0.5116
    9MOL   C290 3346   2.168   6.108   5.708  0.9030 -0.0444 -0.2875
    9MOL   O291 3347   2.099   6.220   5.764 -0.0380  0.5777  0.1105
    9MOL   C292 3348   1.966   6.197   5.780  0.0504  0.0770 -0.7111
    9MOL   C293 3349   1.915   6.069   5.816 -0.4889 -0.4559  0.1600
    9MOL   C294 3350   1.776   6.052   5.830  1.0402 -0.3801  0.0438
    9MOL   C295 3351   1.686   6.150   5.792 -0.4750  0.8618 -0.3609
    9MOL   C296 3352   1.734   6.279   5.754  0.0471  0.6403 -0.2308
    9MOL   C297 3353   1.873   6.303   5.759 -0.4332  0.6467 -0.1616
    9MOL   H298 3354   2.386   6.207   5.431 -0.1989  1.8154  2.0738
    9MOL   H299 3355   2.262   6.289   5.630  1.0566  0.3420  2.6978
    9MOL   H300 3356   2.212   6.051   5.789 -1.3471  0.7241  1.5333
    9MOL   H301 3357   2.106   6.047   5.643  0.6586 -0.3891  0.2639
    9MOL   H302 3358   1.980   5.988   5.844 -0.9996 -1.6043 -1.8839
    9MOL   H303 3359   1.733   5.958   5.861  2.4491 -1.1154 -0.1835
    9MOL   H304 3360   1.579   6.139   5.794 -0.3823  0.1501  0.8146
    9MOL   H305 3361   1.664   6.362   5.744  0.5838  1.2370  0.8606
    9MOL   C306 3362   1.916   6.448   5.734 -0.0123 -0.9908 -0.0848
    9MOL   C307 3363   1.967   6.480   5.596 -0.6005  0.3975  0.4101
    9MOL   O308 3364   1.829   6.503   5.631 -0.6141 -0.2116 -0.5863
    9MOL   C309 3365   1.993   6.386   5.480 -0.2247  0.1339  0.4432
    9MOL   O310 3366   2.116   6.423   5.414  0.0555  0.3029  0.5029
    9MOL   C311 3367   2.110   6.489   5.296 -0.0469  0.0755  0.9394
    9MOL   C312 3368   2.054   6.433   5.183  0.5074  0.1546 -0.0364
    9MOL   C313 3369   2.048   6.501   5.062  0.5225  0.2520  0.2918
    9MOL   C314 3370   2.102   6.626   5.049 -0.3226 -0.4337 -0.1760
    9MOL   C315 3371   2.172   6.684   5.156 -0.6397  0.1244 -0.3633
    9MOL   C316 3372   2.169   6.616   5.282 -0.1734 -0.7077  0.1647
    9MOL   H317 3373   1.919   6.508   5.824  1.8911  0.2189 -0.9328
    9MOL   H318 3374   2.014   6.577   5.581 -0.6534  0.5286  1.0913
    9MOL   H319 3375   1.913   6.414   5.411  0.5857 -0.8463 -0.9398
    9MOL   H320 3376   1.987   6.280   5.504  1.6244 -0.6380 -2.2136
    9MOL   H321 3377   2.015   6.333   5.197  1.4908 -0.1157  0.8231
    9MOL   H322 3378   2.012   6.451   4.973  1.4802  1.2852 -0.6944
    9MOL   H323 3379   2.100   6.684   4.959  0.4156 -0.8057 -0.4382
    9MOL   H324 3380   2.214   6.783   5.147  0.2148 -0.2951 -1.1728
    9MOL   C325 3381   2.224   6.690   5.409  0.4452 -0.0351 -0.2261
    9MOL   C326 3382   2.355   6.649   5.476  0.2646  0.2382 -0.2807
    9MOL   O327 3383   2.347   6.757   5.383 -0.1588 -0.5773  0.0600
    9MOL   C328 3384   2.437   6.531   5.434 -0.4540  0.1750  0.1264
    9MOL   O329 3385   2.571   6.555   5.474 -0.0415  0.0802  0.3764
    9MOL   C330 3386   2.653   6.585   5.366 -0.1098  0.3587 -0.2414
    9MOL   C331 3387   2.616   6.658   5.249  0.0779  1.0276  0.6548
    9MOL   C332 3388   2.704   6.684   5.147 -0.5477  0.0947 -0.0060
    9MOL   C333 3389   2.833   6.638   5.164  0.2760  0.0054  0.2887
    9MOL   C334 3390   2.875   6.577   5.281 -0.2655  0.0913 -0.8107
    9MOL   C335 3391   2.787   6.542   5.386  0.1350 -0.2545 -0.8359
    9MOL   H336 3392   2.157   6.749   5.473  0.3069  0.7906 -1.1166
    9MOL   H337 3393   2.350   6.682   5.579  1.0016  0.4901 -0.3212
    9MOL   H338 3394   2.436   6.498   5.330 -0.3950 -1.1822  0.5447
    9MOL   H339 3395   2.411   6.450   5.502  0.3942  1.5152  2.0623
    9MOL   H340 3396   2.519   6.706   5.244  0.2792  1.3983  0.2280
    9MOL   H341 3397   2.674   6.734   5.056  0.3306 -0.0651 -0.3985
    9MOL   H342 3398   2.904   6.655   5.085 -1.4674  1.5996 -0.9691
    9MOL   H343 3399   2.981   6.556   5.292 -0.2659 -0.4525 -1.8550
    9MOL   C344 3400   2.837   6.486   5.523 -0.1901 -0.7194 -0.4430
    9MOL   C345 3401   2.852   6.341   5.556  0.1923  0.8417  0.5262
    9MOL   O346 3402   2.957   6.415   5.501 -0.3299 -0.1055 -0.6259
    9MOL   C347 3403   2.790   6.236   5.470  0.9324  0.7680 -0.0874
    9MOL   O348 3404   2.832   6.100   5.489 -0.4061 -0.2894  0.5057
    9MOL   C349 3405   2.963   6.065   5.477 -1.0897 -0.2952  0.1655
    9MOL   C350 3406   3.062   6.150   5.407  0.0707  0.3263 -0.9326
    9MOL   C351 3407   3.194   6.115   5.402 -0.4054  0.5209  0.2301
    9MOL   C352 3408   3.233   5.991   5.458 -0.5770 -0.6728  0.0153
    9MOL   C353 3409   3.145   5.907   5.522 -0.7083 -0.3065 -0.1361
    9MOL   C354 3410   3.009   5.941   5.537  0.2249  0.1462 -0.4129
    9MOL   H355 3411   2.842   6.557   5.605  2.2268  0.1243 -1.3006
    9MOL   H356 3412   2.857   6.321   5.662  0.7294  4.0677  1.1483
    9MOL   H357 3413   2.808   6.264   5.366  2.1842 -0.1494 -0.1220
    9MOL   H358 3414   2.682   6.240   5.487  1.1066  1.6250  0.8793
    9MOL   H359 3415   3.035   6.246   5.364 -1.5282  0.5483  0.4783
    9MOL   H360 3416   3.269   6.167   5.345 -0.0278  0.0207  0.2704
    9MOL   H361 3417   3.334   5.952   5.450 -0.1306  0.4128  0.2939
    9MOL   H362 3418   3.180   5.811   5.555  0.3680  0.5445  1.1948
    9MOL   C363 3419   2.917   5.842   5.602 -0.4669 -0.1064 -0.5521
    9MOL   C364 3420   2.886   5.711   5.531 -0.3263 -0.7401 -0.1081
    9MOL   O365 3421   2.983   5.715   5.639  0.1164  0.5260  0.1477
    9MOL   C366 3422   2.953   5.666   5.400  0.4802  0.6838 -0.2592
    9MOL   O367 3423   2.946   5.523   5.386  0.2951  0.3454  0.1617
    9MOL   C368 3424   3.058   5.453   5.363 -0.0003  0.1961 -0.0549
    9MOL   C369 3425   3.192   5.500   5.358 -0.4931 -0.8464 -0.1696
    9MOL   C370 3426   3.296   5.408   5.326 -0.3027  0.2383  0.3431
    9MOL   C371 3427   3.266   5.270   5.308  0.3066  0.0258 -0.3156
    9MOL   C372 3428   3.137   5.227   5.318 -0.3809 -0.3722 -0.3165
    9MOL   C373 3429   3.034   5.314   5.341  0.2165 -0.5201 -0.0795
    9MOL   H374 3430   2.848   5.875   5.679 -0.0174 -0.2885 -0.0675
    9MOL   H375 3431   2.795   5.660   5.562  0.5810 -1.5447  1.3384
    9MOL   H376 3432   3.053   5.708   5.391  0.1587  1.5997  0.3844
    9MOL   H377 3433   2.902   5.719   5.320  1.3532  1.4447 -0.3173
    9MOL   H378 3434   3.218   5.602   5.381 -1.7801 -0.6005  0.2289
    9MOL   H379 3435   3.397   5.442   5.308 -0.8988  1.8930  0.0417
    9MOL   H380 3436   3.342   5.199   5.279  0.9229  1.1245 -1.4667
    9MOL   H381 3437   3.125   5.121   5.303  0.0945 -0.3001 -1.2190
    9MOL   H382 3438   2.933   5.276   5.355 -0.0571  0.3792  0.4042
   10MOL     C1 3439   0.022   3.685   6.850  0.7856 -0.2104 -0.0637
   10MOL     C2 3440   0.055   3.580   6.953 -0.2281 -0.3442  0.3839
   10MOL     O3 3441   8.152   3.545   6.835 -0.2042  0.3394 -0.0425
   10MOL     C4 3442   8.150   3.553   7.080 -0.2042 -0.3681  0.4806
   10MOL     O5 3443   8.145   3.414   7.110  0.5141  0.1098  0.3144
   10MOL     C6 3444   8.065   3.371   7.217 -0.2634  0.1950  0.3295
   10MOL     C7 3445   7.995   3.453   7.304  0.2124 -0.1334  0.6254
   10MOL     C8 3446   7.928   3.407   7.421 -0.4133 -0.2628  0.9873
   10MOL     C9 3447   7.928   3.267   7.442  0.2526  0.0166  0.9112
   10MOL    C10 3448   7.997   3.182   7.350  0.0701  0.1346  0.0158
   10MOL    C11 3449   8.065   3.231   7.238 -0.1455 -0.2049  0.0703
   10MOL    H12 3450   0.105   3.716   6.787  1.2624  0.5636  0.9245
   10MOL    H13 3451   0.162   3.561   6.949  0.4464  3.2029  0.0437
   10MOL    H14 3452   8.050   3.593   7.061  0.7042  2.0237  0.5149
   10MOL    H15 3453   0.031   3.611   7.157  0.9515  0.2731 -0.7406
   10MOL    H16 3454   7.992   3.560   7.290 -0.3024 -0.0732  1.1495
   10MOL    H17 3455   7.873   3.471   7.488 -2.4099 -0.2710 -0.6098
   10MOL    H18 3456   7.877   3.223   7.526  1.2152 -1.7054  0.6139
   10MOL    H19 3457   7.999   3.075   7.359  0.3537 -0.1907 -3.1092
   10MOL    H20 3458   8.102   3.745   6.865  0.8936 -0.8757  3.8167
   10MOL    C21 3459   8.130   3.150   7.136  0.7146 -0.5311 -0.3779
   10MOL    C22 3460   0.074   3.051   7.148 -0.1231  0.1195 -0.0800
   10MOL    O23 3461   8.113   3.010   7.169  0.5070 -0.1041  0.1093
   10MOL    C24 3462   0.171   3.065   7.263  0.7406  0.0562  0.1224
   10MOL    O25 3463   0.277   2.975   7.238  0.0171  0.2400 -0.2373
   10MOL    C26 3464   0.269   2.839   7.269  0.0159  0.2962 -0.5202
   10MOL    C27 3465   0.191   2.792   7.375  0.8716  0.2139  0.2015
   10MOL    C28 3466   0.177   2.657   7.409 -0.8282 -0.7358  0.2871
   10MOL    C29 3467   0.261   2.565   7.339  0.2438 -0.3254  0.3773
   10MOL    C30 3468   0.344   2.612   7.230  0.6021 -0.2872  0.6027
   10MOL    C31 3469   0.341   2.747   7.194 -0.2837 -0.0309 -0.3819
   10MOL    H32 3470   8.107   3.175   7.033 -1.8672 -0.1907  0.2489
   10MOL    H33 3471   0.101   3.010   7.050  1.3133  0.1326  0.2932
   10MOL    H34 3472   0.120   3.051   7.359  0.0067  1.8999  0.0398
   10MOL    H35 3473   0.210   3.167   7.261  0.6310  0.2380  3.7584
   10MOL    H36 3474   0.125   2.857   7.431  2.3002  0.4579  1.6198
   10MOL    H37 3475   0.098   2.625   7.476  0.6653  0.4958  2.7424
   10MOL    H38 3476   0.255   2.462   7.371 -2.7871 -0.8153 -1.5819
   10MOL    H39 3477   0.393   2.542   7.164  3.6241  0.6517  1.8085
   10MOL    C40 3478   0.412   2.798   7.069 -0.1011 -0.0008 -0.1054
   10MOL    C41 3479   0.389   2.741   6.928 -0.6658  0.9249  0.1511
   10MOL    O42 3480   0.327   2.856   6.977  0.8653 -0.1304 -0.2821
   10MOL    C43 3481   0.302   2.615   6.896 -0.1188  0.1656 -0.0096
   10MOL    O44 3482   0.320   2.575   6.766 -0.1540  0.1253 -0.1917
   10MOL    C45 3483   0.257   2.650   6.667  0.0162  0.1553 -0.1025
   10MOL    C46 3484   0.163   2.754   6.692 -0.4096 -0.6197  0.3872
   10MOL    C47 3485   0.099   2.821   6.585  0.1554  0.0702 -0.0395
   10MOL    C48 3486   0.126   2.783   6.449 -0.2734 -0.1753 -0.5227
   10MOL    C49 3487   0.210   2.671   6.428  0.0583  0.0258  0.9025
   10MOL    C50 3488   0.279   2.606   6.534 -0.2107  0.1018 -0.1337
   10MOL    H51 3489   0.494   2.866   7.091 -0.0914 -0.0828  0.1142
   10MOL    H52 3490   0.461   2.765   6.851  2.2255  1.3810  2.8793
   10MOL    H53 3491   0.199   2.634   6.926 -0.5974  1.4415 -2.3887
   10MOL    H54 3492   0.330   2.532   6.960 -0.1422 -0.0616 -0.2973
   10MOL    H55 3493   0.168   2.802   6.789  2.3375  0.4354 -0.2097
   10MOL    H56 3494   0.035   2.906   6.606  2.1965  1.4999  0.5200
   10MOL    H57 3495   0.083   2.829   6.361 -1.2130 -1.3400 -0.6771
   10MOL    H58 3496   0.238   2.644   6.327 -1.8151  2.1270 -0.2296
   10MOL    C59 3497   0.380   2.493   6.520  0.3770  0.3741  0.4835
   10MOL    C60 3498   0.365   2.343   6.516  0.1611 -0.1048 -0.0060
   10MOL    O61 3499   0.358   2.418   6.402  0.5838  0.7195  0.5339
   10MOL    C62 3500   0.244   2.274   6.565  0.6076 -0.0595 -0.2765
   10MOL    O63 3501   0.219   2.146   6.501 -0.0430  0.1598  0.6288
   10MOL    C64 3502   0.166   2.134   6.372  0.7649  0.4923 -0.1881
   10MOL    C65 3503   0.121   2.248   6.303 -0.0091 -0.3304 -0.0669
   10MOL    C66 3504   0.056   2.236   6.181 -0.3713  1.2951  0.4116
   10MOL    C67 3505   0.035   2.111   6.124 -0.3266  0.0993 -0.1133
   10MOL    C68 3506   0.074   1.996   6.194  0.1809  0.2052 -0.2935
   10MOL    C69 3507   0.134   2.004   6.319 -0.4018 -0.1693 -0.1015
   10MOL    H70 3508   0.478   2.539   6.534  0.5158  0.0851  0.4489
   10MOL    H71 3509   0.460   2.291   6.529 -0.2714 -1.6105 -2.4854
   10MOL    H72 3510   0.158   2.342   6.565  0.5558 -0.1187  0.6455
   10MOL    H73 3511   0.256   2.258   6.672  0.9916 -2.1545 -0.6258
   10MOL    H74 3512   0.124   2.348   6.343  1.1723 -0.6763  0.7287
   10MOL    H75 3513   0.016   2.327   6.139  2.9120  2.7591  0.3946
   10MOL    H76 3514   8.136   2.099   6.042 -1.1881  1.3958  0.4027
   10MOL    H77 3515   0.053   1.899   6.151 -1.7895 -0.1258  1.3169
   10MOL    C78 3516   0.176   1.885   6.398 -0.2190  0.5133  0.2733
   10MOL    C79 3517   0.070   1.803   6.470  0.1843  0.0276  0.7379
   10MOL    O80 3518   0.127   1.760   6.346 -0.3345 -0.4511 -0.5366
   10MOL    C81 3519   8.092   1.830   6.469 -0.2446 -0.6184 -0.2193
   10MOL    O82 3520   8.037   1.736   6.560 -0.2900 -0.6592  0.1674
   10MOL    C83 3521   8.005   1.611   6.510  0.3286  0.4263 -0.3064
   10MOL    C84 3522   8.003   1.573   6.372 -0.2431  0.2641  0.4773
   10MOL    C85 3523   7.979   1.442   6.330 -0.6602 -0.7190 -0.3695
   10MOL    C86 3524   7.948   1.343   6.425  0.3672  0.1298 -0.4359
   10MOL    C87 3525   7.935   1.382   6.563 -0.6991 -0.0320  0.8140
   10MOL    C88 3526   7.963   1.519   6.605  0.5030 -0.0079 -0.3190
   10MOL    H89 3527   0.281   1.874   6.423 -0.1517 -0.8064 -0.5131
   10MOL    H90 3528   0.095   1.740   6.555 -0.0186  0.3343  1.0279
   10MOL    H91 3529   8.051   1.843   6.369  2.2282  2.9439 -0.8731
   10MOL    H92 3530   8.077   1.928   6.515  1.9643 -0.4306  0.1337
   10MOL    H93 3531   8.016   1.653   6.301 -3.9429  0.4237 -0.1491
   10MOL    H94 3532   7.990   1.423   6.224 -0.2190 -2.7130  0.0098
   10MOL    H95 3533   7.925   1.241   6.397 -0.8707  0.0356  0.8960
   10MOL    H96 3534   7.896   1.309   6.632 -0.5118 -0.8301  0.0746
   10MOL    C97 3535   7.962   1.549   6.750  0.1846 -0.2955 -0.4263
   10MOL    C98 3536   7.840   1.594   6.830  0.6876  0.3083  0.1823
   10MOL    O99 3537   7.877   1.458   6.825  0.1660  0.0373 -0.0948
   10MOL   C100 3538   7.711   1.622   6.758  0.2078 -0.6480  0.2412
   10MOL   O101 3539   7.621   1.678   6.851 -0.3104 -0.2311 -0.0160
   10MOL   C102 3540   7.637   1.817   6.881 -0.0262 -0.1573 -0.4799
   10MOL   C103 3541   7.742   1.900   6.838  0.0230 -0.1439  0.6332
   10MOL   C104 3542   7.743   2.035   6.859 -0.5028  0.1635 -1.1804
   10MOL   C105 3543   7.633   2.091   6.933 -0.1573  0.2817 -0.2827
   10MOL   C106 3544   7.535   2.006   6.987  0.0075  0.5067  0.7787
   10MOL   C107 3545   7.535   1.870   6.962 -0.2054 -0.3334 -0.1973
   10MOL   H108 3546   8.062   1.562   6.790  0.6127 -1.6679 -1.0358
   10MOL   H109 3547   7.850   1.635   6.931  0.5491 -0.9448  0.7159
   10MOL   H110 3548   7.670   1.526   6.727  1.2781 -0.7016 -1.0495
   10MOL   H111 3549   7.727   1.668   6.661 -0.0756 -3.0878 -0.9987
   10MOL   H112 3550   7.821   1.854   6.780  0.1910  1.8952 -0.8133
   10MOL   H113 3551   7.821   2.099   6.821  0.4542  1.1418  2.2818
   10MOL   H114 3552   7.617   2.197   6.944 -1.3256 -0.1139  2.2331
   10MOL   H115 3553   7.446   2.042   7.036 -0.1995 -0.0534  0.8165
   10MOL   C116 3554   7.415   1.788   6.977  0.2227 -0.3160 -0.5234
   10MOL   C117 3555   7.394   1.702   7.098 -0.0685  0.1919 -0.2022
   10MOL   O118 3556   7.326   1.832   7.082 -0.3406 -0.4587  0.2701
   10MOL   C119 3557   7.495   1.682   7.216  0.7030 -0.4802  0.1798
   10MOL   O120 3558   7.431   1.677   7.337  0.0089  0.2236  0.6993
   10MOL   C121 3559   7.337   1.581   7.356 -0.5298  0.0874 -0.7262
   10MOL   C122 3560   7.332   1.460   7.283  0.1366  1.1436 -0.1460
   10MOL   C123 3561   7.237   1.367   7.307  0.6528 -0.0774 -0.2981
   10MOL   C124 3562   7.143   1.392   7.409  0.7245  0.2117 -0.2557
   10MOL   C125 3563   7.146   1.513   7.485 -1.2217 -1.3590  0.3331
   10MOL   C126 3564   7.241   1.609   7.459 -0.3294 -1.5646  0.3204
   10MOL   H127 3565   7.368   1.773   6.880 -0.5406  1.3528 -0.4288
   10MOL   H128 3566   7.349   1.607   7.073  1.3838 -0.3680 -0.7200
   10MOL   H129 3567   7.558   1.771   7.220  0.1102 -0.0875  0.8667
   10MOL   H130 3568   7.558   1.598   7.188  0.9570  0.1191 -1.0647
   10MOL   H131 3569   7.423   1.439   7.228 -0.2787 -0.1929 -0.3382
   10MOL   H132 3570   7.237   1.277   7.248 -0.8526 -0.1234 -0.2422
   10MOL   H133 3571   7.068   1.318   7.433  1.3876 -2.4708 -5.8641
   10MOL   H134 3572   7.077   1.544   7.562 -1.1975 -2.1565  0.6805
   10MOL   C135 3573   7.250   1.737   7.540  0.1071  0.6317 -0.1840
   10MOL   C136 3574   7.162   1.855   7.512  0.1333 -0.4016  0.5125
   10MOL   O137 3575   7.131   1.768   7.615  0.4161 -0.6021 -0.8524
   10MOL   C138 3576   7.062   1.863   7.387  0.3760  0.1447  0.2452
   10MOL   O139 3577   6.978   1.970   7.405  0.2965 -0.4764 -0.4635
   10MOL   C140 3578   6.854   1.953   7.463 -0.2716  0.3836 -0.0087
   10MOL   C141 3579   6.822   1.842   7.547 -0.3680  0.6764  0.1842
   10MOL   C142 3580   6.700   1.840   7.610 -0.0846 -0.3740  1.0339
   10MOL   C143 3581   6.612   1.949   7.600 -0.1777 -0.2616  0.6019
   10MOL   C144 3582   6.644   2.058   7.518 -0.1427  0.2797 -0.4534
   10MOL   C145 3583   6.768   2.067   7.456  0.1354  0.4929 -0.7827
   10MOL   H146 3584   7.336   1.742   7.606  0.1640  3.2234 -0.3986
   10MOL   H147 3585   7.200   1.954   7.539  1.8678 -0.5896 -1.1263
   10MOL   H148 3586   7.015   1.765   7.379  2.4719 -0.7110 -2.5707
   10MOL   H149 3587   7.111   1.878   7.291 -0.0556 -2.3315 -0.4078
   10MOL   H150 3588   6.890   1.762   7.570 -0.5722 -0.0478 -1.6863
   10MOL   H151 3589   6.676   1.765   7.684 -1.4625  0.3120  1.3142
   10MOL   H152 3590   6.526   1.938   7.664  1.4814 -2.3000  2.5506
   10MOL   H153 3591   6.576   2.142   7.511  0.1741  0.5398 -0.4542
   10MOL   C154 3592   6.810   2.188   7.385  0.5547 -0.2159 -0.1863
   10MOL   C155 3593   6.804   2.214   7.236  0.2984 -0.8208  0.5343
   10MOL   O156 3594   6.704   2.261   7.325  0.0531  0.2935  0.1397
   10MOL   C157 3595   6.760   2.116   7.135  0.3611  0.8346  0.4764
   10MOL   O158 3596   6.735   2.180   7.008  0.0093  0.0974  0.2807
   10MOL   C159 3597   6.604   2.208   6.982  0.2506 -0.0464 -0.1861
   10MOL   C160 3598   6.504   2.110   7.002  0.4631 -0.7955 -0.1763
   10MOL   C161 3599   6.370   2.140   6.973 -0.0146  0.3498  0.7164
   10MOL   C162 3600   6.342   2.253   6.892 -0.7022 -0.7122 -0.4256
   10MOL   C163 3601   6.441   2.346   6.864  1.0850  0.2334  0.1097
   10MOL   C164 3602   6.569   2.330   6.916  0.0390  0.0623  0.0432
   10MOL   H165 3603   6.878   2.244   7.449  1.1519 -0.4251 -0.6261
   10MOL   H166 3604   6.885   2.285   7.221 -1.0311  1.3625  3.3350
   10MOL   H167 3605   6.688   2.042   7.170  0.4941  1.2211  1.6010
   10MOL   H168 3606   6.836   2.038   7.130 -1.5912 -1.0777 -0.2838
   10MOL   H169 3607   6.532   2.009   7.031 -0.5992 -1.0642 -0.0786
   10MOL   H170 3608   6.287   2.071   6.984 -0.5400  0.6115 -1.4081
   10MOL   H171 3609   6.244   2.256   6.848 -0.9316 -0.4632  0.1029
   10MOL   H172 3610   6.427   2.434   6.803  1.0646 -0.1836 -0.4957
   10MOL   C173 3611   6.680   2.420   6.865  0.8998  0.5160 -0.8481
   10MOL   C174 3612   6.725   2.409   6.727  0.2087  0.4006  0.2177
   10MOL   O175 3613   6.648   2.522   6.769  0.1240  0.0952 -0.4659
   10MOL   C176 3614   6.659   2.332   6.618  0.4861  0.8481  0.3766
   10MOL   O177 3615   6.720   2.367   6.493 -0.1552 -0.1737 -0.2570
   10MOL   C178 3616   6.841   2.318   6.462 -0.6322  1.2161 -0.1004
   10MOL   C179 3617   6.903   2.214   6.545  0.4960 -0.2677 -0.6064
   10MOL   C180 3618   7.023   2.153   6.506 -0.7429  0.5149  0.5901
   10MOL   C181 3619   7.077   2.191   6.382  0.6208 -1.0441  0.2230
   10MOL   C182 3620   7.019   2.284   6.296  0.2926  0.3911 -0.4361
   10MOL   C183 3621   6.905   2.353   6.342 -0.0332 -0.0770  0.4040
   10MOL   H184 3622   6.744   2.455   6.945 -2.7454  0.7699  2.0663
   10MOL   H185 3623   6.833   2.410   6.717  0.1330 -0.1597 -0.6605
   10MOL   H186 3624   6.555   2.365   6.610  0.9199  2.2786  0.6420
   10MOL   H187 3625   6.648   2.223   6.624  0.6426  0.6717 -2.0041
   10MOL   H188 3626   6.872   2.169   6.638  1.9207 -0.7353 -0.3390
   10MOL   H189 3627   7.069   2.074   6.563  0.4550  0.2537 -0.6980
   10MOL   H190 3628   7.168   2.139   6.353  1.4237  0.1431  0.5764
   10MOL   H191 3629   7.069   2.308   6.203  1.3685 -0.9849 -0.2143
   10MOL   C192 3630   6.845   2.454   6.249 -0.0824  0.3186  0.2081
   10MOL   C193 3631   6.856   2.603   6.256 -0.2100 -0.2545  0.5738
   10MOL   O194 3632   6.944   2.525   6.168 -0.1579 -0.8018  0.0800
   10MOL   C195 3633   6.913   2.668   6.389 -0.3411  0.2989  0.6538
   10MOL   O196 3634   6.961   2.801   6.378  0.0213 -0.3689  0.1981
   10MOL   C197 3635   7.088   2.822   6.322 -0.4399 -0.3652 -0.2524
   10MOL   C198 3636   7.179   2.720   6.274  0.3470  0.4480  1.0969
   10MOL   C199 3637   7.316   2.754   6.243 -0.2424 -0.3869  0.3234
   10MOL   C200 3638   7.358   2.889   6.237  0.0806 -0.1368  0.1750
   10MOL   C201 3639   7.265   2.986   6.276  0.2598 -0.9087  0.6324
   10MOL   C202 3640   7.138   2.958   6.325  0.1548  0.2855 -0.1719
   10MOL   H203 3641   6.772   2.398   6.192  1.3622 -1.3597 -0.0412
   10MOL   H204 3642   6.795   2.673   6.199 -0.6080  0.5440  1.9574
   10MOL   H205 3643   6.972   2.602   6.454  1.0312  0.4752 -0.3852
   10MOL   H206 3644   6.827   2.681   6.455  0.1090  2.1023  0.8892
   10MOL   H207 3645   7.155   2.615   6.273 -0.2338  0.5740  1.4725
   10MOL   H208 3646   7.381   2.672   6.217  0.8454  0.3588  0.6862
   10MOL   H209 3647   7.450   2.915   6.185  1.3972 -0.0094  2.5181
   10MOL   H210 3648   7.288   3.092   6.271 -0.8281 -0.6831  0.2814
   10MOL   C211 3649   7.046   3.063   6.380  0.2945 -0.1526 -0.4063
   10MOL   C212 3650   7.045   3.112   6.523 -0.2501 -0.3787  0.2420
   10MOL   O213 3651   7.115   3.188   6.420  0.0701 -0.2473 -0.0805
   10MOL   C214 3652   7.131   3.058   6.641  0.1297 -0.7322  0.5778
   10MOL   O215 3653   7.059   3.105   6.760 -0.2737  0.2408 -0.1121
   10MOL   C216 3654   7.032   3.015   6.865 -0.4064  0.5083  1.3970
   10MOL   C217 3655   7.101   3.036   6.984 -0.5173 -1.0078 -0.2929
   10MOL   C218 3656   7.091   2.952   7.103 -0.0343 -0.0159  0.0489
   10MOL   C219 3657   6.993   2.853   7.101  0.4960 -0.8719  0.0824
   10MOL   C220 3658   6.912   2.845   6.985  0.7252 -0.0363  0.0831
   10MOL   C221 3659   6.932   2.912   6.864  0.7018 -0.1937  0.1251
   10MOL   H222 3660   6.969   3.079   6.305 -0.9532 -0.6697  0.7368
   10MOL   H223 3661   6.950   3.154   6.557  1.2372 -0.3747  4.6650
   10MOL   H224 3662   7.238   3.077   6.642  0.4773 -2.4920 -1.2650
   10MOL   H225 3663   7.130   2.949   6.636  0.9440 -0.9257  3.4803
   10MOL   H226 3664   7.170   3.119   6.993 -1.1484 -0.6216  1.2001
   10MOL   H227 3665   7.155   2.971   7.187  1.5303  2.8501 -1.7348
   10MOL   H228 3666   6.976   2.797   7.191  1.0354 -0.1013  0.6687
   10MOL   H229 3667   6.833   2.773   6.972  1.0592 -0.3892 -0.0126
   10MOL   C230 3668   6.866   2.868   6.741 -0.6162 -0.2033  0.2001
   10MOL   C231 3669   6.722   2.865   6.700 -0.2665  0.5405 -0.4759
   10MOL   O232 3670   6.810   2.975   6.662 -0.1700  0.9169  0.4681
   10MOL   C233 3671   6.608   2.884   6.803 -0.1536 -0.5544  0.6484
   10MOL   O234 3672   6.504   2.965   6.757 -0.8306  0.1679  0.2797
   10MOL   C235 3673   6.413   2.913   6.660 -0.1319  0.2417 -0.3786
   10MOL   C236 3674   6.397   2.771   6.642 -0.0526 -0.6952 -0.0310
   10MOL   C237 3675   6.316   2.722   6.539  0.0558 -0.5395  0.5446
   10MOL   C238 3676   6.246   2.818   6.464 -0.7866  0.3743  0.2504
   10MOL   C239 3677   6.248   2.954   6.488  0.4070 -0.3300  0.3516
   10MOL   C240 3678   6.342   3.006   6.581 -0.1771  0.4838  0.1240
   10MOL   H241 3679   6.943   2.813   6.686  0.1838  1.5144 -0.4453
   10MOL   H242 3680   6.704   2.794   6.620  1.5636  2.0736 -2.3219
   10MOL   H243 3681   6.645   2.943   6.887 -0.8141 -0.1079  0.6257
   10MOL   H244 3682   6.586   2.788   6.849 -1.4125 -0.0741  1.0895
   10MOL   H245 3683   6.454   2.700   6.701 -2.4975 -0.8913  2.1681
   10MOL   H246 3684   6.304   2.620   6.508  0.8722 -0.2610 -0.6995
   10MOL   H247 3685   6.192   2.784   6.376  2.2783 -3.0089 -0.4589
   10MOL   H248 3686   6.197   3.032   6.434 -0.9848 -1.4203  0.0741
   10MOL   C249 3687   6.347   3.154   6.623  0.0751  0.0003 -0.1866
   10MOL   C250 3688   6.441   3.259   6.553 -0.3577 -0.4066 -0.0139
   10MOL   O251 3689   6.307   3.238   6.513  0.3985  0.1910 -0.0295
   10MOL   C252 3690   6.537   3.229   6.439  0.2904 -0.2436 -0.0147
   10MOL   O253 3691   6.523   3.334   6.346  0.0693 -0.5232  0.0694
   10MOL   C254 3692   6.478   3.297   6.226  0.0237  0.2313  0.1222
   10MOL   C255 3693   6.388   3.189   6.203  0.1413  1.0360  0.7782
   10MOL   C256 3694   6.327   3.166   6.073  0.2105 -0.0761 -0.2628
   10MOL   C257 3695   6.373   3.238   5.959  0.1683 -0.4227  0.0671
   10MOL   C258 3696   6.477   3.334   5.978 -0.3806 -0.1516  0.3541
   10MOL   C259 3697   6.531   3.364   6.113  0.4870  0.1245 -0.2125
   10MOL   H260 3698   6.291   3.181   6.712 -1.0013  0.4468 -0.9731
   10MOL   H261 3699   6.453   3.359   6.595  0.0054  0.2349 -1.6198
   10MOL   H262 3700   6.517   3.127   6.405  0.0695  0.4392 -1.9932
   10MOL   H263 3701   6.640   3.212   6.471  0.4598  0.4751 -0.1856
   10MOL   H264 3702   6.346   3.135   6.287 -0.7706 -2.1361 -1.6210
   10MOL   H265 3703   6.245   3.100   6.048 -1.8817  2.1416  0.5720
   10MOL   H266 3704   6.324   3.220   5.865 -0.2759  1.1178 -0.0126
   10MOL   H267 3705   6.520   3.389   5.896  0.1172  1.2944  1.5621
   10MOL   C268 3706   6.623   3.478   6.138  0.3564 -0.8066 -0.0622
   10MOL   C269 3707   6.776   3.476   6.111  0.1714 -0.4336 -0.3346
   10MOL   O270 3708   6.675   3.537   6.022 -0.7134 -0.5966 -0.2200
   10MOL   C271 3709   6.862   3.374   6.040  0.2086 -0.1764  0.1476
   10MOL   O272 3710   6.811   3.241   6.047  0.0720  0.2564 -0.1289
   10MOL   C273 3711   6.899   3.140   6.012  0.3730 -0.1784  0.8268
   10MOL   C274 3712   7.032   3.153   5.964  0.1141 -0.0353  0.2787
   10MOL   C275 3713   7.119   3.043   5.935 -0.3822  0.1375  0.4781
   10MOL   C276 3714   7.065   2.913   5.951 -0.3891  0.4376  0.0058
   10MOL   C277 3715   6.928   2.898   5.992  0.0669 -0.2362 -0.8739
   10MOL   C278 3716   6.847   3.011   6.022 -0.1488  0.3031 -0.7247
   10MOL   H279 3717   6.570   3.544   6.207 -1.4069 -0.0175 -2.1449
   10MOL   H280 3718   6.833   3.548   6.169 -1.7460  0.1606  0.8784
   10MOL   H281 3719   6.960   3.375   6.089 -0.0891  1.4524  0.7346
   10MOL   H282 3720   6.881   3.407   5.938 -0.8611  0.9301  0.2888
   10MOL   H283 3721   7.078   3.250   5.952 -0.6744  0.3897  0.6256
   10MOL   H284 3722   7.225   3.049   5.917 -0.6143  0.6238 -0.7626
   10MOL   H285 3723   7.131   2.828   5.955  0.8616  1.3043 -1.7965
   10MOL   H286 3724   6.884   2.801   6.009 -1.6472  0.4422 -1.3560
   10MOL   C287 3725   6.699   3.005   6.053  0.7110  0.1326  0.0037
   10MOL   C288 3726   6.605   2.947   5.950 -0.8387 -0.1186 -0.3206
   10MOL   O289 3727   6.655   2.869   6.065 -0.4751 -0.2443 -0.2579
   10MOL   C290 3728   6.655   2.904   5.818 -0.2243  0.6518  0.2095
   10MOL   O291 3729   6.563   2.942   5.718  0.0768  0.5806  0.6636
   10MOL   C292 3730   6.565   3.069   5.658  0.2154 -0.4970  0.7523
   10MOL   C293 3731   6.664   3.173   5.692 -0.1628  0.9389 -0.1538
   10MOL   C294 3732   6.669   3.302   5.637 -0.3858 -0.4216 -0.2746
   10MOL   C295 3733   6.587   3.326   5.525  0.4831  0.0031 -0.4778
   10MOL   C296 3734   6.492   3.229   5.484 -0.0469 -0.1784  0.0598
   10MOL   C297 3735   6.482   3.103   5.549  0.1116 -0.0089 -0.0998
   10MOL   H298 3736   6.658   3.068   6.132 -1.4507 -1.5072  0.2427
   10MOL   H299 3737   6.500   2.973   5.964 -0.6337  0.8674 -0.6406
   10MOL   H300 3738   6.656   2.796   5.801 -1.0098  0.8048 -0.8770
   10MOL   H301 3739   6.753   2.945   5.792 -0.1788 -0.0285 -0.7381
   10MOL   H302 3740   6.733   3.152   5.772 -0.6079 -1.1865 -0.3024
   10MOL   H303 3741   6.742   3.376   5.668 -0.7839 -0.3585  0.5257
   10MOL   H304 3742   6.605   3.416   5.467  1.5300  0.9636  1.3014
   10MOL   H305 3743   6.431   3.250   5.398 -0.5151 -0.7554  0.2512
   10MOL   C306 3744   6.399   2.992   5.489 -0.2687 -0.2351 -0.7123
   10MOL   C307 3745   6.281   2.932   5.559  0.4456  0.6721 -0.3157
   10MOL   O308 3746   6.262   3.032   5.453 -0.6392 -0.0409  0.6009
   10MOL   C309 3747   6.241   2.976   5.705 -0.1353  0.2450  0.3999
   10MOL   O310 3748   6.151   2.882   5.756 -0.2119  0.1842  0.1333
   10MOL   C311 3749   6.015   2.894   5.741  0.0206  0.5636 -1.2419
   10MOL   C312 3750   5.958   3.006   5.671  0.0784 -0.6185 -0.3585
   10MOL   C313 3751   5.818   3.015   5.657  0.6903  0.0619 -0.3104
   10MOL   C314 3752   5.731   2.914   5.710 -0.8618 -0.2411  0.9708
   10MOL   C315 3753   5.785   2.798   5.761  0.5879  0.4742  0.0035
   10MOL   C316 3754   5.926   2.785   5.786  0.2861 -0.2516 -0.4952
   10MOL   H317 3755   6.457   2.934   5.418  1.3717 -1.1007  1.2771
   10MOL   H318 3756   6.254   2.832   5.526  2.4466  0.4698 -1.4301
   10MOL   H319 3757   6.216   3.081   5.719  0.7335  0.4729  0.2642
   10MOL   H320 3758   6.328   2.967   5.769 -0.0249 -2.0721 -0.0382
   10MOL   H321 3759   6.014   3.086   5.626  0.3878 -0.7277 -0.1689
   10MOL   H322 3760   5.787   3.104   5.605  0.9166 -0.2168 -0.9305
   10MOL   H323 3761   5.626   2.932   5.695 -0.3403  2.0317 -0.1810
   10MOL   H324 3762   5.727   2.710   5.788 -3.1523  1.6172 -3.8257
   10MOL   C325 3763   5.990   2.652   5.822  1.1793 -0.1448  0.1541
   10MOL   C326 3764   6.056   2.628   5.952  0.0424  0.1189 -0.1858
   10MOL   O327 3765   5.921   2.593   5.930 -0.0443 -0.2255  0.1727
   10MOL   C328 3766   6.067   2.710   6.090  0.2450  0.1181 -0.3351
   10MOL   O329 3767   6.058   2.646   6.219 -0.1162 -0.5325  0.0336
   10MOL   C330 3768   6.134   2.540   6.255  0.1488  0.1264 -0.1825
   10MOL   C331 3769   6.273   2.527   6.219  0.2670  0.0485 -0.6839
   10MOL   C332 3770   6.350   2.421   6.276  0.3720 -0.0486  0.3639
   10MOL   C333 3771   6.291   2.337   6.376  0.0996  0.3525  0.3868
   10MOL   C334 3772   6.156   2.352   6.401  0.9674  1.2103 -0.2426
   10MOL   C335 3773   6.076   2.442   6.341  0.2157 -0.4531 -0.8827
   10MOL   H336 3774   6.006   2.591   5.733 -0.4765 -0.0522 -0.2194
   10MOL   H337 3775   6.123   2.542   5.953 -0.0826  0.0144  1.3305
   10MOL   H338 3776   5.985   2.782   6.091  2.1129  2.3201  0.8210
   10MOL   H339 3777   6.158   2.769   6.100  0.7916 -0.4239 -1.9920
   10MOL   H340 3778   6.314   2.592   6.143  0.2819  0.4002 -0.3732
   10MOL   H341 3779   6.455   2.413   6.255  0.3033  2.0094 -0.8569
   10MOL   H342 3780   6.348   2.260   6.425  1.9021  1.4242  0.0344
   10MOL   H343 3781   6.116   2.287   6.477  2.6395  1.6385  1.0472
   10MOL   C344 3782   5.927   2.444   6.369 -0.0212 -0.2560 -0.3391
   10MOL   C345 3783   5.842   2.317   6.352 -0.2003  0.5589  0.3706
   10MOL   O346 3784   5.893   2.357   6.480 -0.4927 -0.0273  0.3725
   10MOL   C347 3785   5.892   2.183   6.308  0.2060 -0.0333  0.4056
   10MOL   O348 3786   5.788   2.111   6.255  0.0414 -0.5078  0.5196
   10MOL   C349 3787   5.764   1.989   6.307  0.1602 -0.2796 -0.4958
   10MOL   C350 3788   5.774   1.968   6.446  0.1115  0.2884 -0.7091
   10MOL   C351 3789   5.738   1.849   6.506  0.3660  0.1078  0.5346
   10MOL   C352 3790   5.696   1.741   6.427 -0.6636  0.4971  0.1783
   10MOL   C353 3791   5.685   1.762   6.290  0.1119 -0.1380  0.3996
   10MOL   C354 3792   5.720   1.885   6.229 -0.2702  0.1774 -0.7074
   10MOL   H355 3793   5.879   2.541   6.377  0.2367 -0.2570  1.3729
   10MOL   H356 3794   5.738   2.340   6.332  0.1353  0.0073 -2.1413
   10MOL   H357 3795   5.968   2.152   6.379  1.0927  0.7707 -0.1763
   10MOL   H358 3796   5.951   2.186   6.216 -2.4850  1.0383 -1.3807
   10MOL   H359 3797   5.819   2.039   6.514  0.5897  0.3922 -1.1292
   10MOL   H360 3798   5.768   1.840   6.609  0.3985  0.8555  0.5942
   10MOL   H361 3799   5.679   1.642   6.469 -0.5817  0.2727 -0.3198
   10MOL   H362 3800   5.653   1.680   6.227 -0.6348  1.3476 -1.1622
   10MOL   C363 3801   5.715   1.886   6.081  0.1775  0.5146  0.3133
   10MOL   C364 3802   5.841   1.874   5.996 -0.8879  0.2967 -0.3957
   10MOL   O365 3803   5.755   1.760   6.019 -0.2211 -0.6960 -0.1747
   10MOL   C366 3804   5.982   1.869   6.055 -0.3088 -0.2908  0.8017
   10MOL   O367 3805   6.081   1.861   5.960  0.0498  0.1204  1.1942
   10MOL   C368 3806   6.154   1.976   5.943  0.6020  0.2752 -0.1330
   10MOL   C369 3807   6.296   1.963   5.928 -0.1637 -0.2907 -0.3638
   10MOL   C370 3808   6.376   2.073   5.900  0.2855  0.2288  0.1143
   10MOL   C371 3809   6.316   2.204   5.884  1.5868  0.2924  0.1556
   10MOL   C372 3810   6.178   2.224   5.917  0.5053  1.1014  0.1139
   10MOL   C373 3811   6.097   2.109   5.940 -0.4095 -0.3496 -0.2444
   10MOL   H374 3812   5.627   1.934   6.038  0.8163  0.1292 -1.4775
   10MOL   H375 3813   5.827   1.925   5.901 -1.6353  4.0665  1.5878
   10MOL   H376 3814   5.985   1.768   6.096 -3.1944 -0.9859 -0.5835
   10MOL   H377 3815   5.997   1.940   6.137  0.8280 -1.3603  1.5399
   10MOL   H378 3816   6.340   1.866   5.946  0.4039  0.1662  0.7953
   10MOL   H379 3817   6.482   2.056   5.888  0.2559 -0.4628  0.7586
   10MOL   H380 3818   6.382   2.285   5.857  0.7557  0.9732  0.1662
   10MOL   H381 3819   6.131   2.321   5.913  2.3105  1.9627 -0.8861
   10MOL   H382 3820   5.993   2.129   5.963  0.1965  0.5948  1.7752
   11MOL     C1 3821   5.545   1.375   6.524  0.0357  0.4145  0.4809
   11MOL     C2 3822   5.637   1.258   6.502  0.4999  0.5563  0.6012
   11MOL     O3 3823   5.581   1.329   6.393 -0.0148 -0.2441  0.0400
   11MOL     C4 3824   5.591   1.121   6.531 -0.1272  0.0777 -1.0235
   11MOL     O5 3825   5.658   1.030   6.441 -0.1938 -0.8823 -0.2526
   11MOL     C6 3826   5.783   0.974   6.462 -0.1468 -0.1255 -1.3162
   11MOL     C7 3827   5.862   1.015   6.570  0.0088  0.2449 -0.3434
   11MOL     C8 3828   5.980   0.952   6.600  0.2907  0.3088  1.0204
   11MOL     C9 3829   6.032   0.862   6.508 -0.1130  0.2174 -0.2840
   11MOL    C10 3830   5.955   0.826   6.398 -0.6434 -0.2032 -0.1354
   11MOL    C11 3831   5.825   0.874   6.375 -0.2197 -0.4235  0.6093
   11MOL    H12 3832   5.586   1.473   6.544  0.2784  0.9508 -2.3711
   11MOL    H13 3833   5.744   1.273   6.510  0.7886 -0.2874 -1.4078
   11MOL    H14 3834   5.482   1.119   6.528 -0.1888 -1.9865  1.0502
   11MOL    H15 3835   5.605   1.097   6.636  1.1263 -1.1835 -1.4547
   11MOL    H16 3836   5.830   1.097   6.634 -0.3154  0.9345 -1.3776
   11MOL    H17 3837   6.032   0.982   6.689  0.0682  2.4068  0.4722
   11MOL    H18 3838   6.128   0.814   6.524 -0.2854  0.3404  1.2491
   11MOL    H19 3839   5.992   0.753   6.327  2.7684  0.0663  1.3012
   11MOL    H20 3840   5.438   1.366   6.541 -0.4183  0.7151 -1.9770
   11MOL    C21 3841   5.737   0.821   6.268 -1.0213 -0.2598 -0.0170
   11MOL    C22 3842   5.677   0.909   6.160  0.5090 -0.4603 -0.5046
   11MOL    O23 3843   5.793   0.826   6.136 -0.1644  0.5619 -0.6413
   11MOL    C24 3844   5.694   1.059   6.140  0.3054  0.2375 -0.1625
   11MOL    O25 3845   5.724   1.103   6.005 -0.5660 -0.1938 -0.6400
   11MOL    C26 3846   5.621   1.143   5.927  0.2836  0.3468 -0.3083
   11MOL    C27 3847   5.499   1.193   5.978  0.3394 -0.1082  0.6163
   11MOL    C28 3848   5.394   1.236   5.887 -0.4671  0.1348  0.1035
   11MOL    C29 3849   5.414   1.226   5.748 -0.1843 -0.5684 -0.3012
   11MOL    C30 3850   5.532   1.156   5.701 -0.6873 -0.4650 -0.4054
   11MOL    C31 3851   5.635   1.115   5.792 -0.2074 -0.2053 -0.4308
   11MOL    H32 3852   5.708   0.720   6.295  0.8786 -0.5487  1.0355
   11MOL    H33 3853   5.585   0.877   6.113 -0.8571  0.0293  1.7768
   11MOL    H34 3854   5.786   1.086   6.192  0.1130  1.4418 -0.4242
   11MOL    H35 3855   5.615   1.109   6.195  0.0590  0.1992 -0.4809
   11MOL    H36 3856   5.485   1.219   6.081 -1.6059  2.9015 -0.3282
   11MOL    H37 3857   5.307   1.283   5.929 -0.4003 -1.8598  2.6025
   11MOL    H38 3858   5.343   1.259   5.673 -2.3591 -0.7699  1.6238
   11MOL    H39 3859   5.551   1.129   5.598  0.1249 -1.7190  0.0606
   11MOL    C40 3860   5.757   1.047   5.735 -0.5216 -0.1446  0.2446
   11MOL    C41 3861   5.786   0.898   5.751  0.1375 -0.5994  1.4252
   11MOL    O42 3862   5.722   0.950   5.636 -0.5800 -0.7673  0.6835
   11MOL    C43 3863   5.701   0.811   5.840 -0.5040  0.4124  0.1624
   11MOL    O44 3864   5.691   0.687   5.774  0.2113 -0.0847 -0.3108
   11MOL    C45 3865   5.645   0.580   5.846 -0.8815 -0.5557  0.7233
   11MOL    C46 3866   5.586   0.591   5.974 -0.3449  0.2573  0.8315
   11MOL    C47 3867   5.549   0.476   6.045  0.1476  0.4615 -0.0013
   11MOL    C48 3868   5.554   0.352   5.977 -0.7998 -0.1011 -0.3142
   11MOL    C49 3869   5.615   0.340   5.849 -0.3404 -0.3044  0.1998
   11MOL    C50 3870   5.664   0.454   5.782  0.4046  0.3067  0.7751
   11MOL    H51 3871   5.833   1.113   5.695 -0.7735 -0.9902 -1.6904
   11MOL    H52 3872   5.888   0.864   5.732 -0.0761 -1.4064  1.7008
   11MOL    H53 3873   5.608   0.862   5.867  0.9164  1.5009  3.3168
   11MOL    H54 3874   5.747   0.791   5.937 -0.3601 -0.6833 -0.1336
   11MOL    H55 3875   5.562   0.689   6.014 -3.2450  1.2421 -2.9762
   11MOL    H56 3876   5.497   0.483   6.139  0.9252 -0.8453  0.5304
   11MOL    H57 3877   5.516   0.265   6.029 -1.6754  0.8593  0.6943
   11MOL    H58 3878   5.631   0.243   5.804  0.2775 -0.6445  1.1472
   11MOL    C59 3879   5.732   0.441   5.655 -0.5168 -0.4221 -0.0553
   11MOL    C60 3880   5.883   0.436   5.635  0.0779 -0.5964  0.5222
   11MOL    O61 3881   5.804   0.314   5.648  0.3840  0.3170 -0.0831
   11MOL    C62 3882   5.972   0.467   5.749  0.5157 -0.0306 -0.3007
   11MOL    O63 3883   6.108   0.459   5.709  0.0308 -0.2370 -0.3364
   11MOL    C64 3884   6.201   0.451   5.809  0.7970  0.3281 -0.7606
   11MOL    C65 3885   6.188   0.392   5.939 -0.0809 -0.7115 -0.5926
   11MOL    C66 3886   6.300   0.399   6.027  0.0472  0.0347 -0.3067
   11MOL    C67 3887   6.418   0.470   5.988 -0.1218  0.8747 -0.0089
   11MOL    C68 3888   6.430   0.526   5.860  0.1386 -0.5267  0.6656
   11MOL    C69 3889   6.315   0.526   5.774 -0.7490  0.1723 -1.2870
   11MOL    H70 3890   5.674   0.468   5.567  0.3880  1.6590 -0.0448
   11MOL    H71 3891   5.924   0.450   5.535  1.7730 -0.1689  1.2619
   11MOL    H72 3892   5.952   0.401   5.833 -0.6309  0.4141 -0.2015
   11MOL    H73 3893   5.951   0.570   5.778 -0.0780  0.7005 -3.1406
   11MOL    H74 3894   6.097   0.344   5.972 -0.3124  0.5270  0.5888
   11MOL    H75 3895   6.284   0.355   6.125 -0.1142  0.0030 -0.3463
   11MOL    H76 3896   6.493   0.471   6.065 -1.1819 -1.1051  1.1021
   11MOL    H77 3897   6.516   0.587   5.838  0.8733 -1.1771  1.6703
   11MOL    C78 3898   6.328   0.592   5.641  0.0303 -0.3883 -0.2611
   11MOL    C79 3899   6.285   0.734   5.621 -0.4256  0.1392  0.0880
   11MOL    O80 3900   6.421   0.703   5.638 -0.3555  0.0723  0.3177
   11MOL    C81 3901   6.238   0.817   5.730  0.0404 -0.1631  0.2753
   11MOL    O82 3902   6.229   0.955   5.686  0.5131 -0.2505  0.7227
   11MOL    C83 3903   6.160   1.044   5.759  0.0972 -0.1241  0.1365
   11MOL    C84 3904   6.085   1.007   5.870  0.4614 -0.1624 -0.0079
   11MOL    C85 3905   6.016   1.106   5.938  0.0346 -1.0110 -0.7724
   11MOL    C86 3906   6.033   1.243   5.906  0.0451 -0.0886 -0.2612
   11MOL    C87 3907   6.116   1.283   5.797 -0.1392 -0.0410 -0.3648
   11MOL    C88 3908   6.177   1.179   5.715  0.1585 -0.6312  0.2781
   11MOL    H89 3909   6.352   0.527   5.557  0.0539 -1.3919  0.5190
   11MOL    H90 3910   6.264   0.775   5.523  1.0251  1.8886  0.4856
   11MOL    H91 3911   6.311   0.809   5.810 -0.2029  1.0139  0.6299
   11MOL    H92 3912   6.146   0.777   5.774 -0.5917  0.1290 -0.7669
   11MOL    H93 3913   6.069   0.911   5.916 -0.4004  1.0832  2.4253
   11MOL    H94 3914   5.955   1.083   6.023  2.0447 -3.3949  0.0863
   11MOL    H95 3915   5.980   1.319   5.960  1.3948  0.3949  0.3987
   11MOL    H96 3916   6.116   1.386   5.766  0.7097 -0.2112 -0.9617
   11MOL    C97 3917   6.256   1.214   5.595 -0.3256  0.0148  0.2648
   11MOL    C98 3918   6.193   1.232   5.461  0.0371 -0.4157  0.2287
   11MOL    O99 3919   6.216   1.346   5.545 -0.6207  0.0989  0.0617
   11MOL   C100 3920   6.049   1.204   5.434 -1.1851  0.4778 -0.2882
   11MOL   O101 3921   6.024   1.205   5.290 -0.5959 -0.6798 -0.4514
   11MOL   C102 3922   5.952   1.316   5.243  0.5016 -0.0363  0.1053
   11MOL   C103 3923   5.972   1.448   5.287 -0.7806  0.1958 -0.6920
   11MOL   C104 3924   5.892   1.553   5.233  0.1569 -0.3263  0.3181
   11MOL   C105 3925   5.809   1.528   5.128 -0.0293  0.1254  0.2021
   11MOL   C106 3926   5.779   1.391   5.089  0.0038 -0.0310 -0.4492
   11MOL   C107 3927   5.857   1.290   5.144 -0.0492 -0.0003 -0.2319
   11MOL   H108 3928   6.360   1.186   5.607 -0.2624  0.4606  0.7944
   11MOL   H109 3929   6.261   1.239   5.376 -0.8239 -0.3154 -0.4650
   11MOL   H110 3930   5.987   1.267   5.497 -0.5549 -0.3709  1.1924
   11MOL   H111 3931   6.046   1.099   5.461  2.7261  0.3655 -0.0142
   11MOL   H112 3932   6.048   1.462   5.363  0.1634  0.6281 -1.7013
   11MOL   H113 3933   5.902   1.651   5.278 -1.1858 -1.1497  2.5336
   11MOL   H114 3934   5.747   1.600   5.077  1.8840  1.2515 -0.5651
   11MOL   H115 3935   5.704   1.378   5.012 -0.2721  1.2001 -0.4047
   11MOL   C116 3936   5.842   1.157   5.073 -0.3980 -0.7569  0.0132
   11MOL   C117 3937   5.789   1.037   5.136  0.8110 -0.3779  0.0921
   11MOL   O118 3938   5.704   1.119   5.052 -0.3995  1.0005 -0.2091
   11MOL   C119 3939   5.757   1.025   5.283  0.9844  0.1567 -0.0010
   11MOL   O120 3940   5.707   0.897   5.318 -0.4201  0.0825 -0.1073
   11MOL   C121 3941   5.786   0.782   5.318 -0.7454 -0.2343  0.0459
   11MOL   C122 3942   5.924   0.777   5.337  0.5370  0.9149 -0.6343
   11MOL   C123 3943   5.999   0.664   5.325  0.0808  0.2685  0.3884
   11MOL   C124 3944   5.936   0.547   5.285 -0.0442 -0.2120 -0.0464
   11MOL   C125 3945   5.800   0.545   5.267  0.1821 -0.4379  0.0702
   11MOL   C126 3946   5.717   0.661   5.289  0.2658 -0.5262  0.8154
   11MOL   H127 3947   5.898   1.140   4.981 -0.7907 -1.6220 -0.0650
   11MOL   H128 3948   5.829   0.948   5.088  0.4724  0.5102 -1.8933
   11MOL   H129 3949   5.685   1.097   5.322 -0.7201 -1.3317 -0.3399
   11MOL   H130 3950   5.846   1.062   5.334 -0.1570  3.5434 -0.3402
   11MOL   H131 3951   5.985   0.864   5.358  1.0770  0.2068  0.7725
   11MOL   H132 3952   6.107   0.665   5.327  0.1084  0.4811 -0.7090
   11MOL   H133 3953   5.986   0.457   5.252 -1.0305 -0.0943 -1.8925
   11MOL   H134 3954   5.751   0.462   5.219  0.3182  0.0802 -0.9838
   11MOL   C135 3955   5.569   0.658   5.292  0.6355 -0.3958  0.1233
   11MOL   C136 3956   5.482   0.698   5.174  0.2763 -0.2242  0.4500
   11MOL   O137 3957   5.518   0.560   5.204  0.5806  0.5662  0.1746
   11MOL   C138 3958   5.534   0.757   5.039  0.0234  0.5507 -0.0978
   11MOL   O139 3959   5.451   0.850   4.973  0.1598 -0.3351  0.7835
   11MOL   C140 3960   5.333   0.803   4.907  0.2975  0.2012  0.0127
   11MOL   C141 3961   5.286   0.666   4.910 -0.2678 -0.5020 -0.2873
   11MOL   C142 3962   5.175   0.630   4.833  0.0807  0.3940 -0.4952
   11MOL   C143 3963   5.101   0.727   4.769  0.3708 -0.0413 -0.1785
   11MOL   C144 3964   5.140   0.858   4.770  0.1308 -0.3989  1.2307
   11MOL   C145 3965   5.260   0.900   4.840  0.3954  0.0597 -0.8996
   11MOL   H146 3966   5.515   0.649   5.386 -0.9863 -2.6293 -0.9665
   11MOL   H147 3967   5.380   0.734   5.183  0.8621  1.6386 -0.0167
   11MOL   H148 3968   5.569   0.672   4.980 -0.7094 -1.9956  3.0099
   11MOL   H149 3969   5.617   0.824   5.059  1.0833  0.1271 -2.9175
   11MOL   H150 3970   5.351   0.588   4.947  2.7593  2.2449  0.4826
   11MOL   H151 3971   5.141   0.528   4.831  0.3259  0.3132 -0.4624
   11MOL   H152 3972   5.012   0.708   4.710  2.7054 -1.1171 -3.4945
   11MOL   H153 3973   5.077   0.931   4.721 -0.0502 -0.2153  1.7384
   11MOL   C154 3974   5.292   1.050   4.845  0.4546 -0.5775  0.7291
   11MOL   C155 3975   5.425   1.120   4.804 -0.5729  0.0523  0.6023
   11MOL   O156 3976   5.315   1.104   4.715 -0.1729 -0.7403  0.6190
   11MOL   C157 3977   5.547   1.047   4.753 -0.7673 -0.5605  0.5096
   11MOL   O158 3978   5.580   1.132   4.641  0.7984  1.0079  0.0966
   11MOL   C159 3979   5.693   1.084   4.579 -0.3108  0.9026  0.0584
   11MOL   C160 3980   5.784   0.986   4.627 -0.6407  0.4080 -0.0457
   11MOL   C161 3981   5.897   0.948   4.556 -0.6835 -0.2639  0.0457
   11MOL   C162 3982   5.914   0.992   4.422  0.3741  0.8114  0.0453
   11MOL   C163 3983   5.824   1.091   4.371  0.1189 -0.5159  0.0897
   11MOL   C164 3984   5.714   1.143   4.451  0.1470  0.4721  0.0664
   11MOL   H165 3985   5.221   1.098   4.912  0.3504 -0.1835  0.3430
   11MOL   H166 3986   5.460   1.222   4.821  2.2679 -0.5049 -1.6261
   11MOL   H167 3987   5.526   0.943   4.726 -0.5995 -0.5811  0.4592
   11MOL   H168 3988   5.621   1.048   4.832 -0.8999  1.3542  0.6358
   11MOL   H169 3989   5.777   0.944   4.726 -1.2015  0.6938  0.0389
   11MOL   H170 3990   5.964   0.868   4.582  0.3384 -0.1436 -2.0906
   11MOL   H171 3991   5.996   0.963   4.358 -0.4020  0.7698 -0.9540
   11MOL   H172 3992   5.832   1.115   4.266 -3.1186  0.5401  0.0308
   11MOL   C173 3993   5.608   1.232   4.391  0.7015 -0.6566  0.2834
   11MOL   C174 3994   5.622   1.384   4.387  0.2768  0.0940 -0.0677
   11MOL   O175 3995   5.649   1.305   4.275  0.0232  0.4753  0.7026
   11MOL   C176 3996   5.739   1.457   4.442  0.2294 -0.2248 -0.2668
   11MOL   O177 3997   5.723   1.599   4.426 -0.2976 -0.0892  0.2759
   11MOL   C178 3998   5.752   1.655   4.310 -0.2634  0.2994 -0.7053
   11MOL   C179 3999   5.809   1.581   4.201 -0.5427 -0.0850  0.5637
   11MOL   C180 4000   5.847   1.648   4.079  0.5250  0.5767 -0.6352
   11MOL   C181 4001   5.818   1.785   4.065  0.1245 -0.5887  0.5865
   11MOL   C182 4002   5.739   1.852   4.156 -0.3284  0.0067  0.6478
   11MOL   C183 4003   5.713   1.790   4.283  0.2044 -0.7044 -0.0331
   11MOL   H184 4004   5.508   1.188   4.380  0.0903  0.2616  2.0418
   11MOL   H185 4005   5.541   1.447   4.352 -0.1550 -0.6006 -0.3262
   11MOL   H186 4006   5.832   1.409   4.410 -0.4805 -3.0644  1.6837
   11MOL   H187 4007   5.730   1.449   4.550  0.3475  1.6422 -0.1117
   11MOL   H188 4008   5.822   1.474   4.192  1.3714  0.2110 -0.5319
   11MOL   H189 4009   5.886   1.581   4.004 -1.7033 -2.4344  0.7993
   11MOL   H190 4010   5.848   1.850   3.984 -0.8822  0.8998  1.3826
   11MOL   H191 4011   5.712   1.956   4.143  0.3563  0.2386  1.0281
   11MOL   C192 4012   5.644   1.867   4.399 -0.3058  0.0105  1.0153
   11MOL   C193 4013   5.716   1.951   4.501 -0.2840 -0.4243  0.4567
   11MOL   O194 4014   5.666   2.007   4.381  0.2340  0.2733 -0.4483
   11MOL   C195 4015   5.865   1.959   4.524 -0.8937 -0.6683  0.7263
   11MOL   O196 4016   5.917   1.948   4.657 -0.0287  0.0859  0.1970
   11MOL   C197 4017   5.927   1.822   4.711 -0.5042 -0.1177 -0.3814
   11MOL   C198 4018   5.942   1.702   4.632 -0.3408  0.5686  0.2467
   11MOL   C199 4019   5.952   1.579   4.703 -0.6210  0.4348  0.0079
   11MOL   C200 4020   5.970   1.572   4.841  0.2467  0.1967 -0.1196
   11MOL   C201 4021   5.961   1.697   4.913  0.5445  0.6014  0.2027
   11MOL   C202 4022   5.945   1.820   4.851  0.8611  0.5393 -0.2411
   11MOL   H203 4023   5.538   1.845   4.411  0.0892 -2.1276  0.7455
   11MOL   H204 4024   5.652   1.975   4.586 -1.6514 -1.9223 -0.1267
   11MOL   H205 4025   5.897   2.061   4.506 -0.2147 -0.8299  0.9871
   11MOL   H206 4026   5.917   1.902   4.446  2.7062 -0.0917  2.5717
   11MOL   H207 4027   5.937   1.695   4.524 -2.1813 -0.8879  0.3898
   11MOL   H208 4028   5.949   1.491   4.641 -2.9626 -0.8432  1.8442
   11MOL   H209 4029   5.991   1.481   4.895  2.5970 -0.7186 -2.5380
   11MOL   H210 4030   5.990   1.702   5.016  2.6580  0.2702 -0.3602
   11MOL   C211 4031   5.960   1.945   4.932 -0.5460 -0.1596 -0.2273
   11MOL   C212 4032   5.856   1.995   5.026  0.0805  0.4876 -0.4514
   11MOL   O213 4033   5.969   1.926   5.076 -0.3001  0.1551  0.5330
   11MOL   C214 4034   5.731   1.920   5.061 -0.4143 -0.2644  0.2986
   11MOL   O215 4035   5.663   1.838   4.966 -0.5125 -0.5377  0.2076
   11MOL   C216 4036   5.547   1.766   5.000 -0.2735 -0.1040 -0.3571
   11MOL   C217 4037   5.480   1.797   5.121  0.1134 -0.6881  0.1141
   11MOL   C218 4038   5.367   1.726   5.167  0.0360 -0.3188  0.6310
   11MOL   C219 4039   5.314   1.625   5.087  0.1908  0.0422 -0.1502
   11MOL   C220 4040   5.382   1.592   4.966 -0.2786 -0.5081 -0.5934
   11MOL   C221 4041   5.496   1.660   4.914 -0.3908  0.6648 -0.5668
   11MOL   H222 4042   6.019   2.023   4.884 -1.6731  1.0876  0.3695
   11MOL   H223 4043   5.852   2.099   5.058 -0.8269  0.0447  0.9550
   11MOL   H224 4044   5.662   1.995   5.100  0.0431 -0.6526  1.8984
   11MOL   H225 4045   5.757   1.853   5.144 -4.7442 -1.8176  0.5347
   11MOL   H226 4046   5.519   1.873   5.187  1.4967 -0.0368 -1.4203
   11MOL   H227 4047   5.329   1.756   5.264 -0.8145  1.6339 -0.2674
   11MOL   H228 4048   5.237   1.563   5.132  0.4228 -0.2532 -0.1548
   11MOL   H229 4049   5.350   1.506   4.909  0.5346 -0.9482 -0.4034
   11MOL   C230 4050   5.552   1.630   4.779  0.3619 -0.7118  0.1603
   11MOL   C231 4051   5.469   1.620   4.651  0.6383  0.4219 -0.1442
   11MOL   O232 4052   5.533   1.740   4.692  0.1060 -0.6018 -0.2536
   11MOL   C233 4053   5.324   1.639   4.643  0.5744 -0.4558 -0.9015
   11MOL   O234 4054   5.294   1.666   4.510 -0.3012  0.3438  0.0474
   11MOL   C235 4055   5.167   1.698   4.473 -0.4201 -0.5807 -0.1571
   11MOL   C236 4056   5.055   1.689   4.568  0.4183  0.0160  0.6371
   11MOL   C237 4057   4.929   1.734   4.532 -0.0079 -0.7269  0.1306
   11MOL   C238 4058   4.904   1.764   4.395 -0.6367 -0.5683 -0.1335
   11MOL   C239 4059   5.007   1.763   4.301  0.1814 -0.5541  0.2282
   11MOL   C240 4060   5.142   1.735   4.344  0.5714 -0.5967 -0.2191
   11MOL   H241 4061   5.658   1.604   4.782 -0.1483 -2.6268  1.8599
   11MOL   H242 4062   5.509   1.562   4.568  0.3630  0.2023 -0.1243
   11MOL   H243 4063   5.292   1.718   4.711 -1.3083 -0.9246 -1.2126
   11MOL   H244 4064   5.282   1.543   4.675  2.7651 -1.5467 -1.2167
   11MOL   H245 4065   5.065   1.660   4.672  2.6729 -1.5829 -0.0044
   11MOL   H246 4066   4.844   1.731   4.599 -0.5855 -1.2003 -0.6188
   11MOL   H247 4067   4.805   1.798   4.370  0.2308  1.7221 -0.6175
   11MOL   H248 4068   5.001   1.796   4.199  1.0917  0.8239  0.6108
   11MOL   C249 4069   5.262   1.762   4.262  0.1777 -0.1642 -0.2453
   11MOL   C250 4070   5.334   1.656   4.173  0.3129 -0.2395  1.2009
   11MOL   O251 4071   5.242   1.749   4.120  0.3187 -0.3549  0.0402
   11MOL   C252 4072   5.310   1.509   4.175  0.1228  0.0704 -0.0216
   11MOL   O253 4073   5.401   1.428   4.107  0.0976 -0.1406  0.0118
   11MOL   C254 4074   5.403   1.430   3.970  0.6627 -0.0221 -1.0044
   11MOL   C255 4075   5.289   1.484   3.896 -0.6474  0.4024 -0.3206
   11MOL   C256 4076   5.301   1.495   3.754  0.3798 -0.5813 -0.0377
   11MOL   C257 4077   5.405   1.437   3.687 -0.1107  0.0528 -0.7439
   11MOL   C258 4078   5.513   1.381   3.752 -0.5177 -0.4242 -0.5307
   11MOL   C259 4079   5.515   1.378   3.896 -0.0710  0.1094  0.7777
   11MOL   H260 4080   5.317   1.852   4.286  1.0135 -0.7685  0.1447
   11MOL   H261 4081   5.438   1.676   4.147 -0.3646  0.0319 -1.4475
   11MOL   H262 4082   5.206   1.488   4.149  0.0642 -0.0532  0.3135
   11MOL   H263 4083   5.328   1.488   4.280  3.2657  1.3003 -0.2575
   11MOL   H264 4084   5.205   1.526   3.949 -0.8568  2.1751 -2.0069
   11MOL   H265 4085   5.222   1.542   3.698  1.5012 -0.3808 -1.4731
   11MOL   H266 4086   5.424   1.438   3.581 -1.0766 -0.0274 -0.9284
   11MOL   H267 4087   5.601   1.345   3.700 -1.0356  1.1995 -2.6159
   11MOL   C268 4088   5.625   1.308   3.981  0.4068 -0.2611 -0.3834
   11MOL   C269 4089   5.626   1.161   4.008  0.1339  0.7096  0.4961
   11MOL   O270 4090   5.694   1.212   3.896 -0.5218 -0.2232  0.3144
   11MOL   C271 4091   5.508   1.070   3.979  0.5500 -0.3402  1.0623
   11MOL   O272 4092   5.410   1.091   4.076  0.1383 -0.0636  0.1839
   11MOL   C273 4093   5.401   1.013   4.182 -0.4337  0.3595  1.2282
   11MOL   C274 4094   5.489   0.909   4.212 -0.2753  0.3528  0.2088
   11MOL   C275 4095   5.494   0.860   4.349  0.0209  0.0262  0.9501
   11MOL   C276 4096   5.392   0.893   4.443 -0.5133 -0.4045  0.2861
   11MOL   C277 4097   5.295   0.986   4.406  0.6483 -0.1699 -0.0986
   11MOL   C278 4098   5.306   1.053   4.279 -0.5292 -0.3277 -0.0058
   11MOL   H279 4099   5.697   1.370   4.035 -0.7835 -0.6574  1.6659
   11MOL   H280 4100   5.698   1.111   4.072 -0.0845 -0.6610 -0.3023
   11MOL   H281 4101   5.531   0.965   3.961 -3.4182 -0.8841 -1.7262
   11MOL   H282 4102   5.466   1.099   3.882 -1.1543  0.7522  2.1034
   11MOL   H283 4103   5.572   0.885   4.148 -0.9853 -0.7781 -0.2998
   11MOL   H284 4104   5.572   0.790   4.377 -1.3979 -2.2796 -0.6144
   11MOL   H285 4105   5.389   0.862   4.546  0.7189  1.2546  0.8475
   11MOL   H286 4106   5.225   1.026   4.478  2.9195 -0.5756  2.4220
   11MOL   C287 4107   5.209   1.166   4.239  0.1309 -0.5884 -0.5741
   11MOL   C288 4108   5.073   1.146   4.180 -0.0056  0.5808 -0.5206
   11MOL   O289 4109   5.087   1.163   4.316  0.6368  0.0994  0.4129
   11MOL   C290 4110   5.013   1.014   4.125 -0.0957 -0.4230  0.1566
   11MOL   O291 4111   4.875   1.041   4.093 -0.1425  0.9794 -0.0693
   11MOL   C292 4112   4.805   0.946   4.026  0.5980  0.1905  0.1542
   11MOL   C293 4113   4.840   0.806   4.021  0.5588 -0.1114 -0.2178
   11MOL   C294 4114   4.765   0.720   3.947  1.1003 -0.3520 -0.1422
   11MOL   C295 4115   4.646   0.765   3.880 -0.3852  0.1600 -0.5181
   11MOL   C296 4116   4.613   0.901   3.885 -0.2175  0.1709 -0.3838
   11MOL   C297 4117   4.695   0.992   3.953 -0.4153 -0.4902 -0.6400
   11MOL   H298 4118   5.248   1.262   4.271 -2.2874  0.5864 -1.1212
   11MOL   H299 4119   5.038   1.226   4.117 -2.4351  0.0236  0.0719
   11MOL   H300 4120   5.023   0.938   4.203 -0.8833  0.9553  1.6399
   11MOL   H301 4121   5.065   0.979   4.036 -0.0585  1.7474 -0.7046
   11MOL   H302 4122   4.917   0.770   4.088  0.2299  1.0685  0.8311
   11MOL   H303 4123   4.782   0.614   3.942 -0.8319 -0.6635 -0.3659
   11MOL   H304 4124   4.580   0.693   3.833 -0.2974 -0.6541  0.5839
   11MOL   H305 4125   4.520   0.932   3.842 -1.1549 -0.8816  0.8345
   11MOL   C306 4126   4.657   1.133   3.960 -0.3037 -0.5147  0.2195
   11MOL   C307 4127   4.728   1.253   3.897 -0.7377  0.5931  0.2042
   11MOL   O308 4128   4.613   1.188   3.835 -0.0668 -0.4599 -0.1631
   11MOL   C309 4129   4.853   1.231   3.820 -0.3129  0.4358  0.5006
   11MOL   O310 4130   4.840   1.297   3.693 -0.7695  0.5027 -0.4053
   11MOL   C311 4131   4.922   1.241   3.601 -0.5602  0.9361  0.0489
   11MOL   C312 4132   5.057   1.273   3.576 -0.0490 -0.2997 -0.3924
   11MOL   C313 4133   5.136   1.218   3.477  0.3256  0.0435  0.0421
   11MOL   C314 4134   5.086   1.114   3.404 -0.5832  0.4140 -0.1844
   11MOL   C315 4135   4.954   1.068   3.436 -0.1794 -0.5750 -0.1556
   11MOL   C316 4136   4.870   1.133   3.530  0.1300 -0.3245 -0.3840
   11MOL   H317 4137   4.585   1.156   4.039 -0.3902 -3.4134  1.0489
   11MOL   H318 4138   4.698   1.355   3.919 -1.0887  0.6139 -0.3527
   11MOL   H319 4139   4.873   1.124   3.809 -1.8771  0.3491 -1.8682
   11MOL   H320 4140   4.938   1.281   3.866 -2.2218  4.0992  0.2386
   11MOL   H321 4141   5.105   1.350   3.635 -0.4413  0.8438 -1.5548
   11MOL   H322 4142   5.237   1.257   3.466  1.0846 -1.5252  1.2088
   11MOL   H323 4143   5.154   1.053   3.346  0.2140  1.8928 -0.8229
   11MOL   H324 4144   4.925   0.971   3.398 -0.0165 -1.3882  1.7721
   11MOL   C325 4145   4.730   1.075   3.561  0.3564  0.1134  1.1172
   11MOL   C326 4146   4.606   1.146   3.536 -0.0023 -0.0378 -0.3728
   11MOL   O327 4147   4.656   1.059   3.437  0.3128  0.2730  0.7432
   11MOL   C328 4148   4.600   1.289   3.494  0.2918  0.2344 -0.2573
   11MOL   O329 4149   4.504   1.310   3.389 -0.1250  0.6539 -0.4168
   11MOL   C330 4150   4.366   1.339   3.416 -0.0447 -0.2480 -0.0688
   11MOL   C331 4151   4.321   1.406   3.534 -0.5182 -0.5465  0.0315
   11MOL   C332 4152   4.191   1.444   3.552  0.5596 -0.4622 -0.3913
   11MOL   C333 4153   4.086   1.404   3.466 -0.0689  0.1442 -0.1566
   11MOL   C334 4154   4.129   1.323   3.359  0.6869 -0.2493 -0.4824
   11MOL   C335 4155   4.266   1.303   3.325  0.1192  0.2580  0.2646
   11MOL   H336 4156   4.727   1.006   3.645  1.9795 -0.0410  1.0609
   11MOL   H337 4157   4.516   1.104   3.582 -0.2313 -0.2929 -1.0387
   11MOL   H338 4158   4.693   1.315   3.444  0.8319  0.8013  1.0144
   11MOL   H339 4159   4.582   1.362   3.574 -1.4974  1.7849 -2.0241
   11MOL   H340 4160   4.391   1.440   3.609  0.7802 -2.0312 -0.4936
   11MOL   H341 4161   4.166   1.510   3.634 -0.6657  1.6588 -2.4229
   11MOL   H342 4162   3.982   1.433   3.472 -0.6925 -2.0764  0.2829
   11MOL   H343 4163   4.048   1.293   3.296  1.9585 -0.8435 -1.8686
   11MOL   C344 4164   4.300   1.237   3.197 -0.1929 -0.4222 -0.0058
   11MOL   C345 4165   4.338   1.088   3.200  0.6269 -0.1314  0.3606
   11MOL   O346 4166   4.206   1.132   3.168  0.5450  0.1228  0.2486
   11MOL   C347 4167   4.343   0.992   3.328 -0.6470 -0.0112 -0.0883
   11MOL   O348 4168   4.383   0.860   3.302  0.2356 -0.1523  0.2417
   11MOL   C349 4169   4.283   0.766   3.283  0.5954 -0.1104  0.0062
   11MOL   C350 4170   4.152   0.797   3.242  0.3450  0.3645  0.4167
   11MOL   C351 4171   4.052   0.691   3.237  0.2470 -0.4493 -0.3286
   11MOL   C352 4172   4.088   0.565   3.286  0.1027 -0.4609 -0.3480
   11MOL   C353 4173   4.220   0.534   3.322 -0.3315  0.0491  0.3654
   11MOL   C354 4174   4.319   0.633   3.320 -0.1979  0.2834 -0.1186
   11MOL   H355 4175   4.337   1.301   3.116 -1.2940 -0.0014 -0.1797
   11MOL   H356 4176   4.403   1.056   3.119 -0.0231  1.8387 -0.9585
   11MOL   H357 4177   4.260   1.006   3.398 -0.7019 -0.2523 -0.1035
   11MOL   H358 4178   4.436   1.027   3.373 -1.5010 -1.1866  2.6853
   11MOL   H359 4179   4.140   0.898   3.206 -0.9587  0.3109  0.6795
   11MOL   H360 4180   3.951   0.713   3.204 -0.3026 -0.3978  1.3697
   11MOL   H361 4181   4.020   0.481   3.285  0.3757 -0.6757 -1.0062
   11MOL   H362 4182   4.241   0.433   3.353  1.0131 -0.3522 -1.7246
   11MOL   C363 4183   4.457   0.607   3.370 -1.0976  0.0188  0.4301
   11MOL   C364 4184   4.498   0.584   3.515  0.0043 -0.1358  0.5753
   11MOL   O365 4185   4.495   0.478   3.422 -0.2033  0.3083 -0.2074
   11MOL   C366 4186   4.399   0.554   3.620  0.4105 -0.0018  0.1807
   11MOL   O367 4187   4.472   0.489   3.721 -0.1490  0.1383 -0.1466
   11MOL   C368 4188   4.407   0.467   3.840 -0.3091 -0.2539  0.0883
   11MOL   C369 4189   4.491   0.442   3.951  0.1876  0.3392 -0.7854
   11MOL   C370 4190   4.435   0.428   4.079 -0.4192  0.0565  0.1247
   11MOL   C371 4191   4.294   0.430   4.098  0.0512 -1.3391 -0.0311
   11MOL   C372 4192   4.207   0.442   3.986 -0.1718  0.4317 -0.4624
   11MOL   C373 4193   4.267   0.466   3.855  0.5159  0.2110 -0.3704
   11MOL   H374 4194   4.528   0.654   3.301 -1.9911 -0.6443 -0.9695
   11MOL   H375 4195   4.586   0.645   3.537  0.4013  0.6040 -2.6692
   11MOL   H376 4196   4.320   0.489   3.583 -1.2227  0.6066  2.4827
   11MOL   H377 4197   4.356   0.648   3.655  0.5467 -0.0546  0.4922
   11MOL   H378 4198   4.598   0.442   3.937  0.5584  3.6909  1.5162
   11MOL   H379 4199   4.497   0.428   4.168  1.0152  0.6128 -0.8660
   11MOL   H380 4200   4.251   0.416   4.196 -0.0176 -1.3223 -0.0590
   11MOL   H381 4201   4.100   0.429   3.992  0.2269 -3.4165 -0.8190
   11MOL   H382 4202   4.201   0.485   3.771  1.1817 -0.3390 -1.0260
   12MOL     C1 4203   3.374   5.813   7.531  0.4930  0.4332  0.5478
   12MOL     C2 4204   3.311   5.888   7.653 -0.0895 -1.2077  0.1420
   12MOL     O3 4205   3.294   5.932   7.522  0.0465  0.0332 -0.0249
   12MOL     C4 4206   3.388   5.980   7.749  0.5947  0.3468  0.1629
   12MOL     O5 4207   3.532   5.956   7.726  0.2607  0.0018  0.0200
   12MOL     C6 4208   3.609   5.906   7.837 -0.1769  0.0353 -0.2141
   12MOL     C7 4209   3.599   5.966   7.964  0.0604 -0.3651  0.2021
   12MOL     C8 4210   3.696   5.936   8.066 -0.6399 -0.7442  0.1140
   12MOL     C9 4211   3.798   5.838   8.044 -0.0364  0.5103  0.5525
   12MOL    C10 4212   3.802   5.780   7.921 -0.0801  0.2362  0.0744
   12MOL    C11 4213   3.710   5.810   7.817 -0.1640  0.1694  0.5502
   12MOL    H12 4214   3.323   5.718   7.516 -1.2143  1.2634  1.0314
   12MOL    H13 4215   3.221   5.843   7.694  1.0392 -2.6674  1.0495
   12MOL    H14 4216   3.352   5.948   7.847 -0.6539  0.9926 -0.0788
   12MOL    H15 4217   3.369   6.087   7.735 -0.2780  0.0160 -1.2815
   12MOL    H16 4218   3.536   6.053   7.978 -2.0662 -1.1597 -3.7005
   12MOL    H17 4219   3.688   5.964   0.001  0.0036 -0.1358  0.0080
   12MOL    H18 4220   3.873   5.822   8.120 -0.6352 -2.4615  0.5889
   12MOL    H19 4221   3.878   5.708   7.894  0.6455  1.7472 -2.0882
   12MOL    H20 4222   3.482   5.820   7.520  0.8551 -0.6829  2.9969
   12MOL    C21 4223   3.723   5.751   7.679  0.4338 -0.8178 -0.1142
   12MOL    C22 4224   3.782   5.825   7.564  0.2684 -0.4044  0.3678
   12MOL    O23 4225   3.853   5.728   7.629 -0.0646 -0.0397 -0.1325
   12MOL    C24 4226   3.845   5.960   7.576 -0.0744  0.2819  0.6117
   12MOL    O25 4227   3.898   6.001   7.451 -0.1048  0.2181  0.2223
   12MOL    C26 4228   4.030   5.979   7.418  0.2952  0.3680  0.0619
   12MOL    C27 4229   4.112   5.896   7.495 -0.1325 -0.0533 -0.2170
   12MOL    C28 4230   4.240   5.861   7.449  0.2738 -0.6897  0.2654
   12MOL    C29 4231   4.292   5.925   7.329 -0.3666 -0.0889 -0.3638
   12MOL    C30 4232   4.208   6.010   7.253 -0.0644 -0.4688 -0.7871
   12MOL    C31 4233   4.080   6.037   7.299 -0.3924 -0.1600 -0.0768
   12MOL    H32 4234   3.658   5.664   7.668 -0.2822 -0.4424  1.0202
   12MOL    H33 4235   3.754   5.799   7.462 -2.0182  1.1415  0.5509
   12MOL    H34 4236   3.920   5.951   7.655 -0.2149 -2.8397  0.4421
   12MOL    H35 4237   3.772   6.035   7.608  0.3355  1.5205 -1.3072
   12MOL    H36 4238   4.076   5.847   7.584 -2.2145 -1.5312 -1.8229
   12MOL    H37 4239   4.306   5.790   7.498  0.1804  0.1141  1.5827
   12MOL    H38 4240   4.389   5.892   7.297 -1.1002 -3.6865  0.8250
   12MOL    H39 4241   4.235   6.046   7.155 -0.5838  3.4349  0.4374
   12MOL    C40 4242   3.979   6.118   7.218  0.7529  0.3853 -1.2563
   12MOL    C41 4243   3.960   6.272   7.223 -0.3734  0.6613  0.1393
   12MOL    O42 4244   4.034   6.207   7.124  0.5102  0.1699  0.7224
   12MOL    C43 4245   4.042   6.357   7.317  0.4042 -0.4095 -0.2335
   12MOL    O44 4246   4.041   6.322   7.457  0.3522 -0.2485  0.0864
   12MOL    C45 4247   4.092   6.418   7.541  0.1369  0.3680  0.1914
   12MOL    C46 4248   4.157   6.536   7.492  0.6141 -0.3101 -0.8221
   12MOL    C47 4249   4.213   6.630   7.577  0.9268 -0.6025 -0.7357
   12MOL    C48 4250   4.212   6.607   7.710 -0.2033  0.5801 -0.6846
   12MOL    C49 4251   4.139   6.499   7.771  0.2806 -0.2576 -0.1581
   12MOL    C50 4252   4.077   6.404   7.681 -0.8151 -0.4274  0.3510
   12MOL    H51 4253   3.900   6.059   7.170  0.8578 -0.1483 -0.7834
   12MOL    H52 4254   3.874   6.321   7.178 -0.9803 -0.4944  0.0032
   12MOL    H53 4255   3.999   6.454   7.294  0.8716 -0.1011  0.1558
   12MOL    H54 4256   4.148   6.354   7.289  0.6182  1.8814  0.2818
   12MOL    H55 4257   4.183   6.557   7.389  0.8772  1.9512 -0.3262
   12MOL    H56 4258   4.258   6.721   7.539 -1.6904  0.1361 -2.1748
   12MOL    H57 4259   4.266   6.671   7.778 -0.8700 -0.2828  0.7020
   12MOL    H58 4260   4.126   6.498   7.878 -0.7134  2.6796 -0.2128
   12MOL    C59 4261   4.008   6.288   7.740 -0.1244 -1.1854  0.1532
   12MOL    C60 4262   4.088   6.179   7.816 -0.3576 -0.2576  0.3036
   12MOL    O61 4263   4.021   6.291   7.885  0.2284 -0.2174 -0.1502
   12MOL    C62 4264   4.238   6.177   7.821 -0.1937 -0.6060  0.0845
   12MOL    O63 4265   4.278   6.106   7.942  0.7548  0.5554 -0.0881
   12MOL    C64 4266   4.249   5.974   7.959  0.2497 -0.7336  0.3546
   12MOL    C65 4267   4.224   5.887   7.854  0.1593 -0.2428 -0.2285
   12MOL    C66 4268   4.213   5.747   7.879  0.3333  0.2955 -0.8303
   12MOL    C67 4269   4.222   5.699   8.016 -0.0918  0.8017  0.4449
   12MOL    C68 4270   4.242   5.793   8.123 -0.1512  0.6949  0.4120
   12MOL    C69 4271   4.244   5.933   8.093 -0.0595 -0.1545  0.3122
   12MOL    H70 4272   3.906   6.277   7.705 -0.6256  0.8329  0.9154
   12MOL    H71 4273   4.032   6.086   7.826 -1.0965  0.4530  2.9835
   12MOL    H72 4274   4.270   6.279   7.842  0.4506 -0.7083 -0.3648
   12MOL    H73 4275   4.274   6.148   7.722 -3.9127  2.0115 -2.1574
   12MOL    H74 4276   4.229   5.921   7.751 -0.6815  0.2027 -0.1262
   12MOL    H75 4277   4.203   5.682   7.794  2.5103 -0.9479 -0.1592
   12MOL    H76 4278   4.210   5.594   8.036 -0.9246  0.8678  0.2726
   12MOL    H77 4279   4.248   5.757   0.055  2.9156 -1.4847 -0.4489
   12MOL    C78 4280   4.268   6.030   0.040  0.3719  0.8071  0.3088
   12MOL    C79 4281   4.157   6.118   0.105  0.1015 -0.5026  0.2880
   12MOL    O80 4282   4.202   5.994   0.164  0.3315 -0.1582  0.0556
   12MOL    C81 4283   4.010   6.123   0.061  0.5335 -0.2136 -0.2127
   12MOL    O82 4284   3.926   6.193   0.157  0.5364  0.9575  0.4033
   12MOL    C83 4285   3.887   6.129   0.275 -0.1832  0.5673  0.0053
   12MOL    C84 4286   3.911   5.995   0.300 -0.2019  0.0239  0.4104
   12MOL    C85 4287   3.850   5.928   0.408  0.1770 -0.2047  0.0573
   12MOL    C86 4288   3.766   6.001   0.494  0.5244 -0.2949  0.0344
   12MOL    C87 4289   3.755   6.143   0.477 -0.1971  1.2477 -0.1993
   12MOL    C88 4290   3.812   6.204   0.366  0.6997 -0.1151  0.3523
   12MOL    H89 4291   4.370   6.067   0.052  0.6678  0.4942 -1.0482
   12MOL    H90 4292   4.184   6.205   0.164 -0.9243 -0.3498  0.5481
   12MOL    H91 4293   3.981   6.018   0.056  0.7470 -0.3471  1.2197
   12MOL    H92 4294   4.003   6.169   8.132  1.9283  1.5049  0.4754
   12MOL    H93 4295   3.968   5.934   0.232  0.4131 -0.2845  1.1874
   12MOL    H94 4296   3.851   5.820   0.414  1.3757 -0.1087  1.8622
   12MOL    H95 4297   3.713   5.946   0.570  2.8170  0.1420  2.0187
   12MOL    H96 4298   3.677   6.190   0.535  0.0466 -0.3916  1.4980
   12MOL    C97 4299   3.784   6.353   0.334 -0.4296  0.3582  0.3482
   12MOL    C98 4300   3.651   6.411   0.309 -0.7837 -0.3359  0.6249
   12MOL    O99 4301   3.703   6.412   0.440  0.7492 -0.0275  0.2317
   12MOL   C100 4302   3.541   6.311   0.278  0.1792 -0.5143 -0.7595
   12MOL   O101 4303   3.446   6.363   0.193  0.3951 -0.3897 -0.3996
   12MOL   C102 4304   3.317   6.305   0.193 -0.5855  0.5949  0.7731
   12MOL   C103 4305   3.284   6.189   0.266  0.7074  0.0802 -0.0955
   12MOL   C104 4306   3.155   6.135   0.256 -0.0128 -0.0391 -0.2179
   12MOL   C105 4307   3.059   6.189   0.167  0.0412 -0.1069 -0.5780
   12MOL   C106 4308   3.099   6.305   0.091 -0.1022  0.5448 -0.3344
   12MOL   C107 4309   3.223   6.360   0.103 -0.1223 -0.3132  0.3615
   12MOL   H108 4310   3.872   6.406   0.298 -0.3556  0.5130  0.7562
   12MOL   H109 4311   3.629   6.510   0.270  1.6781 -0.3269 -0.8438
   12MOL   H110 4312   3.500   6.292   0.377 -0.1204  2.9412 -0.1727
   12MOL   H111 4313   3.566   6.210   0.243 -0.6478 -0.2035 -2.3192
   12MOL   H112 4314   3.350   6.139   0.334 -1.0751 -1.0148  0.8662
   12MOL   H113 4315   3.124   6.057   0.323 -0.6803 -0.5642 -1.1228
   12MOL   H114 4316   2.961   6.146   0.155 -0.9283  1.1981  2.2173
   12MOL   H115 4317   3.032   6.350   0.019 -0.4228  0.6783  0.0462
   12MOL   C116 4318   3.266   6.481   0.028 -0.4545  0.3601  0.2576
   12MOL   C117 4319   3.320   6.477   8.057 -0.5316 -0.0753 -0.3673
   12MOL   O118 4320   3.182   6.515   8.082 -0.4423  0.2856 -0.0667
   12MOL   C119 4321   3.338   6.339   7.984  0.5815 -0.3369  1.1360
   12MOL   O120 4322   3.466   6.298   7.959  0.1489 -0.3781  0.1765
   12MOL   C121 4323   3.547   6.372   7.870  0.9147 -0.3180  0.0662
   12MOL   C122 4324   3.495   6.405   7.748 -0.3149 -0.0674 -0.6158
   12MOL   C123 4325   3.572   6.467   7.652  0.2032  0.7012 -0.2699
   12MOL   C124 4326   3.703   6.507   7.689 -0.2422  0.2324  0.5018
   12MOL   C125 4327   3.750   6.488   7.819 -0.5812 -0.3291 -0.1857
   12MOL   C126 4328   3.669   6.419   7.917  0.1054 -1.2494 -0.3222
   12MOL   H127 4329   3.295   6.559   0.099  0.4477 -0.4154  0.7608
   12MOL   H128 4330   3.382   6.552   8.010  2.0732 -1.3650  0.9449
   12MOL   H129 4331   3.285   6.333   7.889  0.1039  2.4249  1.1846
   12MOL   H130 4332   3.286   6.269   8.049  0.6543 -0.0669  1.4924
   12MOL   H131 4333   3.400   6.371   7.709 -0.5446  1.1457 -1.1397
   12MOL   H132 4334   3.534   6.484   7.552 -1.1288 -0.9174 -0.0522
   12MOL   H133 4335   3.772   6.556   7.622 -1.8187 -1.3824 -2.3956
   12MOL   H134 4336   3.843   6.528   7.856 -2.1382  0.8777  2.6243
   12MOL   C135 4337   3.712   6.400   8.059 -0.7062  0.0901 -0.2794
   12MOL   C136 4338   3.738   6.504   8.163 -0.3264  0.2844  0.1391
   12MOL   O137 4339   3.609   6.442   8.151  0.8845 -0.3740  0.6174
   12MOL   C138 4340   3.751   6.651   8.133 -0.0574  0.7340  0.2212
   12MOL   O139 4341   3.769   6.736   0.074 -0.5047 -0.5226 -0.2575
   12MOL   C140 4342   3.662   6.778   0.151 -0.9929  0.1077 -0.2608
   12MOL   C141 4343   3.532   6.766   0.104 -0.5180 -0.0068 -0.1166
   12MOL   C142 4344   3.419   6.818   0.176 -0.3090 -0.7381 -0.2093
   12MOL   C143 4345   3.451   6.899   0.291  0.6529  0.1441 -0.2921
   12MOL   C144 4346   3.584   6.911   0.336  0.1023 -0.5040 -0.2683
   12MOL   C145 4347   3.691   6.845   0.271  0.5946 -0.0251  0.0731
   12MOL   H146 4348   3.739   6.296   8.074  0.7904  0.0657 -2.8197
   12MOL   H147 4349   3.806   6.474   0.073  1.4688 -0.2566 -1.5510
   12MOL   H148 4350   3.667   6.691   8.075 -0.3594  2.1750  1.5998
   12MOL   H149 4351   3.827   6.665   8.056  1.3053 -0.1074  1.3992
   12MOL   H150 4352   3.510   6.706   0.018  0.9934  0.8799 -1.1449
   12MOL   H151 4353   3.324   6.808   0.124 -0.4565  0.7503 -0.2645
   12MOL   H152 4354   3.369   6.952   0.336  1.6191  1.1728  0.2697
   12MOL   H153 4355   3.596   6.953   0.434 -2.2905 -1.1169  0.3088
   12MOL   C154 4356   3.828   6.841   0.328  0.5617 -0.5433  0.1115
   12MOL   C155 4357   3.945   6.916   0.264  0.2877 -0.7656  0.3971
   12MOL   O156 4358   3.874   6.970   0.377  0.1187 -0.6664  0.5612
   12MOL   C157 4359   3.939   6.999   0.138 -0.4128  0.0540  0.3146
   12MOL   O158 4360   4.015   7.119   0.147 -0.4233  0.3254 -0.2715
   12MOL   C159 4361   3.944   7.240   0.165 -0.5393  0.6363 -0.6298
   12MOL   C160 4362   3.820   7.248   0.243 -0.1141  0.0105  1.0728
   12MOL   C161 4363   3.759   7.370   0.261  0.1238 -0.5306 -0.0506
   12MOL   C162 4364   3.816   7.481   0.198  0.2574  0.0540 -0.0071
   12MOL   C163 4365   3.933   7.474   0.125  0.6508  0.0231  0.3814
   12MOL   C164 4366   4.003   7.359   0.110  0.1875  0.1979  0.1255
   12MOL   H165 4367   3.853   6.761   0.397  2.5726  0.9112  1.1165
   12MOL   H166 4368   4.049   6.890   0.281  0.5920 -1.1671 -1.9578
   12MOL   H167 4369   3.834   7.017   0.117 -1.1154 -3.5914  0.5093
   12MOL   H168 4370   3.966   6.943   0.049 -0.9826  2.4382 -1.4116
   12MOL   H169 4371   3.781   7.157   0.286 -0.2773  0.4086  1.7727
   12MOL   H170 4372   3.674   7.372   0.327 -0.9859  2.7605 -1.5029
   12MOL   H171 4373   3.769   7.576   0.216 -0.8888 -0.7726  1.5300
   12MOL   H172 4374   3.980   7.565   0.091 -0.1287  0.8413  1.4524
   12MOL   C173 4375   4.136   7.361   0.034 -0.3958 -0.4337  1.0534
   12MOL   C174 4376   4.160   7.290   8.070  0.5605 -0.1396  0.0999
   12MOL   O175 4377   4.120   7.432   8.079 -0.9610  0.4007  0.0272
   12MOL   C176 4378   4.054   7.203   8.019 -0.4956  0.7741  0.9857
   12MOL   O177 4379   4.072   7.183   7.881 -0.1991  0.2619  0.0483
   12MOL   C178 4380   4.015   7.065   7.835  0.0273  0.1745  0.3601
   12MOL   C179 4381   3.915   6.986   7.903  0.6136 -0.0131  0.6010
   12MOL   C180 4382   3.864   6.874   7.844  0.1529 -0.3112  0.2363
   12MOL   C181 4383   3.912   6.833   7.718 -0.6087 -0.2865 -1.2063
   12MOL   C182 4384   4.004   6.908   7.646  0.0495  0.9986  0.1216
   12MOL   C183 4385   4.055   7.026   7.702 -0.6062  0.5656 -0.5722
   12MOL   H184 4386   4.222   7.377   0.099  0.1281  0.0845  0.2529
   12MOL   H185 4387   4.261   7.263   8.038 -1.0329 -3.7931 -2.1997
   12MOL   H186 4388   3.957   7.251   8.036 -3.2214 -3.6999 -0.9813
   12MOL   H187 4389   4.055   7.107   8.071 -0.4088 -0.8482 -1.9095
   12MOL   H188 4390   3.872   7.009   8.000 -2.9929 -0.5950 -0.7991
   12MOL   H189 4391   3.779   6.817   7.878  0.3557  0.0223  1.3341
   12MOL   H190 4392   3.860   6.745   7.684 -0.2366 -1.5333  1.3005
   12MOL   H191 4393   4.030   6.868   7.549 -0.8155 -0.5499  0.4992
   12MOL   C192 4394   4.138   7.112   7.618  0.5582 -0.4612  0.2337
   12MOL   C193 4395   4.285   7.109   7.588 -0.4420 -0.3213 -0.4931
   12MOL   O194 4396   4.190   7.053   7.499 -0.4668  0.1616 -0.3395
   12MOL   C195 4397   4.382   7.004   7.648 -0.2246 -0.1563  0.0202
   12MOL   O196 4398   4.485   6.975   7.554 -0.4796  0.2384  0.2858
   12MOL   C197 4399   4.598   6.917   7.605 -0.0308 -0.4167  0.3166
   12MOL   C198 4400   4.661   6.966   7.724 -0.6450 -0.2973 -0.3520
   12MOL   C199 4401   4.783   6.913   7.762  0.4139 -0.0125  0.4552
   12MOL   C200 4402   4.849   6.818   7.686  0.4314 -0.2092 -0.6212
   12MOL   C201 4403   4.787   6.764   7.570 -0.2972  0.1211  0.4441
   12MOL   C202 4404   4.664   6.822   7.525  0.7026 -0.2360 -0.6704
   12MOL   H203 4405   4.093   7.209   7.601  0.2115 -0.7059 -0.2521
   12MOL   H204 4406   4.336   7.202   7.561  0.1417 -0.1227  1.2586
   12MOL   H205 4407   4.318   6.919   7.671 -0.8550  0.5951  1.0689
   12MOL   H206 4408   4.413   7.043   7.745  0.4554  0.5914 -0.4914
   12MOL   H207 4409   4.626   7.055   7.774 -0.8842  1.5144 -3.6155
   12MOL   H208 4410   4.832   6.955   7.848  0.1984  3.2058 -0.9411
   12MOL   H209 4411   4.942   6.773   7.717 -0.7049 -1.1389  1.6190
   12MOL   H210 4412   4.836   6.685   7.514 -1.9096 -1.2479  0.9301
   12MOL   C211 4413   4.599   6.771   7.396 -0.1624 -0.0580  0.7580
   12MOL   C212 4414   4.651   6.807   7.254  0.0543 -0.1264 -0.3858
   12MOL   O213 4415   4.683   6.679   7.318 -0.0647 -0.2636  0.0586
   12MOL   C214 4416   4.766   6.896   7.231  0.4796  0.4968  0.0199
   12MOL   O215 4417   4.739   7.034   7.260  0.3862 -0.4495  0.1867
   12MOL   C216 4418   4.658   7.099   7.169  0.5891 -1.2207 -0.7015
   12MOL   C217 4419   4.631   7.055   7.038  0.1342  0.4666  0.2499
   12MOL   C218 4420   4.526   7.114   6.966 -0.1967  1.0687  0.0680
   12MOL   C219 4421   4.452   7.219   7.014  0.0306  0.0133 -0.6500
   12MOL   C220 4422   4.478   7.263   7.146 -1.0155 -0.2768 -0.5079
   12MOL   C221 4423   4.584   7.207   7.222  0.0839  0.4188 -0.0574
   12MOL   H222 4424   4.494   6.745   7.406  0.2134 -2.3920 -0.9140
   12MOL   H223 4425   4.578   6.797   7.173  0.2647  3.6439 -1.1277
   12MOL   H224 4426   4.813   6.881   7.134  1.0467 -2.6300  0.7297
   12MOL   H225 4427   4.848   6.872   7.299  1.0721  1.5241 -0.3147
   12MOL   H226 4428   4.681   6.970   6.993 -1.6634 -1.0499  1.0717
   12MOL   H227 4429   4.498   7.068   6.872  3.6591  0.8423 -1.0426
   12MOL   H228 4430   4.378   7.276   6.961 -1.6429 -0.9959  0.5630
   12MOL   H229 4431   4.414   7.339   7.189  0.0407 -0.0719  0.7429
   12MOL   C230 4432   4.615   7.254   7.358  0.1335 -0.0140  0.1889
   12MOL   C231 4433   4.722   7.362   7.390 -0.0548  0.1790  0.6356
   12MOL   O232 4434   4.581   7.387   7.377 -0.3058 -0.9031 -0.6118
   12MOL   C233 4435   4.813   7.420   7.282  0.1293  0.2621  0.0112
   12MOL   O234 4436   4.859   7.550   7.312 -0.3063  0.5240 -0.5711
   12MOL   C235 4437   4.790   7.661   7.271 -0.2348  0.4837 -0.1801
   12MOL   C236 4438   4.661   7.658   7.213 -0.4259  0.2609 -0.3453
   12MOL   C237 4439   4.593   7.779   7.171 -0.0806 -0.0914  0.0739
   12MOL   C238 4440   4.657   7.904   7.191  0.0961  0.2888  0.6335
   12MOL   C239 4441   4.780   7.908   7.251 -0.4187  0.8328 -0.2428
   12MOL   C240 4442   4.853   7.789   7.283  0.1378 -0.1607 -0.3871
   12MOL   H241 4443   4.588   7.181   7.435  1.4387 -0.4493  0.2435
   12MOL   H242 4444   4.760   7.377   7.491  0.7197 -1.7763  0.6472
   12MOL   H243 4445   4.765   7.409   7.185  2.1947 -0.3457 -0.9698
   12MOL   H244 4446   4.908   7.367   7.288 -0.5279 -1.0792 -1.3714
   12MOL   H245 4447   4.617   7.559   7.207 -1.7545  0.6062  2.8090
   12MOL   H246 4448   4.497   7.782   7.122  1.0127 -1.1868 -2.2651
   12MOL   H247 4449   4.602   7.995   7.171 -0.9207 -0.3225  0.6362
   12MOL   H248 4450   4.820   8.008   7.264 -0.9004  0.8203  1.5707
   12MOL   C249 4451   4.992   7.807   7.342 -0.2521 -0.3583 -0.8093
   12MOL   C250 4452   5.128   7.770   7.280  0.1404  0.3935 -0.1703
   12MOL   O251 4453   5.061   7.892   7.253 -0.2403  0.0525  0.2577
   12MOL   C252 4454   5.148   7.683   7.159  0.0988 -0.5739 -0.0791
   12MOL   O253 4455   5.290   7.659   7.141 -0.1087 -0.0865 -0.0117
   12MOL   C254 4456   5.355   7.719   7.034  0.6002 -0.3135  0.1446
   12MOL   C255 4457   5.324   7.849   6.997  0.4897 -0.1748  0.7065
   12MOL   C256 4458   5.379   7.911   6.885  0.4787  0.1496 -0.4877
   12MOL   C257 4459   5.476   7.843   6.811  0.3906  0.1733  0.3421
   12MOL   C258 4460   5.515   7.710   6.852  0.2237 -0.4830  0.5616
   12MOL   C259 4461   5.464   7.656   6.970  0.1240  0.0855 -0.5076
   12MOL   H260 4462   4.977   7.858   7.437 -1.1755  1.1675 -1.7568
   12MOL   H261 4463   5.217   7.776   7.342 -2.4652  0.8776  3.6889
   12MOL   H262 4464   5.100   7.738   7.080  1.2902  0.9200  0.2140
   12MOL   H263 4465   5.095   7.589   7.176  0.0767 -0.5958 -0.2758
   12MOL   H264 4466   5.245   7.910   7.038  0.0313  0.3341 -0.8759
   12MOL   H265 4467   5.343   8.001   6.838  0.0704 -0.1080 -0.6766
   12MOL   H266 4468   5.516   7.897   6.727 -0.3280 -1.0936 -0.8401
   12MOL   H267 4469   5.596   7.669   6.793 -0.5829 -0.5262 -0.5326
   12MOL   C268 4470   5.518   7.527   7.030 -0.1666  0.3639  0.0528
   12MOL   C269 4471   5.441   7.395   7.018  0.0924  0.0166  0.6033
   12MOL   O270 4472   5.547   7.428   6.928  0.1469  0.0893  0.1214
   12MOL   C271 4473   5.310   7.380   6.935 -0.5725 -0.0902  0.2421
   12MOL   O272 4474   5.295   7.248   6.882 -0.4293 -0.2629  0.1769
   12MOL   C273 4475   5.167   7.199   6.853 -0.4807  0.7118  0.1048
   12MOL   C274 4476   5.044   7.220   6.921  0.5654 -0.1733 -0.1534
   12MOL   C275 4477   4.920   7.175   6.872  0.2555  0.7874 -0.0197
   12MOL   C276 4478   4.916   7.105   6.755 -0.0332 -0.4725  1.0076
   12MOL   C277 4479   5.031   7.076   6.682 -0.6881 -0.1308  0.1994
   12MOL   C278 4480   5.155   7.123   6.727 -0.3501 -0.4779  0.1400
   12MOL   H279 4481   5.599   7.542   7.101 -0.9970 -0.9536  1.3188
   12MOL   H280 4482   5.469   7.307   7.076 -1.7377 -1.2244 -0.3621
   12MOL   H281 4483   5.297   7.455   6.857  2.0736 -0.8435 -0.9889
   12MOL   H282 4484   5.230   7.402   7.005  0.4722  2.0340  0.8150
   12MOL   H283 4485   5.051   7.266   7.018  1.6397 -0.2795 -0.1779
   12MOL   H284 4486   4.830   7.188   6.929  0.9031  1.1152  0.9329
   12MOL   H285 4487   4.820   7.069   6.721 -0.1847 -1.2134  2.2188
   12MOL   H286 4488   5.024   7.010   6.597  0.7100  0.5739 -0.4842
   12MOL   C287 4489   5.273   7.100   6.644  0.1625 -0.2994  0.4673
   12MOL   C288 4490   5.390   7.007   6.678 -0.5746  0.0712  0.2011
   12MOL   O289 4491   5.287   6.970   6.587 -0.3885  0.5089  0.2237
   12MOL   C290 4492   5.406   6.922   6.803  0.0273  0.2896 -0.0665
   12MOL   O291 4493   5.468   6.800   6.773  0.3672 -0.1086  0.4259
   12MOL   C292 4494   5.561   6.738   6.849 -0.7652 -0.6303  0.2469
   12MOL   C293 4495   5.625   6.787   6.962  0.1617  0.5360 -0.7739
   12MOL   C294 4496   5.718   6.706   7.033 -0.0378 -0.3316  0.3732
   12MOL   C295 4497   5.753   6.578   6.977  0.0471  0.6877  0.7860
   12MOL   C296 4498   5.701   6.538   6.854 -0.5117 -0.6796  0.6869
   12MOL   C297 4499   5.610   6.619   6.788  0.1343  0.2667  0.5600
   12MOL   H298 4500   5.290   7.186   6.580  0.1033 -0.5808  0.0674
   12MOL   H299 4501   5.481   7.040   6.628 -0.9412  0.3297 -0.2889
   12MOL   H300 4502   5.305   6.911   6.842 -0.1250  1.1851 -0.2121
   12MOL   H301 4503   5.472   6.978   6.870  0.9390  0.2524 -0.9159
   12MOL   H302 4504   5.600   6.881   7.009 -0.9447  0.1004 -0.4720
   12MOL   H303 4505   5.763   6.732   7.128  0.1878  0.2030  0.1186
   12MOL   H304 4506   5.833   6.524   7.025 -1.2360 -0.3638  1.7975
   12MOL   H305 4507   5.727   6.443   6.809 -0.3314 -0.4065  0.2066
   12MOL   C306 4508   5.544   6.582   6.655  0.0558 -0.4482  0.0580
   12MOL   C307 4509   5.579   6.657   6.525 -0.0130  0.7421 -0.1415
   12MOL   O308 4510   5.642   6.531   6.563 -0.2067 -0.2511 -0.0770
   12MOL   C309 4511   5.677   6.776   6.519  0.1391 -0.2714 -0.0425
   12MOL   O310 4512   5.716   6.801   6.382  0.7910  0.8489  0.0285
   12MOL   C311 4513   5.720   6.934   6.342 -0.2855  0.0111 -0.3763
   12MOL   C312 4514   5.785   7.029   6.425  0.4343  0.6790 -0.0227
   12MOL   C313 4515   5.800   7.161   6.396  0.6742  0.0020 -0.2892
   12MOL   C314 4516   5.738   7.206   6.278 -0.6848 -0.0838  0.2421
   12MOL   C315 4517   5.679   7.114   6.189  0.3719 -0.2681 -0.4612
   12MOL   C316 4518   5.667   6.976   6.221 -0.2859 -0.8874  0.1845
   12MOL   H317 4519   5.463   6.510   6.667 -0.7551  1.0177  4.4153
   12MOL   H318 4520   5.521   6.657   6.433 -0.1151 -1.7540 -0.1104
   12MOL   H319 4521   5.766   6.762   6.581  1.0912 -0.7357 -1.4734
   12MOL   H320 4522   5.619   6.858   6.560 -1.0947 -0.0992 -2.0800
   12MOL   H321 4523   5.843   7.002   6.511  0.2727  0.5414  0.0450
   12MOL   H322 4524   5.846   7.234   6.462  0.2832 -0.2418  0.2645
   12MOL   H323 4525   5.739   7.310   6.247 -0.5518  0.4454  1.9398
   12MOL   H324 4526   5.636   7.152   6.098  1.3201  0.3377 -0.6633
   12MOL   C325 4527   5.585   6.881   6.136  0.1465  0.1885  0.1578
   12MOL   C326 4528   5.430   6.886   6.125 -0.3664  0.5924 -0.1866
   12MOL   O327 4529   5.519   6.943   6.025  0.0372 -0.2205 -0.0840
   12MOL   C328 4530   5.336   6.985   6.202  0.3094 -0.6764 -0.5783
   12MOL   O329 4531   5.194   6.989   6.173 -0.3512 -0.2982  0.5978
   12MOL   C330 4532   5.152   7.029   6.043 -0.9684 -0.0052  0.3485
   12MOL   C331 4533   5.239   7.082   5.943  0.8796  0.3124 -1.3970
   12MOL   C332 4534   5.193   7.102   5.812 -0.0614  1.0249 -0.0289
   12MOL   C333 4535   5.062   7.084   5.785  0.0272  0.1890  0.3679
   12MOL   C334 4536   4.971   7.034   5.885 -0.2649 -1.1792  0.3500
   12MOL   C335 4537   5.020   7.004   6.014  0.0463 -0.3532 -0.8628
   12MOL   H336 4538   5.637   6.789   6.112 -1.5158 -1.4365  2.5299
   12MOL   H337 4539   5.392   6.787   6.102  0.5143  0.3673 -0.7193
   12MOL   H338 4540   5.379   7.084   6.186 -0.9184 -0.3134 -1.6946
   12MOL   H339 4541   5.350   6.970   6.310 -2.0078  0.2529 -0.1189
   12MOL   H340 4542   5.341   7.114   5.960  0.4884 -0.1225  2.1956
   12MOL   H341 4543   5.259   7.134   5.732  0.4595  0.6587  0.2502
   12MOL   H342 4544   5.019   7.097   5.687 -0.3887 -2.1969  0.2152
   12MOL   H343 4545   4.869   7.032   5.850 -0.0050 -1.5018 -0.4036
   12MOL   C344 4546   4.921   6.945   6.115  0.8929  0.4559  0.4800
   12MOL   C345 4547   4.886   7.009   6.251 -0.2020 -0.2271  0.0988
   12MOL   O346 4548   4.810   7.036   6.132 -0.7371 -0.3665 -0.5604
   12MOL   C347 4549   4.950   7.124   6.329 -0.3021  0.4384 -0.0741
   12MOL   O348 4550   5.017   7.218   6.239  0.2361 -0.7732 -0.0589
   12MOL   C349 4551   5.093   7.319   6.305 -0.3498 -0.5339 -0.6081
   12MOL   C350 4552   5.090   7.356   6.447 -0.1869  1.0472  0.2969
   12MOL   C351 4553   5.166   7.459   6.494  0.5851  0.4601  0.1757
   12MOL   C352 4554   5.245   7.541   6.413 -0.1888  0.4456  0.0520
   12MOL   C353 4555   5.247   7.506   6.277 -0.2784 -0.3372  0.4624
   12MOL   C354 4556   5.172   7.398   6.219 -0.5011 -0.0415  0.0787
   12MOL   H355 4557   4.907   6.838   6.108  2.7839  0.1319  1.3490
   12MOL   H356 4558   4.830   6.943   6.317  1.8539 -1.8558  0.2336
   12MOL   H357 4559   5.025   7.078   6.393  0.0249  2.0015  0.6792
   12MOL   H358 4560   4.871   7.173   6.385 -1.3640 -1.1318 -0.1471
   12MOL   H359 4561   5.024   7.307   6.517 -0.1026  0.9017  0.2730
   12MOL   H360 4562   5.158   7.476   6.600  0.7106 -0.8260  0.3998
   12MOL   H361 4563   5.303   7.626   6.447  1.5993 -1.0079  0.7356
   12MOL   H362 4564   5.307   7.570   6.213  0.9509 -2.1685 -0.2440
   12MOL   C363 4565   5.187   7.389   6.069  0.4607  0.1972  0.0867
   12MOL   C364 4566   5.083   7.395   5.955 -0.2471  0.3052 -0.7061
   12MOL   O365 4567   5.141   7.509   6.005  0.6159  0.1508 -0.3874
   12MOL   C366 4568   4.933   7.390   5.977 -0.0290 -0.3423 -0.3405
   12MOL   O367 4569   4.856   7.445   5.878  0.3582 -0.0113 -0.0145
   12MOL   C368 4570   4.788   7.352   5.808  0.3208  0.0581  0.4808
   12MOL   C369 4571   4.701   7.255   5.869 -0.3480 -0.2049  0.0164
   12MOL   C370 4572   4.641   7.150   5.793 -0.9423 -0.6918  0.6917
   12MOL   C371 4573   4.660   7.142   5.654 -0.0312  1.0084  0.1524
   12MOL   C372 4574   4.730   7.247   5.590  0.0392  0.3655 -0.4653
   12MOL   C373 4575   4.800   7.347   5.664  0.1932  0.0771  0.4707
   12MOL   H374 4576   5.286   7.351   6.045 -0.2436 -2.5132  1.1830
   12MOL   H375 4577   5.117   7.372   5.855 -1.4029 -1.6129 -0.6868
   12MOL   H376 4578   4.909   7.425   6.078 -1.5154  0.1888 -0.8604
   12MOL   H377 4579   4.912   7.284   5.994  1.9062 -0.4249  1.7826
   12MOL   H378 4580   4.708   7.243   5.977  1.7556 -1.2810 -0.2022
   12MOL   H379 4581   4.591   7.074   5.852 -1.2995  0.3573  1.7677
   12MOL   H380 4582   4.614   7.060   5.600  0.3423  0.5901  0.4659
   12MOL   H381 4583   4.742   7.239   5.483  0.3948 -3.8753 -0.2123
   12MOL   H382 4584   4.862   7.420   5.613  0.8520  0.7810  2.2395
   13MOL     C1 4585   6.619   7.091   5.537 -0.5695  0.2401  0.9427
   13MOL     C2 4586   6.614   7.127   5.680 -0.3768  0.0895  1.3202
   13MOL     O3 4587   6.569   6.997   5.630 -0.5272  0.4866 -0.0687
   13MOL     C4 4588   6.513   7.222   5.737 -0.6270 -0.1802 -0.1161
   13MOL     O5 4589   6.445   7.285   5.630  0.2608  0.3017  0.2572
   13MOL     C6 4590   6.437   7.422   5.643  1.0492 -0.2588  0.3525
   13MOL     C7 4591   6.364   7.473   5.750  0.2161 -0.5819 -0.5730
   13MOL     C8 4592   6.333   7.608   5.774  0.0127 -0.7958 -0.1125
   13MOL     C9 4593   6.379   7.698   5.669 -0.0552  0.3095  0.2190
   13MOL    C10 4594   6.472   7.650   5.569  0.2172 -0.8731  0.0673
   13MOL    C11 4595   6.490   7.512   5.554 -0.5902 -0.0562 -0.7261
   13MOL    H12 4596   6.712   7.066   5.485  1.1146  2.7983  2.6108
   13MOL    H13 4597   6.710   7.124   5.731  0.9482 -1.0294 -1.1673
   13MOL    H14 4598   6.565   7.299   5.794  0.3248 -2.3218  1.9540
   13MOL    H15 4599   6.457   7.182   5.822 -0.1857 -1.7641 -0.5674
   13MOL    H16 4600   6.317   7.415   5.828  0.2888 -0.2668 -0.2907
   13MOL    H17 4601   6.275   7.643   5.858  1.3076 -1.9285  1.2899
   13MOL    H18 4602   6.351   7.802   5.664 -1.1932 -0.0012  0.0932
   13MOL    H19 4603   6.527   7.714   5.502  0.8420 -1.9773 -0.4793
   13MOL    H20 4604   6.544   7.127   5.466  0.2944  0.5668  0.1785
   13MOL    C21 4605   6.582   7.456   5.450 -0.2479  0.2537 -0.1916
   13MOL    C22 4606   6.526   7.427   5.309  0.2401 -0.0360 -0.2534
   13MOL    O23 4607   6.614   7.535   5.333 -0.0255  0.7406  0.3029
   13MOL    C24 4608   6.382   7.469   5.268 -0.0011 -0.4442 -0.1412
   13MOL    O25 4609   6.348   7.424   5.139  0.7000 -0.6861  0.5787
   13MOL    C26 4610   6.316   7.290   5.116 -0.5052  0.5478  0.3225
   13MOL    C27 4611   6.302   7.195   5.217 -0.1962  0.4196 -0.2603
   13MOL    C28 4612   6.281   7.063   5.184  0.0013  0.5186  0.5052
   13MOL    C29 4613   6.285   7.023   5.049  0.4990  0.0100  0.4814
   13MOL    C30 4614   6.293   7.121   4.947 -0.6673 -0.3819 -0.7729
   13MOL    C31 4615   6.321   7.252   4.981  0.1351 -0.3196  0.0259
   13MOL    H32 4616   6.655   7.382   5.483 -0.9126  0.2135  1.2222
   13MOL    H33 4617   6.580   7.356   5.246  0.7066  1.3959 -1.4998
   13MOL    H34 4618   6.370   7.577   5.257 -0.3517 -0.6942 -2.6098
   13MOL    H35 4619   6.321   7.437   5.352  0.0521 -0.0633  0.0433
   13MOL    H36 4620   6.307   7.219   5.322 -1.2628  0.4950 -0.2302
   13MOL    H37 4621   6.280   6.988   5.261  1.0876  0.7021  0.7123
   13MOL    H38 4622   6.273   6.919   5.023  1.9247  0.2277 -1.1443
   13MOL    H39 4623   6.279   7.093   4.843  2.6199 -2.0332 -0.8197
   13MOL    C40 4624   6.334   7.349   4.868  0.4704  0.8710  0.1658
   13MOL    C41 4625   6.447   7.444   4.850  0.4464  0.0161  0.5641
   13MOL    O42 4626   6.453   7.318   4.795  0.1986 -0.2936  0.3975
   13MOL    C43 4627   6.567   7.464   4.942 -0.4297  0.0168 -0.6506
   13MOL    O44 4628   6.573   7.594   5.001  0.9193 -0.2998  0.2009
   13MOL    C45 4629   6.578   7.706   4.916  0.2676 -0.5203 -0.3822
   13MOL    C46 4630   6.633   7.703   4.781 -0.2462 -0.5652  0.9092
   13MOL    C47 4631   6.637   7.825   4.708  1.0723  0.4393 -1.2056
   13MOL    C48 4632   6.599   7.949   4.766  0.0324  0.0704 -0.2641
   13MOL    C49 4633   6.552   7.953   4.898  0.9570 -0.5840 -0.0090
   13MOL    C50 4634   6.544   7.833   4.969 -0.3539  0.1756  0.5363
   13MOL    H51 4635   6.242   7.369   4.814  0.3618 -0.6960 -0.2448
   13MOL    H52 4636   6.417   7.524   4.782 -1.7147  0.2018  1.7135
   13MOL    H53 4637   6.657   7.453   4.882  0.2506 -0.5931  0.4924
   13MOL    H54 4638   6.572   7.391   5.022  0.2925  0.4605 -0.2868
   13MOL    H55 4639   6.657   7.610   4.732 -0.8330  0.9285 -2.2948
   13MOL    H56 4640   6.672   7.832   4.606  1.2178 -0.9193 -1.2573
   13MOL    H57 4641   6.604   8.032   4.697  1.4549 -0.5665 -0.9327
   13MOL    H58 4642   6.515   8.041   4.950  0.1922 -0.4551 -0.7571
   13MOL    C59 4643   6.488   7.832   5.103 -0.0762  0.5354 -1.1103
   13MOL    C60 4644   6.557   7.843   5.233  0.1368  0.2380  0.2562
   13MOL    O61 4645   6.488   7.956   5.172  0.6274  0.2296  0.4574
   13MOL    C62 4646   6.708   7.862   5.271  0.0324  0.0348 -0.7200
   13MOL    O63 4647   6.701   7.916   5.401  0.3436  0.3168 -0.1872
   13MOL    C64 4648   6.733   8.054   5.419  0.1319 -0.0060  0.0931
   13MOL    C65 4649   6.758   8.148   5.311  0.3844 -0.0348  0.7490
   13MOL    C66 4650   6.821   0.099   5.348  0.5500 -0.3912 -0.5135
   13MOL    C67 4651   6.834   0.138   5.484  0.6179 -0.0002  0.5736
   13MOL    C68 4652   6.798   0.044   5.586 -0.2075 -0.7243  0.1143
   13MOL    C69 4653   6.756   8.088   5.553  0.7703  0.1728 -0.1138
   13MOL    H70 4654   6.396   7.774   5.102  0.1547  0.1459 -0.2574
   13MOL    H71 4655   6.507   7.790   5.314 -1.1543 -0.7264 -1.1395
   13MOL    H72 4656   6.774   7.906   5.197  0.8862  0.7308  0.4509
   13MOL    H73 4657   6.751   7.762   5.274 -0.1225 -0.0346 -0.7939
   13MOL    H74 4658   6.743   8.132   5.205 -0.1846 -1.3785  1.0121
   13MOL    H75 4659   6.830   0.179   5.276  1.0190 -0.0532 -0.0829
   13MOL    H76 4660   6.880   0.234   5.502  0.7480  0.2258 -0.9452
   13MOL    H77 4661   6.816   0.076   5.687 -0.0709  0.8895 -0.4113
   13MOL    C78 4662   6.703   7.991   5.653 -0.5270  0.3397 -0.6450
   13MOL    C79 4663   6.794   7.902   5.740  0.4335 -0.7064 -0.9365
   13MOL    O80 4664   6.754   8.031   5.783 -0.0097 -0.0583  0.5130
   13MOL    C81 4665   6.940   7.881   5.736 -0.5590 -0.5935  0.2315
   13MOL    O82 4666   6.985   7.785   5.833  0.0569  0.4237 -0.2918
   13MOL    C83 4667   6.946   7.652   5.827 -0.3059 -0.2989  0.2034
   13MOL    C84 4668   6.889   7.595   5.707 -0.5175  0.0349 -0.1487
   13MOL    C85 4669   6.855   7.460   5.706  0.1956  0.1352  0.3162
   13MOL    C86 4670   6.856   7.379   5.825  0.4901 -0.1345 -0.0853
   13MOL    C87 4671   6.911   7.437   5.939  0.1305 -0.5283 -0.2530
   13MOL    C88 4672   6.957   7.572   5.945  0.3717 -1.0093 -0.2834
   13MOL    H89 4673   6.595   7.978   5.658 -0.4704  0.2314  0.6410
   13MOL    H90 4674   6.733   7.824   5.785 -1.2271  2.3145  2.2811
   13MOL    H91 4675   6.986   7.979   5.749  0.7538 -0.7062 -3.0006
   13MOL    H92 4676   6.974   7.854   5.636 -0.8589  0.7829 -0.2531
   13MOL    H93 4677   6.887   7.642   5.610 -0.7299 -0.6855 -0.5018
   13MOL    H94 4678   6.835   7.408   5.613  0.7675  0.6781 -0.1169
   13MOL    H95 4679   6.817   7.278   5.824 -0.6888  0.3019  0.0512
   13MOL    H96 4680   6.932   7.378   6.027 -1.8050 -0.6347  0.1507
   13MOL    C97 4681   7.023   7.633   6.070 -0.2448  0.3992 -0.1135
   13MOL    C98 4682   6.953   7.736   6.161  0.0168  0.1251  0.0085
   13MOL    O99 4683   6.957   7.600   6.197  0.4511 -0.2759  0.1201
   13MOL   C100 4684   6.810   7.783   6.134 -0.2215 -0.0420 -0.4445
   13MOL   O101 4685   6.765   7.891   6.215  0.1992 -0.1123  0.2005
   13MOL   C102 4686   6.668   7.966   6.154 -0.2748 -0.5193 -0.2564
   13MOL   C103 4687   6.562   7.927   6.068  0.2220  0.7074 -0.0719
   13MOL   C104 4688   6.468   8.018   6.016  0.2501  0.0034  0.2416
   13MOL   C105 4689   6.472   8.152   6.052  0.3169 -0.5139 -0.5854
   13MOL   C106 4690   6.572   0.025   6.145  0.5533  0.0094 -0.2154
   13MOL   C107 4691   6.668   8.097   6.194 -0.1438  0.1034  0.0120
   13MOL   H108 4692   7.129   7.659   6.066 -0.3778  0.6204 -2.5402
   13MOL   H109 4693   7.015   7.801   6.222 -0.2697  0.9702 -0.5890
   13MOL   H110 4694   6.740   7.699   6.136  0.3931 -0.5386  0.4777
   13MOL   H111 4695   6.809   7.807   6.028 -3.6662 -1.0333 -0.6997
   13MOL   H112 4696   6.546   7.828   6.028  1.1269 -0.5486  2.5860
   13MOL   H113 4697   6.391   7.981   5.950  0.0393  0.3920  0.2662
   13MOL   H114 4698   6.399   0.053   6.015 -0.5073 -1.0997 -0.0824
   13MOL   H115 4699   6.562   0.127   6.178  1.7301  0.8582 -2.4125
   13MOL   C116 4700   6.766   8.137   6.305 -0.0106 -0.1833 -0.7720
   13MOL   C117 4701   6.909   0.005   6.280 -0.3146 -0.3728  0.1409
   13MOL   O118 4702   6.809   0.103   6.302 -0.5649 -0.1984  0.0336
   13MOL   C119 4703   6.972   0.011   6.145 -0.5608 -0.2107  0.3731
   13MOL   O120 4704   7.068   0.117   6.151  0.0124 -0.2801 -0.6344
   13MOL   C121 4705   7.109   0.177   6.034  0.0603 -0.4644  0.6361
   13MOL   C122 4706   7.075   0.132   5.903  0.2938 -0.4935 -0.6892
   13MOL   C123 4707   7.121   0.203   5.791 -0.1515  0.0761 -0.1851
   13MOL   C124 4708   7.197   0.315   5.803  0.2198 -0.0220 -0.1735
   13MOL   C125 4709   7.233   0.362   5.931  0.1615 -0.3383  0.2709
   13MOL   C126 4710   7.189   0.298   6.050 -0.0532  0.1780  0.1099
   13MOL   H127 4711   6.743   8.087   6.399 -2.5169  0.4980 -0.9604
   13MOL   H128 4712   6.980   8.164   6.362 -1.2380  1.2730  1.1875
   13MOL   H129 4713   6.897   0.034   6.070 -0.4361 -2.5556 -0.4897
   13MOL   H130 4714   7.013   8.083   6.121  0.2293 -0.0918  1.2144
   13MOL   H131 4715   7.011   0.045   5.893 -0.8945 -0.0052  2.0392
   13MOL   H132 4716   7.083   0.181   5.692 -0.8440  1.1362 -0.1633
   13MOL   H133 4717   7.212   0.377   5.715  1.4642 -0.9294 -0.6054
   13MOL   H134 4718   7.297   0.448   5.948  0.2461 -0.6820  1.8270
   13MOL   C135 4719   7.234   0.348   6.190 -0.0645  0.3001  0.3484
   13MOL   C136 4720   7.379   0.349   6.240  0.5264  0.8423 -0.0288
   13MOL   O137 4721   7.317   0.463   6.181 -0.3028 -0.2284  0.1373
   13MOL   C138 4722   7.487   0.271   6.165  0.0005 -0.9067 -0.4754
   13MOL   O139 4723   7.621   0.300   6.216  0.0379  0.3825  0.4236
   13MOL   C140 4724   7.675   0.241   6.329 -0.2203 -0.1151  0.1485
   13MOL   C141 4725   7.593   0.174   6.418 -0.4321 -0.9696  0.2036
   13MOL   C142 4726   7.642   0.126   6.543 -0.3403 -0.1219 -0.1866
   13MOL   C143 4727   7.772   0.156   6.581 -0.5299 -0.0255  0.0849
   13MOL   C144 4728   7.861   0.225   6.493  0.0177 -0.1440  0.3770
   13MOL   C145 4729   7.810   0.273   6.363  0.5399  0.3543 -0.0179
   13MOL   H146 4730   7.152   0.351   6.262 -1.0411  0.0297 -0.7350
   13MOL   H147 4731   7.388   0.349   6.348 -1.6986 -2.2480  0.2322
   13MOL   H148 4732   7.483   0.309   6.063  1.5578 -0.0668 -0.2343
   13MOL   H149 4733   7.465   0.165   6.178  0.8312 -1.0095  0.1374
   13MOL   H150 4734   7.489   0.165   6.389 -0.1620  0.4071 -1.2138
   13MOL   H151 4735   7.584   0.072   6.615 -0.0183  1.5525  1.3745
   13MOL   H152 4736   7.798   0.140   6.684  2.1686 -0.7343 -0.6719
   13MOL   H153 4737   7.956   0.258   6.531  0.7735 -1.1796 -0.5860
   13MOL   C154 4738   7.911   0.349   6.282 -0.0376  0.1520  0.1842
   13MOL   C155 4739   7.895   0.496   6.248 -0.1995  0.2072 -0.7844
   13MOL   O156 4740   7.968   0.454   6.363 -0.1418 -0.4315 -0.4941
   13MOL   C157 4741   7.771   0.580   6.272 -0.7003 -0.1601  0.5627
   13MOL   O158 4742   7.787   0.718   6.234  0.3550  0.4102 -1.0944
   13MOL   C159 4743   7.874   0.802   6.297  0.4744 -0.0206 -0.0299
   13MOL   C160 4744   7.915   0.782   6.429  0.3831  0.2790  0.1406
   13MOL   C161 4745   8.010   0.872   6.483 -0.2154  0.8284  0.0659
   13MOL   C162 4746   8.042   0.990   6.416  0.0478  0.7478 -0.8033
   13MOL   C163 4747   7.988   1.017   6.293  0.6260 -0.3906  0.4302
   13MOL   C164 4748   7.900   0.926   6.233  0.9349 -0.1787  0.2357
   13MOL   H165 4749   7.978   0.294   6.217 -0.7080 -0.4111 -0.0369
   13MOL   H166 4750   7.964   0.539   6.175  0.9351 -1.9533 -1.0255
   13MOL   H167 4751   7.765   0.586   6.380 -3.2897  0.7792  0.4064
   13MOL   H168 4752   7.676   0.540   6.237 -1.3950 -0.4901  2.7490
   13MOL   H169 4753   7.890   0.694   6.487  0.8949  0.4569  0.6302
   13MOL   H170 4754   8.049   0.863   6.583  0.2609  2.9244  0.1103
   13MOL   H171 4755   8.106   1.064   6.461  1.4833 -0.0958 -1.4267
   13MOL   H172 4756   8.016   1.105   6.237 -3.5085  0.3920 -0.6480
   13MOL   C173 4757   7.847   0.945   6.090  0.1802 -0.4575  0.0805
   13MOL   C174 4758   7.715   1.019   6.068 -0.0388 -0.0131  0.0766
   13MOL   O175 4759   7.836   1.087   6.063 -0.3511  0.3070  0.2058
   13MOL   C176 4760   7.621   1.058   6.175 -1.2013 -0.2627 -0.0570
   13MOL   O177 4761   7.519   1.145   6.124  0.3252 -0.3017 -0.1774
   13MOL   C178 4762   7.498   1.266   6.200  0.2374 -0.4409  1.1101
   13MOL   C179 4763   7.578   1.383   6.187  0.0048  0.7090 -0.2065
   13MOL   C180 4764   7.554   1.504   6.257 -0.3355 -0.2373 -0.8105
   13MOL   C181 4765   7.435   1.508   6.336 -0.3072  0.2233 -0.3776
   13MOL   C182 4766   7.349   1.395   6.347 -0.4126 -0.7949 -0.1131
   13MOL   C183 4767   7.380   1.273   6.281 -0.6575  0.1366 -0.0409
   13MOL   H184 4768   7.891   0.885   6.011  1.5739 -0.3711  0.7770
   13MOL   H185 4769   7.676   1.004   5.968  1.4541  3.2010 -1.0739
   13MOL   H186 4770   7.675   1.106   6.257  1.0400  1.0018 -2.2221
   13MOL   H187 4771   7.561   0.974   6.212 -0.8112 -0.1286  0.9024
   13MOL   H188 4772   7.656   1.372   6.112  0.0512 -1.6781  0.1539
   13MOL   H189 4773   7.624   1.587   6.258 -0.0606 -0.4471  1.9132
   13MOL   H190 4774   7.397   1.594   6.389 -0.9017  0.1123 -0.6170
   13MOL   H191 4775   7.261   1.399   6.409  0.7218 -0.2101  1.4969
   13MOL   C192 4776   7.292   1.146   6.297  0.4221 -0.1984 -0.1402
   13MOL   C193 4777   7.228   1.089   6.431  0.3297 -0.0844 -0.2199
   13MOL   O194 4778   7.160   1.177   6.341  0.3799 -0.1171 -0.4441
   13MOL   C195 4779   7.246   1.135   6.577 -0.4536 -0.0011 -0.4882
   13MOL   O196 4780   7.139   1.099   6.651  0.0771  0.0471  0.2353
   13MOL   C197 4781   7.109   1.161   6.765 -1.1974  0.0130 -0.4505
   13MOL   C198 4782   7.183   1.260   6.823  0.9254 -0.3318  0.6852
   13MOL   C199 4783   7.150   1.308   6.949  0.2423 -0.0690 -0.3206
   13MOL   C200 4784   7.041   1.256   7.015 -0.5031 -0.2860  0.5180
   13MOL   C201 4785   6.958   1.158   6.953  0.2757 -0.5488  0.2909
   13MOL   C202 4786   6.990   1.115   6.825  1.0704 -0.2870  0.2674
   13MOL   H203 4787   7.307   1.068   6.222 -1.3466 -1.7060  1.0057
   13MOL   H204 4788   7.187   0.989   6.430  1.5690 -0.6250  0.6761
   13MOL   H205 4789   7.257   1.243   6.567 -1.8313 -0.0046 -2.2200
   13MOL   H206 4790   7.340   1.097   6.618 -0.5922  2.4072  2.1851
   13MOL   H207 4791   7.278   1.287   6.779  0.6693 -0.8201 -0.1696
   13MOL   H208 4792   7.213   1.384   6.993 -0.0139  0.0562 -0.1654
   13MOL   H209 4793   7.016   1.302   7.109  0.0495  0.3125  0.3748
   13MOL   H210 4794   6.866   1.132   7.003  0.3410  0.8286  1.1461
   13MOL   C211 4795   6.889   1.025   6.756 -0.4999 -0.4181  0.6738
   13MOL   C212 4796   6.892   0.876   6.769  0.3632 -0.0188  0.5242
   13MOL   O213 4797   6.799   0.960   6.845  0.4699  0.3613 -0.3604
   13MOL   C214 4798   6.990   0.801   6.852  0.2264 -1.1157  0.8622
   13MOL   O215 4799   6.948   0.665   6.869  0.6582 -0.2059 -0.0167
   13MOL   C216 4800   6.987   0.565   6.778  0.1678  0.5224  0.2346
   13MOL   C217 4801   7.048   0.592   6.652  0.2046  0.5278  0.5804
   13MOL   C218 4802   7.097   0.484   6.574  0.9389 -0.2212 -0.4995
   13MOL   C219 4803   7.073   0.351   6.614 -0.0300  0.3071  0.2448
   13MOL   C220 4804   7.011   0.326   6.738 -0.0529 -0.3457  0.1797
   13MOL   C221 4805   6.967   0.431   6.823 -0.5930 -0.0444 -0.2448
   13MOL   H222 4806   6.840   1.082   6.677  0.1962  1.7069  1.7122
   13MOL   H223 4807   6.848   0.826   6.683  1.3081 -1.8609  1.0939
   13MOL   H224 4808   6.991   0.841   6.953  1.0225  0.2005  0.3360
   13MOL   H225 4809   7.090   0.810   6.809 -0.2388 -2.9144 -0.6807
   13MOL   H226 4810   7.063   0.693   6.617 -0.7976  0.9729  1.4226
   13MOL   H227 4811   7.140   0.528   6.486 -0.0293  1.7114 -0.0317
   13MOL   H228 4812   7.103   0.264   6.556  1.0222 -0.5691  2.0541
   13MOL   H229 4813   6.994   0.220   6.747  4.0894 -1.3184 -2.2584
   13MOL   C230 4814   6.907   0.408   6.957 -0.5365 -0.1687 -0.7529
   13MOL   C231 4815   6.754   0.417   6.985 -0.0798  0.0606  0.4490
   13MOL   O232 4816   6.815   0.296   6.937  0.0694  0.2412  0.5033
   13MOL   C233 4817   6.655   0.482   6.889  0.2335 -0.7326 -0.0838
   13MOL   O234 4818   6.544   0.391   6.888  0.2374 -0.3212  0.3072
   13MOL   C235 4819   6.423   0.440   6.830 -0.1396  0.4832 -0.1134
   13MOL   C236 4820   6.406   0.576   6.793 -0.0125 -0.3303 -0.6427
   13MOL   C237 4821   6.279   0.621   6.747  0.4238  0.0734  0.6919
   13MOL   C238 4822   6.172   0.528   6.733  0.2035  0.3056  0.0237
   13MOL   C239 4823   6.193   0.394   6.764 -0.4322  0.1263 -0.0878
   13MOL   C240 4824   6.318   0.345   6.809 -0.4087 -0.1458 -0.4127
   13MOL   H241 4825   6.984   0.398   7.033 -0.6011  1.8444 -0.4012
   13MOL   H242 4826   6.722   0.416   7.089 -0.1364  0.2571  0.4336
   13MOL   H243 4827   6.691   0.507   6.789  0.1861 -1.4073 -0.2712
   13MOL   H244 4828   6.631   0.576   6.938  1.3817 -0.4830  0.0119
   13MOL   H245 4829   6.483   0.651   6.784 -0.8286  0.3523 -2.1594
   13MOL   H246 4830   6.270   0.724   6.714 -0.1272 -0.5636 -1.2289
   13MOL   H247 4831   6.084   0.564   6.681  0.2034  0.2123 -0.0403
   13MOL   H248 4832   6.111   0.325   6.756 -0.7711  0.6430 -1.2416
   13MOL   C249 4833   6.339   0.200   6.828  0.0473 -0.6535  0.3182
   13MOL   C250 4834   6.260   0.120   6.928  0.1788 -0.0387  0.3747
   13MOL   O251 4835   6.227   0.116   6.792 -0.2493 -0.3430  0.2836
   13MOL   C252 4836   6.156   0.179   7.015  0.2835 -0.5250 -0.4112
   13MOL   O253 4837   6.040   0.104   7.016  0.0300 -0.6187  0.1937
   13MOL   C254 4838   5.972   0.112   7.132  0.4231 -0.3363  0.1209
   13MOL   C255 4839   6.025   0.066   7.259  0.1537 -0.3942 -0.3682
   13MOL   C256 4840   5.948   0.075   7.376 -0.7459  0.1314  0.2397
   13MOL   C257 4841   5.809   0.112   7.365 -0.2870 -0.8402 -0.1919
   13MOL   C258 4842   5.754   0.148   7.240  0.1337  0.3654 -0.0942
   13MOL   C259 4843   5.835   0.155   7.121 -0.5225  0.0782 -0.1571
   13MOL   H260 4844   6.443   0.173   6.812  1.0607  1.9068  2.2663
   13MOL   H261 4845   6.301   0.030   6.974  0.8218 -0.7062 -1.4376
   13MOL   H262 4846   6.129   0.279   6.979  2.0705 -0.1233 -0.6829
   13MOL   H263 4847   6.208   0.196   7.109 -1.3597  0.1660  0.3869
   13MOL   H264 4848   6.126   0.029   7.249  0.9111  2.0782 -2.8371
   13MOL   H265 4849   5.988   0.035   7.468 -1.0569  3.3962  1.8618
   13MOL   H266 4850   5.738   0.109   7.445 -0.3627 -1.0997 -0.2684
   13MOL   H267 4851   5.649   0.171   7.230  0.4437  1.6747 -0.5559
   13MOL   C268 4852   5.782   0.202   6.991 -0.3922 -0.2102 -0.0873
   13MOL   C269 4853   5.757   0.117   6.867  0.4685  0.1011 -0.3865
   13MOL   O270 4854   5.652   0.161   6.962 -0.0185 -0.1063  0.0977
   13MOL   C271 4855   5.769   8.136   6.859 -0.2442  0.4713  0.3128
   13MOL   O272 4856   5.775   8.091   6.721 -1.3183 -0.4205  0.0541
   13MOL   C273 4857   5.663   8.125   6.647 -0.1551  0.3698  0.1594
   13MOL   C274 4858   5.535   0.006   6.697  0.0623  0.6930 -0.2191
   13MOL   C275 4859   5.438   0.067   6.617  0.2029 -0.7083  0.0232
   13MOL   C276 4860   5.467   0.073   6.481  0.3758 -0.0867  0.6122
   13MOL   C277 4861   5.581   0.014   6.428  0.0135 -0.4150 -0.0513
   13MOL   C278 4862   5.678   8.129   6.509  0.1245  0.6282  0.1469
   13MOL   H279 4863   5.795   0.310   6.995 -1.1212 -0.1176 -0.0508
   13MOL   H280 4864   5.765   0.183   6.780  1.5639 -0.5115 -0.7582
   13MOL   H281 4865   5.692   8.086   6.917  0.4230 -1.0537 -0.0732
   13MOL   H282 4866   5.862   8.118   6.914  0.9662 -0.3112 -1.8968
   13MOL   H283 4867   5.512   0.018   6.801 -0.4182 -1.6091 -0.0466
   13MOL   H284 4868   5.344   0.104   6.655  0.3915  0.1835 -0.3456
   13MOL   H285 4869   5.395   0.120   6.415 -0.4950 -2.7246 -0.3761
   13MOL   H286 4870   5.601   0.034   6.324  2.2844  0.7909  0.5717
   13MOL   C287 4871   5.807   8.079   6.453  0.4316 -0.4206 -0.3842
   13MOL   C288 4872   5.846   7.938   6.458 -0.2402 -0.0178  0.1906
   13MOL   O289 4873   5.788   7.991   6.340 -0.3091  0.0496 -0.4098
   13MOL   C290 4874   5.765   7.830   6.529 -0.1487 -0.5999 -0.4461
   13MOL   O291 4875   5.796   7.705   6.470 -0.6161 -0.4367  0.1691
   13MOL   C292 4876   5.751   7.593   6.535 -0.4301  0.0344 -0.1447
   13MOL   C293 4877   5.621   7.550   6.501  0.0392  0.3710  0.6665
   13MOL   C294 4878   5.575   7.423   6.554 -0.2255  0.5906 -0.1265
   13MOL   C295 4879   5.661   7.346   6.634 -0.8368  0.2780 -0.4980
   13MOL   C296 4880   5.792   7.392   6.663 -0.3509 -0.7688 -0.2917
   13MOL   C297 4881   5.841   7.513   6.609 -0.3602  0.4864  0.4418
   13MOL   H298 4882   5.885   8.155   6.451  0.2855 -0.2019  1.3754
   13MOL   H299 4883   5.953   7.918   6.453  0.3637  3.4284 -2.9983
   13MOL   H300 4884   5.658   7.846   6.531 -0.0972  0.5726 -4.4893
   13MOL   H301 4885   5.801   7.827   6.632 -0.1899 -0.0786 -0.4148
   13MOL   H302 4886   5.565   7.611   6.431  3.4790  1.4287 -1.2569
   13MOL   H303 4887   5.478   7.385   6.526  0.2639  0.3618 -1.5477
   13MOL   H304 4888   5.612   7.265   6.686  1.6518 -0.8809  0.1343
   13MOL   H305 4889   5.861   7.331   6.720 -0.1191  0.7533  1.0818
   13MOL   C306 4890   5.970   7.565   6.652  0.8436 -0.5667  0.1972
   13MOL   C307 4891   5.994   7.620   6.794 -0.6187 -0.6615  0.6188
   13MOL   O308 4892   6.037   7.487   6.749 -0.5437 -0.2284  0.2176
   13MOL   C309 4893   5.900   7.621   6.916 -0.0272 -0.0973  0.0646
   13MOL   O310 4894   5.953   7.700   7.023 -0.1417 -0.3941  0.5060
   13MOL   C311 4895   6.050   7.659   7.104  0.2102  0.4491 -0.7244
   13MOL   C312 4896   6.117   7.539   7.083 -1.2964 -0.7091  0.4478
   13MOL   C313 4897   6.222   7.498   7.168  0.8796 -0.2673 -0.0132
   13MOL   C314 4898   6.249   7.573   7.283  0.4215 -0.3784  0.3471
   13MOL   C315 4899   6.189   7.696   7.304 -0.1243  0.0659 -0.2912
   13MOL   C316 4900   6.088   7.739   7.218  0.0248  0.1064  1.5742
   13MOL   H317 4901   6.021   7.605   6.565  0.4568  0.7136  0.5443
   13MOL   H318 4902   6.074   7.691   6.813  0.5841 -2.1353  1.2139
   13MOL   H319 4903   5.881   7.519   6.947  1.0873 -0.6944 -1.1906
   13MOL   H320 4904   5.811   7.675   6.883  0.2421  0.6211  0.5074
   13MOL   H321 4905   6.100   7.488   6.990  0.2476  0.7654 -0.6620
   13MOL   H322 4906   6.268   7.401   7.153  1.3823  0.1222 -1.0583
   13MOL   H323 4907   6.326   7.541   7.352  1.1721  0.8810  0.1097
   13MOL   H324 4908   6.209   7.758   7.391  1.2557 -1.4407  0.4950
   13MOL   C325 4909   6.027   7.874   7.229 -0.5174 -0.1753 -0.2016
   13MOL   C326 4910   5.876   7.898   7.256  0.5186 -0.2995  0.1121
   13MOL   O327 4911   5.977   7.901   7.361 -0.3838 -0.0524 -0.3814
   13MOL   C328 4912   5.772   7.796   7.281  0.1104 -0.4274 -0.2337
   13MOL   O329 4913   5.657   7.825   7.359  0.7579  0.5620 -0.1190
   13MOL   C330 4914   5.568   7.921   7.322  0.5011  0.3400 -0.2109
   13MOL   C331 4915   5.558   7.987   7.193 -0.1214  0.2024  0.2517
   13MOL   C332 4916   5.461   8.085   7.179  0.7734 -0.5071 -0.4366
   13MOL   C333 4917   5.374   8.114   7.281  1.0126  0.2166 -0.1334
   13MOL   C334 4918   5.382   8.053   7.404  0.4415 -0.5308  0.1615
   13MOL   C335 4919   5.482   7.964   7.424  0.4440 -0.3794 -0.4878
   13MOL   H336 4920   6.092   7.952   7.189 -0.0827  1.1966  2.9966
   13MOL   H337 4921   5.847   7.979   7.190 -0.2702  0.2124  1.0750
   13MOL   H338 4922   5.815   7.714   7.338 -0.3908 -0.1398  0.5644
   13MOL   H339 4923   5.745   7.762   7.180  0.5559  1.4514 -1.0197
   13MOL   H340 4924   5.628   7.965   7.114  2.3257  0.4187  2.2801
   13MOL   H341 4925   5.444   8.139   7.087 -0.5100  1.2797  0.8039
   13MOL   H342 4926   5.294   0.011   7.250 -0.3388 -1.3202 -0.0439
   13MOL   H343 4927   5.317   8.083   7.485 -0.9772 -2.1812 -0.3228
   13MOL   C344 4928   5.479   7.896   7.560  0.0104  0.4449  0.7960
   13MOL   C345 4929   5.591   7.899   7.669  0.0853 -0.2376 -0.2831
   13MOL   O346 4930   5.482   7.995   7.669 -0.3969  0.7116 -0.0572
   13MOL   C347 4931   5.731   7.952   7.641 -0.1650  0.1099  0.6087
   13MOL   O348 4932   5.791   7.978   7.767  0.1840  0.0352  0.1420
   13MOL   C349 4933   5.886   8.078   7.762  0.5289  0.2908 -0.2472
   13MOL   C350 4934   6.018   8.045   7.720  0.1201 -0.1766 -0.0068
   13MOL   C351 4935   6.114   8.146   7.721 -0.1570 -0.0530 -0.1777
   13MOL   C352 4936   6.089   0.100   7.770  0.6509 -0.1096 -0.4280
   13MOL   C353 4937   5.955   0.135   7.802 -0.5439 -0.0519  0.0449
   13MOL   C354 4938   5.853   0.041   7.798 -0.0617 -1.2544  0.1451
   13MOL   H355 4939   5.392   7.832   7.569  0.2592 -0.2286 -1.3393
   13MOL   H356 4940   5.587   7.817   7.741  0.2345  1.0658  1.2440
   13MOL   H357 4941   5.724   8.037   7.574 -0.3883 -0.0930  0.3701
   13MOL   H358 4942   5.793   7.877   7.592  1.4671 -0.6296  3.6704
   13MOL   H359 4943   6.045   7.941   7.705  0.8622 -0.4414  2.8596
   13MOL   H360 4944   6.218   8.124   7.704  0.7733  1.2822  3.3397
   13MOL   H361 4945   6.165   0.177   7.778 -1.0664  1.9210 -2.8903
   13MOL   H362 4946   5.942   0.235   7.841  0.2386 -0.8071  2.3413
   13MOL   C363 4947   5.714   0.079   7.833 -0.0732 -0.1094  0.5582
   13MOL   C364 4948   5.676   0.109   7.980 -0.7007  0.2551  0.1277
   13MOL   O365 4949   5.712   0.208   7.896  0.7057  0.2449  0.1546
   13MOL   C366 4950   5.775   0.096   8.094 -0.5588 -0.4262  0.0326
   13MOL   O367 4951   5.718   0.065   0.053  0.2547  0.0815  0.3640
   13MOL   C368 4952   5.675   8.112   0.100  0.3829  0.5586  0.1896
   13MOL   C369 4953   5.617   8.111   0.229 -0.0216  0.0728  0.7258
   13MOL   C370 4954   5.553   7.995   0.285 -0.5252  0.6483 -0.1505
   13MOL   C371 4955   5.571   7.875   0.211 -0.5177  0.0428 -0.3598
   13MOL   C372 4956   5.632   7.873   0.083 -0.1254 -0.1485  0.2944
   13MOL   C373 4957   5.685   7.987   0.024  0.6574 -0.5483 -0.3093
   13MOL   H374 4958   5.636   0.072   7.758 -0.7611  0.3966  1.2180
   13MOL   H375 4959   5.569   0.116   7.999 -0.7797  1.1295 -0.5887
   13MOL   H376 4960   5.805   0.200   8.106 -0.9803 -0.4365  1.1792
   13MOL   H377 4961   5.856   0.024   8.077  2.3097  2.8465 -0.6538
   13MOL   H378 4962   5.605   0.035   0.280 -4.4494 -0.1014  0.1884
   13MOL   H379 4963   5.502   7.995   0.380 -0.3112 -2.2131 -0.0038
   13MOL   H380 4964   5.528   7.788   0.258 -1.2016 -0.3712 -1.7471
   13MOL   H381 4965   5.639   7.778   0.032  2.3010 -0.0104  0.3449
   13MOL   H382 4966   5.719   7.985   8.092  2.4346 -0.2317  0.2602
   14MOL     C1 4967   3.996   4.474   0.021  0.2536 -0.2098 -0.3713
   14MOL     C2 4968   4.075   4.364   0.079 -0.6471 -0.6802  0.5336
   14MOL     O3 4969   4.134   4.493   0.042 -0.2915 -0.2455 -0.3159
   14MOL     C4 4970   4.128   4.240   0.009 -0.2845 -0.0597 -0.3917
   14MOL     O5 4971   4.223   4.180   0.098  0.0732 -0.0823  0.5077
   14MOL     C6 4972   4.291   4.071   0.051 -0.1242  0.6091  0.0035
   14MOL     C7 4973   4.282   4.022   8.086 -0.3486 -1.1680 -0.1074
   14MOL     C8 4974   4.355   3.906   8.046  0.6636  0.8605 -0.4599
   14MOL     C9 4975   4.437   3.833   8.140 -0.4327  0.4495 -0.2064
   14MOL    C10 4976   4.448   3.890   0.099  0.2708 -0.0917  0.1355
   14MOL    C11 4977   4.375   4.003   0.145 -0.3356  0.2306 -0.5195
   14MOL    H12 4978   3.933   4.531   0.090 -0.6647 -0.2449 -1.1573
   14MOL    H13 4979   4.038   4.354   0.180 -0.9222 -0.1748  0.4790
   14MOL    H14 4980   4.169   4.275   8.084 -0.5845  0.5677 -0.2866
   14MOL    H15 4981   4.050   4.164   8.167 -0.1592 -0.4566  1.2281
   14MOL    H16 4982   4.226   4.070   8.008 -0.4477 -1.2508 -0.0888
   14MOL    H17 4983   4.345   3.895   7.939 -2.0951 -0.2730 -0.1279
   14MOL    H18 4984   4.499   3.748   8.115 -1.9650 -0.7515 -0.0078
   14MOL    H19 4985   4.530   3.849   0.157  0.2802  0.7970  0.7593
   14MOL    H20 4986   3.962   4.473   8.087  0.6984 -0.1278 -0.5158
   14MOL    C21 4987   4.385   4.046   0.293  0.3077  0.6287 -0.0374
   14MOL    C22 4988   4.279   4.031   0.398  0.5662 -0.4862 -0.0008
   14MOL    O23 4989   4.377   3.931   0.377  0.3243 -0.1904  0.7772
   14MOL    C24 4990   4.137   4.004   0.368  0.5275  0.1953  0.3422
   14MOL    O25 4991   4.078   3.912   0.454  0.5132  0.3373  0.3030
   14MOL    C26 4992   4.045   3.959   0.581  0.2190 -0.3296  0.7644
   14MOL    C27 4993   4.035   4.089   0.621 -0.6143  0.0961  0.6118
   14MOL    C28 4994   3.999   4.116   0.755 -0.1404 -0.7046  0.0567
   14MOL    C29 4995   3.958   4.018   0.842  0.5957 -0.2730  0.1916
   14MOL    C30 4996   3.979   3.879   0.809  0.2478  0.2068 -0.2113
   14MOL    C31 4997   4.027   3.850   0.679 -0.1049 -0.3255  0.0069
   14MOL    H32 4998   4.473   4.106   0.315 -1.0537  1.7330  2.6770
   14MOL    H33 4999   4.301   4.089   0.487  2.9602  1.3740 -1.7563
   14MOL    H34 5000   4.133   3.960   0.268  0.6693 -1.8651  1.2214
   14MOL    H35 5001   4.084   4.099   0.367 -1.7972 -1.0686 -0.6492
   14MOL    H36 5002   4.045   4.176   0.558  0.6678 -0.7524 -0.3925
   14MOL    H37 5003   3.981   4.218   0.786  0.3042 -1.0393  1.4416
   14MOL    H38 5004   3.932   4.046   0.943  0.3351  2.0918 -0.4920
   14MOL    H39 5005   3.947   3.805   0.880  1.3265 -1.6045 -1.5694
   14MOL    C40 5006   4.041   3.707   0.637 -0.0201 -0.7150  0.2920
   14MOL    C41 5007   4.172   3.640   0.651 -0.2593  0.8457 -0.2644
   14MOL    O42 5008   4.073   3.618   0.746 -0.0589 -0.2842  0.0152
   14MOL    C43 5009   4.293   3.720   0.701  0.3295 -0.1210 -0.0062
   14MOL    O44 5010   4.410   3.646   0.673 -0.6001 -0.3985 -0.6698
   14MOL    C45 5011   4.428   3.527   0.735  0.6566  0.2479  0.3746
   14MOL    C46 5012   4.386   3.509   0.868 -0.6640  0.2677  0.0105
   14MOL    C47 5013   4.412   3.390   0.937  0.1343 -0.2777  0.0136
   14MOL    C48 5014   4.494   3.288   0.885 -0.1986  0.1122  0.0037
   14MOL    C49 5015   4.530   3.305   0.744  0.1658 -0.0272  0.3114
   14MOL    C50 5016   4.490   3.417   0.664 -0.2761  0.2403 -0.5382
   14MOL    H51 5017   3.956   3.673   0.579  0.9159 -3.3998  0.4045
   14MOL    H52 5018   4.206   3.562   0.583 -0.6675  0.4271  0.0102
   14MOL    H53 5019   4.280   3.759   0.802  0.8437 -3.6320  1.4859
   14MOL    H54 5020   4.314   3.807   0.639  1.5252 -0.0766  0.4583
   14MOL    H55 5021   4.326   3.580   0.923 -1.1094 -0.2722  0.2236
   14MOL    H56 5022   4.377   3.397   1.039 -3.8764  1.4181 -1.3493
   14MOL    H57 5023   4.513   3.188   0.920  2.2148  0.0409 -1.3714
   14MOL    H58 5024   4.580   3.220   0.699  0.3654 -0.3297  1.0899
   14MOL    C59 5025   4.513   3.423   0.517 -0.3640 -0.1364  0.1932
   14MOL    C60 5026   4.622   3.517   0.463 -0.6513  0.2091 -0.0643
   14MOL    O61 5027   4.641   3.375   0.468 -0.3283  0.3917 -0.0849
   14MOL    C62 5028   4.712   3.592   0.554  0.1756  0.1820 -0.2214
   14MOL    O63 5029   4.827   3.628   0.477 -0.3582 -0.2055 -0.4068
   14MOL    C64 5030   4.831   3.739   0.395 -0.4453  0.1717  0.1443
   14MOL    C65 5031   4.738   3.845   0.406 -0.3072  0.0704  0.1935
   14MOL    C66 5032   4.750   3.950   0.319  0.1241 -0.3201 -0.1257
   14MOL    C67 5033   4.850   3.959   0.221  0.1206  0.3927  0.0588
   14MOL    C68 5034   4.942   3.851   0.209  0.3963 -1.0161 -0.0543
   14MOL    C69 5035   4.930   3.737   0.290  0.4433 -0.1661 -0.4265
   14MOL    H70 5036   4.421   3.397   0.465 -1.6123  1.3789  1.6060
   14MOL    H71 5037   4.603   3.563   0.366  0.1315  0.1546 -0.2406
   14MOL    H72 5038   4.735   3.534   0.644  1.8468  1.8962  0.5017
   14MOL    H73 5039   4.651   3.667   0.604  0.4785 -0.0614  0.5350
   14MOL    H74 5040   4.650   3.850   0.469 -0.3739  0.0419  0.1013
   14MOL    H75 5041   4.690   4.039   0.332 -2.1221 -1.8657  0.4419
   14MOL    H76 5042   4.863   4.051   0.166  0.3230 -0.7411 -1.8579
   14MOL    H77 5043   5.028   3.854   0.144 -0.8924  0.8538 -1.7126
   14MOL    C78 5044   5.025   3.617   0.279  0.7983  0.2437  0.1965
   14MOL    C79 5045   5.002   3.496   0.191 -0.4205 -0.1893 -0.4516
   14MOL    O80 5046   5.080   3.610   0.146  0.3871  0.2556 -0.2545
   14MOL    C81 5047   4.874   3.476   0.113 -0.6804  0.2194  0.2885
   14MOL    O82 5048   4.885   3.417   8.153  0.0529 -0.7932 -0.1121
   14MOL    C83 5049   4.873   3.283   8.134 -0.1941  0.4857 -0.4530
   14MOL    C84 5050   4.793   3.195   0.044  0.1766 -0.4279  0.2192
   14MOL    C85 5051   4.786   3.056   0.023 -0.1695 -0.0963  0.5823
   14MOL    C86 5052   4.869   3.004   8.093  1.2368 -0.3854  0.1266
   14MOL    C87 5053   4.955   3.086   8.016 -0.0103 -0.0789  0.0237
   14MOL    C88 5054   4.961   3.228   8.038  0.6346  0.0694 -0.4451
   14MOL    H89 5055   5.099   3.606   0.358 -1.1799  2.7426  2.5529
   14MOL    H90 5056   5.061   3.405   0.201 -0.8427 -0.2076  2.3265
   14MOL    H91 5057   4.823   3.570   0.090 -0.3303  0.2158 -0.5060
   14MOL    H92 5058   4.803   3.424   0.177 -0.8524  0.3356  0.1937
   14MOL    H93 5059   4.732   3.235   0.124  0.5109  0.6579 -0.0685
   14MOL    H94 5060   4.723   2.988   0.079  0.1307 -0.1610  0.8434
   14MOL    H95 5061   4.873   2.897   8.077  0.0999 -0.1465 -1.9386
   14MOL    H96 5062   5.015   3.043   7.937  0.2259  2.1604 -1.0616
   14MOL    C97 5063   5.058   3.308   7.956  0.2714 -0.2052 -0.0219
   14MOL    C98 5064   5.190   3.338   8.009  0.3484  1.2485 -0.2380
   14MOL    O99 5065   5.169   3.230   7.913 -0.3137 -0.4947  0.6192
   14MOL   C100 5066   5.233   3.302   8.149 -0.3721  0.2879 -0.0675
   14MOL   O101 5067   5.317   3.395   0.035  0.0667 -0.3322  0.6859
   14MOL   C102 5068   5.450   3.402   8.159  0.4359 -0.2750 -0.3235
   14MOL   C103 5069   5.535   3.291   8.158 -0.2265  0.3328  0.0854
   14MOL   C104 5070   5.670   3.309   8.109 -0.3267 -1.1583 -0.0715
   14MOL   C105 5071   5.721   3.432   8.068  0.3538 -0.9679  0.0017
   14MOL   C106 5072   5.626   3.538   8.058  0.0969 -1.0580  0.5425
   14MOL   C107 5073   5.496   3.529   8.117  0.3260 -0.4549 -0.8134
   14MOL   H108 5074   5.015   3.375   7.883  1.6857  1.1609  0.3671
   14MOL   H109 5075   5.241   3.426   7.970  0.4087  1.6755  0.7783
   14MOL   H110 5076   5.270   3.200   8.151 -0.6006  0.2133  0.4622
   14MOL   H111 5077   5.147   3.299   0.047 -0.3355 -1.8365 -0.0928
   14MOL   H112 5078   5.511   3.195   0.031 -0.5951 -0.1970 -1.2898
   14MOL   H113 5079   5.738   3.225   8.114  2.5942  1.2089  1.0192
   14MOL   H114 5080   5.821   3.434   8.026  0.7859 -2.3342  0.9342
   14MOL   H115 5081   5.652   3.636   8.021 -0.2309 -0.6713  1.3147
   14MOL   C116 5082   5.406   3.660   8.119 -0.5323  0.0700  0.3248
   14MOL   C117 5083   5.381   3.749   0.071  0.2886 -0.2197 -0.0556
   14MOL   O118 5084   5.486   3.773   8.154  0.4935  0.3106  0.3178
   14MOL   C119 5085   5.425   3.715   0.212  0.1420 -0.6938  0.8022
   14MOL   O120 5086   5.367   3.801   0.313 -0.3130 -0.4833 -0.2770
   14MOL   C121 5087   5.397   3.938   0.304  0.2595  0.1765  0.6697
   14MOL   C122 5088   5.523   3.981   0.261  0.6821 -0.0380  0.1968
   14MOL   C123 5089   5.562   4.118   0.265 -0.0681  0.1840  0.4915
   14MOL   C124 5090   5.468   4.216   0.311  0.2850 -0.4251 -0.2484
   14MOL   C125 5091   5.347   4.172   0.367  0.3640  0.4977  0.2070
   14MOL   C126 5092   5.312   4.037   0.363  0.2428 -0.3062  0.0564
   14MOL   H127 5093   5.357   3.674   8.023 -0.6915  1.7775  0.6355
   14MOL   H128 5094   5.309   3.830   0.057  2.5147  1.7324 -0.5335
   14MOL   H129 5095   5.534   3.710   0.211  0.3359  2.5286 -0.3065
   14MOL   H130 5096   5.390   3.613   0.225 -1.3473 -0.4247 -0.8988
   14MOL   H131 5097   5.596   3.910   0.225  1.0273  0.8765 -0.9417
   14MOL   H132 5098   5.658   4.143   0.222  1.0962 -1.5166  2.0206
   14MOL   H133 5099   5.502   4.319   0.319  1.0913 -0.8368  1.8974
   14MOL   H134 5100   5.266   4.231   0.408 -1.5858 -2.2489  0.4442
   14MOL   C135 5101   5.171   3.991   0.395  0.2877  0.4347  0.2837
   14MOL   C136 5102   5.129   3.947   0.541 -0.5023 -0.1171 -0.4922
   14MOL   O137 5103   5.107   4.077   0.488 -0.5033  0.4420 -0.6674
   14MOL   C138 5104   5.229   3.939   0.656  0.5353  0.8722  1.0936
   14MOL   O139 5105   5.169   3.900   0.777 -0.2235  0.4152 -0.6034
   14MOL   C140 5106   5.115   3.993   0.869  0.1115  0.0651  0.1293
   14MOL   C141 5107   5.089   4.131   0.836  0.7252  0.1570  0.8862
   14MOL   C142 5108   5.032   4.216   0.934  0.1115 -0.0972 -0.2247
   14MOL   C143 5109   4.980   4.168   1.056 -0.1554 -0.2505 -0.0014
   14MOL   C144 5110   5.000   4.034   1.086  0.0322  0.0859  0.3056
   14MOL   C145 5111   5.075   3.947   0.997  0.9799  0.3277  0.4661
   14MOL   H146 5112   5.111   4.005   0.305 -2.5788  0.3422  2.1102
   14MOL   H147 5113   5.047   3.876   0.536 -1.1931  0.6869 -0.6302
   14MOL   H148 5114   5.275   4.036   0.676  0.0917  0.8480  2.2856
   14MOL   H149 5115   5.310   3.873   0.625  1.4740  1.6457  1.8497
   14MOL   H150 5116   5.115   4.175   0.741 -0.4559  0.2482  0.5928
   14MOL   H151 5117   5.014   4.320   0.911 -0.7084 -1.0946 -4.3606
   14MOL   H152 5118   4.950   4.240   1.131  3.5383 -0.0216  1.3586
   14MOL   H153 5119   4.968   3.997   1.182 -2.9904  1.5311 -0.1012
   14MOL   C154 5120   5.100   3.806   1.038  0.2030 -0.1498  0.6107
   14MOL   C155 5121   5.236   3.744   1.064  0.3859  0.2833  0.5716
   14MOL   O156 5122   5.157   3.806   1.169  0.0421  0.4052 -0.0213
   14MOL   C157 5123   5.373   3.817   1.023  0.0638  0.1634 -0.6896
   14MOL   O158 5124   5.487   3.777   1.105  0.0359 -0.3196 -0.6569
   14MOL   C159 5125   5.612   3.793   1.054 -0.3223  0.4639 -0.6887
   14MOL   C160 5126   5.635   3.871   0.941 -0.5980 -0.3124 -0.0299
   14MOL   C161 5127   5.763   3.867   0.882 -0.2311 -0.2632 -0.7686
   14MOL   C162 5128   5.872   3.794   0.941  0.3822 -0.1955 -0.1333
   14MOL   C163 5129   5.853   3.734   1.062  0.0435  0.4510 -0.4809
   14MOL   C164 5130   5.720   3.728   1.116  0.3392 -0.0632  0.3886
   14MOL   H165 5131   5.007   3.749   1.030 -1.4160  2.2105  2.1061
   14MOL   H166 5132   5.245   3.636   1.064 -2.2260  0.0260 -0.1293
   14MOL   H167 5133   5.361   3.925   1.033 -1.7009 -0.0881  0.2320
   14MOL   H168 5134   5.395   3.783   0.922  1.2524  0.2877 -0.4735
   14MOL   H169 5135   5.565   3.934   0.888  0.7843  0.1129 -1.4156
   14MOL   H170 5136   5.774   3.922   0.789  1.3169 -1.2386 -1.1757
   14MOL   H171 5137   5.972   3.805   0.902 -0.1009  0.1855 -1.2843
   14MOL   H172 5138   5.935   3.682   1.109 -0.6198  0.2988  0.5352
   14MOL   C173 5139   5.699   3.657   1.248 -0.4238 -0.1870 -0.0122
   14MOL   C174 5140   5.622   3.537   1.258 -0.1931  0.5207 -0.2564
   14MOL   O175 5141   5.767   3.535   1.264  0.2555 -0.3828  0.0497
   14MOL   C176 5142   5.557   3.457   1.144  0.7302 -0.2612  0.1292
   14MOL   O177 5143   5.522   3.326   1.186  0.3359 -0.1866 -0.7125
   14MOL   C178 5144   5.571   3.210   1.124 -0.4691  0.0404  0.5069
   14MOL   C179 5145   5.708   3.218   1.079 -0.0052 -0.2377 -0.2499
   14MOL   C180 5146   5.765   3.105   1.018  0.1854  0.4853  0.6203
   14MOL   C181 5147   5.689   2.979   1.012  0.1410  0.0009 -0.1004
   14MOL   C182 5148   5.555   2.972   1.044 -0.1660 -0.5541  0.0591
   14MOL   C183 5149   5.491   3.088   1.096 -1.0621 -0.0178  0.4504
   14MOL   H184 5150   5.705   3.728   1.330 -2.1814 -0.0843  0.0472
   14MOL   H185 5151   5.583   3.517   1.357  0.7271  4.2162  0.9019
   14MOL   H186 5152   5.619   3.465   1.055 -0.6816  1.3450 -0.7290
   14MOL   H187 5153   5.464   3.510   1.130  0.2757 -1.1835 -0.3857
   14MOL   H188 5154   5.781   3.298   1.075 -1.4470  1.2308  1.4332
   14MOL   H189 5155   5.867   3.114   0.985  0.0578  0.7584  0.2969
   14MOL   H190 5156   5.742   2.889   0.983  0.6277  0.6670 -1.3361
   14MOL   H191 5157   5.503   2.881   1.022  0.1620 -0.6804 -0.2018
   14MOL   C192 5158   5.345   3.088   1.144 -0.0453 -0.1081  0.1412
   14MOL   C193 5159   5.220   3.084   1.062 -0.4150 -0.0829 -0.0477
   14MOL   O194 5160   5.274   2.966   1.108  0.1741 -0.1982 -0.0038
   14MOL   C195 5161   5.196   3.089   0.913 -0.1766  0.0618  0.3900
   14MOL   O196 5162   5.143   3.215   0.871  0.3150 -0.2935  0.6639
   14MOL   C197 5163   5.218   3.323   0.841  0.1187  0.3697 -0.1335
   14MOL   C198 5164   5.358   3.326   0.843 -0.0201  0.4329  0.5724
   14MOL   C199 5165   5.432   3.435   0.797  0.8515 -0.1026  0.0469
   14MOL   C200 5166   5.359   3.549   0.757  0.7458 -0.5728 -0.2358
   14MOL   C201 5167   5.222   3.555   0.775  0.2775  0.2252  0.3563
   14MOL   C202 5168   5.147   3.443   0.813 -0.2761 -0.8744 -0.1970
   14MOL   H203 5169   5.342   3.095   1.253  0.9530  0.1435  0.1552
   14MOL   H204 5170   5.140   3.134   1.118 -0.2593  1.4505 -1.1646
   14MOL   H205 5171   5.130   3.007   0.882  0.3159 -0.4047  0.5865
   14MOL   H206 5172   5.292   3.062   0.869 -0.0004 -1.5063  1.6854
   14MOL   H207 5173   5.411   3.234   0.864  0.2122 -0.1584 -2.3745
   14MOL   H208 5174   5.540   3.425   0.788  0.7131 -1.1831 -0.4272
   14MOL   H209 5175   5.409   3.638   0.720  1.2119 -1.5789 -2.0631
   14MOL   H210 5176   5.185   3.654   0.751  1.2517  0.1705 -1.4811
   14MOL   C211 5177   5.003   3.443   0.820  0.1455  0.7115 -0.0584
   14MOL   C212 5178   4.915   3.466   0.935  0.6957 -0.2104 -0.3330
   14MOL   O213 5179   4.948   3.572   0.850  0.3468  0.1925 -0.4577
   14MOL   C214 5180   4.974   3.472   1.078 -0.0161 -0.6792 -0.4719
   14MOL   O215 5181   4.890   3.557   1.155  0.2252  0.4736 -0.3752
   14MOL   C216 5182   4.763   3.516   1.193  0.4108 -0.1666 -0.4449
   14MOL   C217 5183   4.722   3.381   1.182 -0.6518  0.3797 -0.2423
   14MOL   C218 5184   4.589   3.347   1.231  0.6285  0.0027 -0.0210
   14MOL   C219 5185   4.497   3.445   1.285 -0.1773  0.0708 -0.3653
   14MOL   C220 5186   4.542   3.578   1.292 -0.2103  0.2766  0.5209
   14MOL   C221 5187   4.672   3.613   1.241 -0.1511  0.3804 -0.9517
   14MOL   H222 5188   4.963   3.396   0.731 -2.0299 -1.5468  2.0281
   14MOL   H223 5189   4.814   3.432   0.912 -0.1522  1.3010  1.0851
   14MOL   H224 5190   5.069   3.525   1.069  0.8598 -2.0952  0.1840
   14MOL   H225 5191   4.995   3.373   1.119  1.2016 -0.1851  0.1303
   14MOL   H226 5192   4.784   3.296   1.160 -2.4723 -1.2238  0.6964
   14MOL   H227 5193   4.550   3.247   1.230 -0.0197  0.2502  0.0733
   14MOL   H228 5194   4.402   3.409   1.320 -0.2187  1.2729  0.7572
   14MOL   H229 5195   4.476   3.647   1.342 -0.5370  1.1087 -1.0348
   14MOL   C230 5196   4.713   3.752   1.245 -0.4972 -0.4084 -0.4818
   14MOL   C231 5197   4.659   3.840   1.136  0.5018 -0.5012 -0.1418
   14MOL   O232 5198   4.610   3.843   1.267 -1.1424 -0.3106  0.2339
   14MOL   C233 5199   4.547   3.796   1.038 -0.6226  0.0153 -0.1569
   14MOL   O234 5200   4.502   3.903   0.954 -0.2334  0.3684  0.4247
   14MOL   C235 5201   4.584   3.949   0.852 -0.3858  0.1060 -0.0113
   14MOL   C236 5202   4.718   3.908   0.826 -0.0578 -0.6943 -1.0034
   14MOL   C237 5203   4.793   3.962   0.720 -0.2853 -0.6183  0.5448
   14MOL   C238 5204   4.729   4.058   0.640  0.6875 -0.1087 -0.8322
   14MOL   C239 5205   4.595   4.095   0.653 -1.0322 -0.0564  0.2190
   14MOL   C240 5206   4.528   4.051   0.766  0.0048  0.4572 -0.0244
   14MOL   H241 5207   4.816   3.775   1.271 -0.6165 -0.7864  0.3434
   14MOL   H242 5208   4.715   3.931   1.114 -1.2665  0.9205  1.1374
   14MOL   H243 5209   4.465   3.749   1.092  2.2240 -1.7774  2.7348
   14MOL   H244 5210   4.587   3.725   0.965  1.2728  0.1272  0.7381
   14MOL   H245 5211   4.764   3.823   0.875  0.7357 -0.0982 -0.7116
   14MOL   H246 5212   4.895   3.938   0.693  0.0588  0.8871  0.4523
   14MOL   H247 5213   4.792   4.101   0.564  0.7453 -1.5863 -1.6323
   14MOL   H248 5214   4.552   4.167   0.585  0.4115  0.5272 -0.0945
   14MOL   C249 5215   4.398   4.103   0.800 -0.1615  0.2665 -0.5033
   14MOL   C250 5216   4.373   4.249   0.826 -0.4832 -0.2532  0.0339
   14MOL   O251 5217   4.346   4.186   0.701 -0.0281  0.3915  0.5726
   14MOL   C252 5218   4.476   4.367   0.815 -0.2816  0.6151 -0.6461
   14MOL   O253 5219   4.604   4.326   0.856  0.2321  0.0618 -0.8197
   14MOL   C254 5220   4.669   4.409   0.942 -0.3643  0.0869  0.3875
   14MOL   C255 5221   4.749   4.521   0.898  0.1360 -0.3249  0.1219
   14MOL   C256 5222   4.821   4.602   0.981  0.0355 -0.5784  0.0921
   14MOL   C257 5223   4.823   4.571   1.117  0.4194 -0.3560  0.1938
   14MOL   C258 5224   4.754   4.458   1.168 -0.7177  0.3732 -0.2396
   14MOL   C259 5225   4.674   4.380   1.079 -0.5667 -0.1388 -0.3198
   14MOL   H260 5226   4.325   4.025   0.821 -1.7445  2.0611  0.8684
   14MOL   H261 5227   4.280   4.266   0.880 -1.5489 -0.8182 -1.5657
   14MOL   H262 5228   4.446   4.455   0.872 -3.2048 -0.7684  0.0970
   14MOL   H263 5229   4.481   4.411   0.716 -0.8039  1.0371 -0.4888
   14MOL   H264 5230   4.751   4.547   0.793 -1.7008  0.5803  0.2834
   14MOL   H265 5231   4.868   4.692   0.945 -0.3157 -1.6999 -3.3159
   14MOL   H266 5232   4.882   4.630   1.186  0.0558 -0.1133  0.2984
   14MOL   H267 5233   4.749   4.446   1.276 -1.9635  0.2171 -0.3030
   14MOL   C268 5234   4.595   4.259   1.135 -0.1780  0.2820 -0.9043
   14MOL   C269 5235   4.494   4.264   1.250 -0.4734  0.5143  0.1267
   14MOL   O270 5236   4.456   4.263   1.113  0.0618  0.4922 -0.1367
   14MOL   C271 5237   4.462   4.394   1.320  0.2876 -0.0111  0.0735
   14MOL   O272 5238   4.346   4.368   1.396 -0.4792  0.6061 -0.4788
   14MOL   C273 5239   4.237   4.396   1.316 -0.7723  0.3529  0.4464
   14MOL   C274 5240   4.190   4.531   1.311 -0.3195 -0.1860 -0.0444
   14MOL   C275 5241   4.072   4.560   1.244 -0.1197 -0.0892  0.6275
   14MOL   C276 5242   3.996   4.457   1.175 -0.0019 -0.3002  0.1441
   14MOL   C277 5243   4.047   4.324   1.178 -0.3496 -1.1564 -0.2462
   14MOL   C278 5244   4.167   4.295   1.241  0.0587  0.0660 -0.1247
   14MOL   H279 5245   4.642   4.163   1.116 -0.2199  0.1908 -0.5502
   14MOL   H280 5246   4.463   4.179   1.311 -1.2005  1.0003  0.4443
   14MOL   H281 5247   4.463   4.478   1.252 -2.5996 -1.0583 -1.3515
   14MOL   H282 5248   4.538   4.418   1.394  0.2438 -2.4884  0.9724
   14MOL   H283 5249   4.233   4.613   1.367 -0.4437 -0.2859  0.2000
   14MOL   H284 5250   4.041   4.664   1.250  0.3118  0.0622  0.2912
   14MOL   H285 5251   3.900   4.478   1.131 -0.2952 -0.0068  0.9244
   14MOL   H286 5252   3.977   4.255   1.133 -2.0871 -0.9879  2.1221
   14MOL   C287 5253   4.208   4.145   1.237 -0.6332 -0.2342  0.1910
   14MOL   C288 5254   4.229   4.048   1.355 -0.1510  0.0147  0.0448
   14MOL   O289 5255   4.100   4.065   1.289  0.3791  0.7700  0.2002
   14MOL   C290 5256   4.249   4.091   1.499 -0.2591 -0.0598 -0.9386
   14MOL   O291 5257   4.166   4.015   1.583 -0.1617  0.2956 -0.4604
   14MOL   C292 5258   4.161   4.053   1.718 -0.4952  0.0966 -0.3306
   14MOL   C293 5259   4.235   4.156   1.780  0.2327  0.7406 -0.0521
   14MOL   C294 5260   4.225   4.185   1.923  0.8655 -0.1380 -0.2617
   14MOL   C295 5261   4.124   4.124   1.997 -0.0810 -0.2934 -0.2074
   14MOL   C296 5262   4.034   4.035   1.930  0.2262  0.5174  0.3852
   14MOL   C297 5263   4.059   4.003   1.795 -0.0001 -0.0401 -0.5864
   14MOL   H298 5264   4.233   4.122   1.134  1.3028 -0.3416  0.6728
   14MOL   H299 5265   4.275   3.952   1.335 -0.3776 -0.0237 -0.3011
   14MOL   H300 5266   4.227   4.197   1.516 -0.4683 -0.5194  1.9963
   14MOL   H301 5267   4.349   4.069   1.535  0.0137  2.8487  0.2176
   14MOL   H302 5268   4.311   4.205   1.721  1.3569 -0.8929  0.0080
   14MOL   H303 5269   4.302   4.244   1.970  1.4813 -1.0982 -0.0480
   14MOL   H304 5270   4.128   4.140   2.104 -0.2097  1.6347 -0.4726
   14MOL   H305 5271   3.954   3.982   1.980 -1.0480  1.0549 -1.0226
   14MOL   C306 5272   3.954   3.918   1.732 -0.6893  0.6719 -0.3998
   14MOL   C307 5273   3.983   3.783   1.670  0.1837 -0.5986  0.3253
   14MOL   O308 5274   3.943   3.795   1.799 -0.0857  0.3966  0.2451
   14MOL   C309 5275   4.112   3.711   1.650  0.5197  0.9487 -0.0407
   14MOL   O310 5276   4.098   3.572   1.605  0.1784 -0.0525 -0.4198
   14MOL   C311 5277   4.116   3.544   1.472  0.3875  0.1680 -0.7904
   14MOL   C312 5278   4.148   3.641   1.373  0.1933  0.1815 -0.0296
   14MOL   C313 5279   4.176   3.608   1.244  0.2032 -0.0372 -0.4736
   14MOL   C314 5280   4.165   3.469   1.203  0.2665 -0.1774  0.0356
   14MOL   C315 5281   4.124   3.375   1.300  0.2972  0.3287 -0.3779
   14MOL   C316 5282   4.099   3.408   1.434  0.1172  0.3291  0.4327
   14MOL   H317 5283   3.864   3.972   1.701 -1.1356  0.1903  0.0410
   14MOL   H318 5284   3.911   3.746   1.598  0.2171 -0.3488  0.1617
   14MOL   H319 5285   4.156   3.706   1.750 -0.5838 -0.7915  0.3682
   14MOL   H320 5286   4.184   3.777   1.600  1.4496 -1.1541 -1.5299
   14MOL   H321 5287   4.163   3.746   1.392  1.1503 -0.0317  0.4337
   14MOL   H322 5288   4.199   3.686   1.173 -0.9598  3.5578  2.9260
   14MOL   H323 5289   4.167   3.443   1.098 -1.2828  0.1689 -0.0835
   14MOL   H324 5290   4.111   3.276   1.257 -2.8402  0.6428 -0.2708
   14MOL   C325 5291   4.062   3.303   1.536  0.1518 -0.8002 -0.8870
   14MOL   C326 5292   3.936   3.217   1.534  0.4954 -0.3669 -0.3118
   14MOL   O327 5293   4.058   3.170   1.479  0.4419 -0.1904 -0.3759
   14MOL   C328 5294   3.825   3.221   1.428 -0.0171 -0.5393 -0.2680
   14MOL   O329 5295   3.788   3.087   1.411 -0.2868  0.2483 -0.5347
   14MOL   C330 5296   3.693   3.052   1.317  0.1699 -0.1836 -0.4096
   14MOL   C331 5297   3.622   3.141   1.236  0.0221 -0.4619  0.2699
   14MOL   C332 5298   3.529   3.097   1.138  0.0611  0.0271  0.0599
   14MOL   C333 5299   3.509   2.962   1.116 -0.3783 -0.4641 -0.1885
   14MOL   C334 5300   3.578   2.872   1.193 -0.8564 -0.7142  0.3386
   14MOL   C335 5301   3.667   2.912   1.294  0.5781  0.2174 -0.2642
   14MOL   H336 5302   4.111   3.312   1.632  0.6318 -0.5441 -1.1546
   14MOL   H337 5303   3.906   3.177   1.630 -0.2058  2.4862  0.7189
   14MOL   H338 5304   3.869   3.246   1.331  0.2079 -1.8090 -0.5013
   14MOL   H339 5305   3.743   3.284   1.463 -1.3299 -1.7661 -1.0648
   14MOL   H340 5306   3.634   3.248   1.247 -0.5322 -0.3460 -0.1733
   14MOL   H341 5307   3.477   3.165   1.072  1.6782 -1.3174 -2.6685
   14MOL   H342 5308   3.444   2.932   1.034 -1.0392 -0.5276  0.3552
   14MOL   H343 5309   3.559   2.769   1.170 -0.7937 -0.4630 -0.8299
   14MOL   C344 5310   3.747   2.810   1.372  0.6662 -0.1867 -0.1566
   14MOL   C345 5311   3.706   2.778   1.516 -0.2737  0.1907  0.8032
   14MOL   O346 5312   3.663   2.693   1.407  0.2441 -0.6539 -0.1935
   14MOL   C347 5313   3.586   2.857   1.578  0.2685 -0.5300 -0.6509
   14MOL   O348 5314   3.534   2.788   1.697  0.0929  0.0450  1.0602
   14MOL   C349 5315   3.535   2.844   1.822  0.2956 -0.6777 -0.4823
   14MOL   C350 5316   3.527   2.981   1.842 -0.4938 -0.0830  0.1058
   14MOL   C351 5317   3.552   3.042   1.961 -0.8527 -0.3091 -0.5980
   14MOL   C352 5318   3.567   2.955   2.072  0.2291  0.1320  0.2413
   14MOL   C353 5319   3.559   2.815   2.063 -0.2192 -0.1166 -0.0207
   14MOL   C354 5320   3.556   2.760   1.933  0.9214  0.3479  0.0464
   14MOL   H355 5321   3.849   2.797   1.337  1.3811 -1.8803  2.4090
   14MOL   H356 5322   3.778   2.728   1.580 -0.3632  0.2934  0.9837
   14MOL   H357 5323   3.514   2.849   1.497 -1.1828 -0.2973  0.5975
   14MOL   H358 5324   3.620   2.959   1.593 -0.4881 -0.4670  0.7077
   14MOL   H359 5325   3.492   3.042   1.759 -1.5604  1.2324  1.4977
   14MOL   H360 5326   3.538   3.148   1.978 -1.2026 -0.3840 -0.4053
   14MOL   H361 5327   3.591   3.002   2.166  2.0687 -1.5829  0.6660
   14MOL   H362 5328   3.573   2.745   2.144 -1.8630 -0.7462 -0.2636
   14MOL   C363 5329   3.583   2.617   1.892  1.2122  0.5515 -0.1560
   14MOL   C364 5330   3.722   2.556   1.899 -0.6636  0.6002  0.2829
   14MOL   O365 5331   3.625   2.526   2.002 -0.2926 -0.2640  0.6979
   14MOL   C366 5332   3.844   2.634   1.947 -0.0549  0.0543 -0.1908
   14MOL   O367 5333   3.919   2.540   2.023 -0.2568  0.1461 -0.4793
   14MOL   C368 5334   4.056   2.561   2.039 -0.1803  0.0729 -0.2274
   14MOL   C369 5335   4.124   2.475   2.124 -0.5689  0.1911 -0.9203
   14MOL   C370 5336   4.263   2.491   2.151 -0.4859 -0.5448 -0.0846
   14MOL   C371 5337   4.333   2.596   2.085  0.1734 -0.1920  0.2461
   14MOL   C372 5338   4.262   2.671   1.995 -0.2767 -0.1783  0.0243
   14MOL   C373 5339   4.131   2.663   1.969 -0.3653 -0.5716  0.2887
   14MOL   H374 5340   3.501   2.576   1.835  2.0909 -0.6693 -0.5655
   14MOL   H375 5341   3.741   2.463   1.847 -1.9197  0.7876 -0.5138
   14MOL   H376 5342   3.840   2.723   2.009  1.5359  1.3001 -1.8026
   14MOL   H377 5343   3.897   2.656   1.854  0.7555  1.6861  0.6317
   14MOL   H378 5344   4.077   2.394   2.177  3.3956 -0.6015  1.5932
   14MOL   H379 5345   4.308   2.440   2.235 -2.0561  0.0774  1.1606
   14MOL   H380 5346   4.438   2.619   2.097  0.0599  0.7930 -0.5624
   14MOL   H381 5347   4.321   2.753   1.955 -0.1128  1.4405  3.3672
   14MOL   H382 5348   4.092   2.731   1.896 -0.2452 -1.7697 -0.9218
   15MOL     C1 5349   1.449   2.800   0.485  0.3307  0.9210 -0.0003
   15MOL     C2 5350   1.450   2.742   0.624 -0.5730  0.6761  0.2040
   15MOL     O3 5351   1.541   2.847   0.584  0.1936  0.5453  0.2768
   15MOL     C4 5352   1.518   2.614   0.659  0.3672 -0.8956 -0.0005
   15MOL     O5 5353   1.551   2.541   0.544  0.0746 -0.3135  0.2715
   15MOL     C6 5354   1.664   2.460   0.545 -0.0402  0.0159  0.2850
   15MOL     C7 5355   1.695   2.384   0.657  0.4164 -0.0871  0.4111
   15MOL     C8 5356   1.814   2.315   0.667 -0.2576  0.3329 -0.2275
   15MOL     C9 5357   1.905   2.321   0.556 -0.7574  0.2959  0.5589
   15MOL    C10 5358   1.868   2.388   0.439 -0.2466  0.5693 -0.7161
   15MOL    C11 5359   1.744   2.460   0.433  0.8172  0.5664  0.4831
   15MOL    H12 5360   1.361   2.858   0.457  0.6575  0.0670 -2.9840
   15MOL    H13 5361   1.378   2.775   0.699 -0.2801 -1.0600  1.2949
   15MOL    H14 5362   1.446   2.562   0.723  0.0980  0.7579  1.1058
   15MOL    H15 5363   1.610   2.649   0.707  0.2669 -0.3739 -0.1827
   15MOL    H16 5364   1.629   2.387   0.743  0.5202  0.6554  0.4608
   15MOL    H17 5365   1.849   2.263   0.755  2.4357  0.1486 -1.3729
   15MOL    H18 5366   2.004   2.279   0.546 -0.7024  0.8678 -1.7518
   15MOL    H19 5367   1.936   2.379   0.356 -0.9940 -1.9561 -1.1104
   15MOL    H20 5368   1.488   2.737   0.405  2.1551  0.4327  1.2529
   15MOL    C21 5369   1.706   2.544   0.311 -0.1013  0.0389  0.1425
   15MOL    C22 5370   1.747   2.689   0.293 -0.5339 -0.1070 -0.5447
   15MOL    O23 5371   1.811   2.579   0.222 -0.1710 -0.2391  0.1729
   15MOL    C24 5372   1.827   2.754   0.395  0.4473  0.0493 -1.0058
   15MOL    O25 5373   1.907   2.851   0.338  0.0239 -0.2641  0.1992
   15MOL    C26 5374   1.970   2.947   0.416 -0.7543 -0.2372  0.0518
   15MOL    C27 5375   1.925   2.973   0.547 -0.4048  0.0826 -0.3338
   15MOL    C28 5376   2.000   3.058   0.632 -0.4402 -0.5925 -0.5466
   15MOL    C29 5377   2.117   3.115   0.574 -0.0480 -0.3414 -0.2577
   15MOL    C30 5378   2.167   3.082   0.447 -0.0145 -0.5197 -0.0458
   15MOL    C31 5379   2.095   2.990   0.368  0.0647 -0.3339 -0.4141
   15MOL    H32 5380   1.616   2.505   0.265  0.0907  2.2455 -2.1887
   15MOL    H33 5381   1.681   2.749   0.230  2.2997  1.7472 -1.8223
   15MOL    H34 5382   1.884   2.675   0.444 -1.8869 -1.6517 -0.9688
   15MOL    H35 5383   1.751   2.791   0.463  1.1369 -0.7227  0.2032
   15MOL    H36 5384   1.831   2.938   0.588 -0.6753  1.6924  0.4685
   15MOL    H37 5385   1.962   3.080   0.730 -0.8112 -0.7354 -0.6591
   15MOL    H38 5386   2.176   3.178   0.639 -1.6628  2.7658 -1.7223
   15MOL    H39 5387   2.255   3.128   0.406 -1.3437 -0.9563 -3.5923
   15MOL    C40 5388   2.142   2.937   0.228  0.4860  0.0046 -0.1944
   15MOL    C41 5389   2.110   2.995   0.098  0.1718  0.5627 -0.0160
   15MOL    O42 5390   2.222   3.040   0.171  0.4245 -0.5691  0.6471
   15MOL    C43 5391   1.995   3.093   0.101  0.8271  0.0186 -0.1627
   15MOL    O44 5392   1.961   3.124   8.136 -0.3892 -0.6931  0.2918
   15MOL    C45 5393   1.861   3.221   8.112 -0.5940 -0.5485 -0.0791
   15MOL    C46 5394   1.798   3.304   0.044 -0.0482 -0.1340  0.2352
   15MOL    C47 5395   1.699   3.399   0.006 -0.5472 -0.4767  0.3601
   15MOL    C48 5396   1.666   3.417   8.040  0.2012 -0.4683  0.2808
   15MOL    C49 5397   1.736   3.339   7.946 -0.7403  0.5594 -0.1596
   15MOL    C50 5398   1.832   3.245   7.978  0.6777  0.2163 -0.8824
   15MOL    H51 5399   2.197   2.844   0.238  0.2349 -0.2708 -1.3234
   15MOL    H52 5400   2.136   2.939   0.008  1.2187 -0.7791  1.0916
   15MOL    H53 5401   2.001   3.177   0.170 -2.6629 -1.1654  1.7272
   15MOL    H54 5402   1.915   3.028   0.136  2.3047 -1.3052  0.8149
   15MOL    H55 5403   1.822   3.294   0.149  1.0331 -0.6543 -0.0589
   15MOL    H56 5404   1.658   3.460   0.085 -2.0534 -3.0544  1.6210
   15MOL    H57 5405   1.599   3.494   8.004  1.4349  0.8899  0.8252
   15MOL    H58 5406   1.695   3.352   7.847 -2.0129 -0.1194  0.2752
   15MOL    C59 5407   1.911   3.184   7.860 -0.5571  0.3513  0.2159
   15MOL    C60 5408   1.865   3.061   7.778 -0.0598  0.0374  0.1141
   15MOL    O61 5409   1.848   3.199   7.733 -0.0644  0.1196  0.0750
   15MOL    C62 5410   1.730   2.990   7.793  0.8373 -0.0901 -0.1682
   15MOL    O63 5411   1.624   3.081   7.822 -0.3453  0.4603 -0.1598
   15MOL    C64 5412   1.497   3.023   7.815  0.7457  0.4930  0.0697
   15MOL    C65 5413   1.479   2.884   7.800  0.5297  1.1756  0.2834
   15MOL    C66 5414   1.356   2.821   7.798 -0.2192  0.0701  0.0786
   15MOL    C67 5415   1.243   2.901   7.816  0.3278 -0.8934  0.4337
   15MOL    C68 5416   1.254   3.035   7.842  0.1612  0.2879 -0.1874
   15MOL    C69 5417   1.380   3.106   7.840 -0.3704 -0.2660  0.5376
   15MOL    H70 5418   2.018   3.197   7.871 -0.3002 -0.4698 -1.2482
   15MOL    H71 5419   1.935   3.007   7.715  0.4813 -0.8226  1.4098
   15MOL    H72 5420   1.747   2.925   7.879  2.4796  2.3442  1.3897
   15MOL    H73 5421   1.708   2.932   7.703 -2.8661 -0.1514  0.6812
   15MOL    H74 5422   1.562   2.815   7.796  0.1529  0.8002 -1.0985
   15MOL    H75 5423   1.343   2.715   7.786 -0.6245  0.3925 -2.4770
   15MOL    H76 5424   1.143   2.863   7.814  0.4404 -1.3045  1.7327
   15MOL    H77 5425   1.168   3.100   7.845  1.5583  2.1368  1.2066
   15MOL    C78 5426   1.392   3.257   7.860 -0.1474 -0.5784  0.0095
   15MOL    C79 5427   1.433   3.338   7.742 -0.4241 -0.3261  0.4636
   15MOL    O80 5428   1.299   3.334   7.783  0.4773 -0.4595  0.2295
   15MOL    C81 5429   1.456   3.297   7.604 -0.5770  0.1571  0.1922
   15MOL    O82 5430   1.425   3.407   7.518 -1.0162  0.4330 -0.9461
   15MOL    C83 5431   1.420   3.392   7.387  0.3903 -0.4201 -0.1776
   15MOL    C84 5432   1.494   3.294   7.316 -0.1457  0.2705 -0.0241
   15MOL    C85 5433   1.468   3.265   7.180 -0.1832 -0.1061  0.4721
   15MOL    C86 5434   1.367   3.332   7.106  0.0754  0.2341 -0.1503
   15MOL    C87 5435   1.297   3.433   7.176 -0.5495  0.4618  0.1865
   15MOL    C88 5436   1.320   3.459   7.312 -0.0700  0.1439 -0.4021
   15MOL    H89 5437   1.390   3.287   7.964  0.4031 -0.1704 -0.0946
   15MOL    H90 5438   1.461   3.441   7.761  0.8930 -0.4058 -1.0041
   15MOL    H91 5439   1.402   3.209   7.569  1.7094  0.0874 -3.4230
   15MOL    H92 5440   1.560   3.272   7.581 -1.5235 -1.7219 -2.3353
   15MOL    H93 5441   1.574   3.247   7.371 -0.3786  1.5262  1.3910
   15MOL    H94 5442   1.533   3.198   7.126 -1.2885 -0.8682  0.0696
   15MOL    H95 5443   1.356   3.303   7.003  2.2446 -1.3716  0.0241
   15MOL    H96 5444   1.219   3.485   7.123 -0.0316  0.0045 -1.0522
   15MOL    C97 5445   1.238   3.563   7.384  0.3687  0.4137 -0.5441
   15MOL    C98 5446   1.278   3.713   7.380  0.2793  0.9300 -0.4088
   15MOL    O99 5447   1.172   3.663   7.304 -0.3217 -0.3645  0.0767
   15MOL   C100 5448   1.385   3.756   7.284 -0.0327  0.2080 -0.1480
   15MOL   O101 5449   1.381   3.896   7.266 -0.4981  0.4271 -0.2989
   15MOL   C102 5450   1.481   3.957   7.190  0.3800  0.8810 -0.0726
   15MOL   C103 5451   1.553   3.879   7.096 -0.1031 -0.9111  0.2018
   15MOL   C104 5452   1.644   3.937   7.010  0.4418 -0.5005 -0.3086
   15MOL   C105 5453   1.677   4.074   7.037  0.5782 -1.0381  0.5867
   15MOL   C106 5454   1.596   4.151   7.119 -0.2119 -0.1314  0.4821
   15MOL   C107 5455   1.500   4.095   7.204  0.0637 -0.3531 -0.6321
   15MOL   H108 5456   1.184   3.525   7.471  1.6396 -1.3580 -0.4993
   15MOL   H109 5457   1.254   3.780   7.461 -0.7629  1.8183 -1.4348
   15MOL   H110 5458   1.350   3.724   7.186 -2.7671  1.2679  0.4346
   15MOL   H111 5459   1.484   3.714   7.302 -0.2099 -0.7849 -1.3832
   15MOL   H112 5460   1.525   3.778   7.071 -3.9896 -0.3410  1.8734
   15MOL   H113 5461   1.689   3.872   6.937  1.3617  0.5339 -0.6698
   15MOL   H114 5462   1.748   4.120   6.970 -0.0245 -0.5484  0.2788
   15MOL   H115 5463   1.618   4.256   7.130 -0.1866 -0.0134 -0.6934
   15MOL   C116 5464   1.416   4.167   7.299  1.1773 -0.2747  0.6671
   15MOL   C117 5465   1.452   4.175   7.444  0.2264 -0.0994 -0.3181
   15MOL   O118 5466   1.481   4.280   7.355  1.3444 -0.1024 -0.1990
   15MOL   C119 5467   1.571   4.113   7.513  0.2621  0.1291  0.4008
   15MOL   O120 5468   1.526   4.004   7.591 -0.2754 -0.0716 -0.2591
   15MOL   C121 5469   1.492   4.024   7.721 -0.2606 -0.6316 -1.0481
   15MOL   C122 5470   1.471   4.151   7.786 -0.4704 -0.2588  0.0401
   15MOL   C123 5471   1.432   4.157   7.919 -0.5978 -0.0788  0.4829
   15MOL   C124 5472   1.421   4.041   7.999 -1.0453 -0.2170 -0.0385
   15MOL   C125 5473   1.450   3.917   7.936 -0.5491  0.0298 -0.6399
   15MOL   C126 5474   1.474   3.907   7.795  0.2404 -0.1778 -0.3369
   15MOL   H127 5475   1.323   4.194   7.249  3.1447  0.0771 -2.9743
   15MOL   H128 5476   1.369   4.203   7.509  0.7188  4.9652 -1.7211
   15MOL   H129 5477   1.629   4.182   7.574  0.3487  0.2358  0.1985
   15MOL   H130 5478   1.636   4.073   7.436 -2.2894  0.7654 -2.1894
   15MOL   H131 5479   1.482   4.243   7.731 -1.5175  0.3598  0.8643
   15MOL   H132 5480   1.397   4.252   7.959 -2.4341 -1.3779  2.0811
   15MOL   H133 5481   1.382   4.039   8.099 -0.1544 -0.0902  0.3199
   15MOL   H134 5482   1.450   3.834   8.005  1.3595  1.0364  0.6309
   15MOL   C135 5483   1.506   3.771   7.737  0.0042 -0.2006 -1.1850
   15MOL   C136 5484   1.651   3.717   7.725 -0.2755 -0.2578 -0.4516
   15MOL   O137 5485   1.574   3.702   7.845 -0.2839 -0.4870 -0.0377
   15MOL   C138 5486   1.787   3.796   7.735 -0.5020  0.2642 -0.0547
   15MOL   O139 5487   1.890   3.712   7.782 -0.7649 -0.0805  0.1944
   15MOL   C140 5488   1.895   3.691   7.926  0.7507 -0.2770 -0.0706
   15MOL   C141 5489   1.817   3.763   8.016  0.2599 -0.2535 -0.1415
   15MOL   C142 5490   1.836   3.754   8.159 -0.0813  0.3078 -0.1488
   15MOL   C143 5491   1.937   3.674   0.031  0.1483  0.4962 -0.0160
   15MOL   C144 5492   2.012   3.598   8.109 -0.4306  0.0421  0.6491
   15MOL   C145 5493   2.000   3.606   7.972 -0.3868  0.0605  0.2593
   15MOL   H146 5494   1.421   3.714   7.703  0.2229 -1.5358  0.4503
   15MOL   H147 5495   1.657   3.629   7.661  0.5165 -0.0384 -0.6777
   15MOL   H148 5496   1.772   3.889   7.791  3.4552  1.0544 -0.2069
   15MOL   H149 5497   1.805   3.829   7.633  0.3783 -1.8297 -0.5995
   15MOL   H150 5498   1.733   3.826   7.987 -0.5212 -1.3008 -0.1657
   15MOL   H151 5499   1.775   3.805   0.062 -0.1093 -2.8860  2.1501
   15MOL   H152 5500   1.973   3.669   0.133  3.1146 -0.1670 -1.0344
   15MOL   H153 5501   2.092   3.535   8.146  0.4845 -0.3172 -1.8624
   15MOL   C154 5502   2.085   3.546   7.868 -0.1653 -0.6460 -0.3607
   15MOL   C155 5503   2.216   3.597   7.817 -0.5555  0.0136  0.3412
   15MOL   O156 5504   2.209   3.504   7.925 -0.0867  0.5281  0.4631
   15MOL   C157 5505   2.270   3.736   7.852  0.2678 -0.8005  0.3776
   15MOL   O158 5506   2.285   3.836   7.749 -0.4714  0.1544  0.3326
   15MOL   C159 5507   2.176   3.917   7.719  0.0275 -0.2091  0.8392
   15MOL   C160 5508   2.070   3.947   7.810  0.2185 -0.1012 -0.5224
   15MOL   C161 5509   1.973   4.049   7.781 -0.6861 -0.4616  0.5655
   15MOL   C162 5510   1.971   4.106   7.655  0.2141  0.2456 -0.0129
   15MOL   C163 5511   2.066   4.070   7.559  0.0286  0.8288 -0.1844
   15MOL   C164 5512   2.172   3.984   7.591  0.0694 -0.1838  0.1615
   15MOL   H165 5513   2.030   3.477   7.804 -2.3293 -0.3778  1.1542
   15MOL   H166 5514   2.252   3.553   7.724  0.2889  1.4556 -0.0225
   15MOL   H167 5515   2.373   3.717   7.883  0.2533  1.2824  1.7940
   15MOL   H168 5516   2.224   3.770   7.944  0.7758  1.8687 -0.3134
   15MOL   H169 5517   2.058   3.890   7.901 -0.0902  3.9277  2.0795
   15MOL   H170 5518   1.907   4.087   7.858 -1.2760 -0.5551  0.1137
   15MOL   H171 5519   1.891   4.173   7.625 -0.9630 -1.8631 -1.7266
   15MOL   H172 5520   2.061   4.108   7.458 -2.7811 -0.6864 -0.6636
   15MOL   C173 5521   2.286   3.982   7.490 -0.6258  0.9932 -0.2473
   15MOL   C174 5522   2.321   3.866   7.411  0.4504  0.2458  0.1087
   15MOL   O175 5523   2.241   3.976   7.357 -0.2393 -0.1489  0.6564
   15MOL   C176 5524   2.245   3.731   7.423  0.2385  0.4915 -0.2233
   15MOL   O177 5525   2.302   3.642   7.336  0.4286 -0.4521 -0.4000
   15MOL   C178 5526   2.255   3.514   7.328  0.2851  0.0977 -0.1044
   15MOL   C179 5527   2.152   3.461   7.404  0.5045 -0.2353  0.3819
   15MOL   C180 5528   2.110   3.326   7.384 -0.2813  0.4954  0.2150
   15MOL   C181 5529   2.163   3.241   7.287 -0.6939 -0.4010 -0.1618
   15MOL   C182 5530   2.262   3.295   7.207 -0.2392 -0.2269 -0.1220
   15MOL   C183 5531   2.308   3.427   7.227 -0.4573  0.3236 -0.0412
   15MOL   H184 5532   2.361   4.060   7.504 -0.6228  0.7223  1.4089
   15MOL   H185 5533   2.424   3.859   7.376  0.3939  1.3728 -0.2846
   15MOL   H186 5534   2.138   3.748   7.414  0.2896  0.5460 -0.7511
   15MOL   H187 5535   2.254   3.684   7.521  1.5706  1.5050  0.1618
   15MOL   H188 5536   2.109   3.524   7.480 -0.9769  0.1845 -0.7742
   15MOL   H189 5537   2.042   3.300   7.465  0.8094  1.5721  1.5102
   15MOL   H190 5538   2.136   3.136   7.288  3.9816 -1.7151 -0.6509
   15MOL   H191 5539   2.325   3.248   7.132 -0.0768 -1.0314  0.5249
   15MOL   C192 5540   2.418   3.485   7.141 -0.8560  0.1416  0.0339
   15MOL   C193 5541   2.560   3.512   7.196  0.1538  0.6214 -0.0073
   15MOL   O194 5542   2.526   3.392   7.122 -0.2436  0.0706  0.1472
   15MOL   C195 5543   2.602   3.488   7.337  0.3131 -0.3950 -0.2064
   15MOL   O196 5544   2.735   3.533   7.365  0.3242  1.0509 -0.1048
   15MOL   C197 5545   2.834   3.442   7.347 -0.3974 -0.9667 -0.4751
   15MOL   C198 5546   2.828   3.361   7.228 -0.5485  0.4729  0.0492
   15MOL   C199 5547   2.934   3.273   7.196  0.4417 -0.3298  0.0239
   15MOL   C200 5548   3.046   3.265   7.288 -0.1011  0.2621  0.5763
   15MOL   C201 5549   3.040   3.333   7.413 -0.1677  0.5038  0.6108
   15MOL   C202 5550   2.937   3.422   7.444  0.0091  0.6042 -0.7571
   15MOL   H203 5551   2.389   3.537   7.050 -0.6974 -0.7163 -0.5099
   15MOL   H204 5552   2.622   3.585   7.145 -0.0774  1.9292  1.5401
   15MOL   H205 5553   2.571   3.385   7.356 -1.1859  0.2370  0.8475
   15MOL   H206 5554   2.532   3.551   7.393  1.0784 -0.9028  1.3705
   15MOL   H207 5555   2.746   3.380   7.160  1.2678 -0.2681 -2.4103
   15MOL   H208 5556   2.921   3.209   7.110  0.5531 -0.1043 -0.1619
   15MOL   H209 5557   3.128   3.198   7.272 -0.3403  0.6705 -2.7464
   15MOL   H210 5558   3.113   3.313   7.490  1.9451  1.9057 -0.9866
   15MOL   C211 5559   2.934   3.487   7.575 -0.2310 -0.1373 -0.1122
   15MOL   C212 5560   2.872   3.421   7.686  0.3030 -0.6780 -0.2707
   15MOL   O213 5561   3.016   3.430   7.679  0.0552 -0.0518  0.6162
   15MOL   C214 5562   2.821   3.283   7.697  0.7363 -0.6531 -0.0183
   15MOL   O215 5563   2.736   3.272   7.808  0.3470  0.1921 -0.0493
   15MOL   C216 5564   2.601   3.275   7.780 -0.5614 -0.2975 -0.7073
   15MOL   C217 5565   2.542   3.326   7.659 -0.6130  0.4377  0.4089
   15MOL   C218 5566   2.405   3.306   7.631 -0.2599 -0.3241  0.4273
   15MOL   C219 5567   2.325   3.252   7.729  0.7974 -0.7424  0.2519
   15MOL   C220 5568   2.377   3.211   7.854 -0.6801 -0.0404 -0.6712
   15MOL   C221 5569   2.516   3.221   7.880  0.4404 -0.1469  0.0194
   15MOL   H222 5570   2.945   3.594   7.561  4.2356 -0.5061 -0.1107
   15MOL   H223 5571   2.829   3.492   7.757  0.4517 -2.0347  1.1888
   15MOL   H224 5572   2.907   3.219   7.717 -0.0190 -2.0342 -1.1070
   15MOL   H225 5573   2.778   3.241   7.606  1.2731  0.0161 -0.5748
   15MOL   H226 5574   2.598   3.395   7.598 -1.5667 -1.1526 -2.3657
   15MOL   H227 5575   2.356   3.349   7.545  0.1534 -3.4839 -1.4928
   15MOL   H228 5576   2.221   3.227   7.718  0.8118 -0.9596  0.6162
   15MOL   H229 5577   2.315   3.175   7.935  3.0348 -3.7793  0.6567
   15MOL   C230 5578   2.570   3.180   8.018 -0.2013  0.1587 -1.0455
   15MOL   C231 5579   2.598   3.285   8.121 -0.4597  0.9794  0.2708
   15MOL   O232 5580   2.480   3.206   8.125 -0.3081 -0.4967 -0.8868
   15MOL   C233 5581   2.562   3.432   8.101 -0.4406 -0.6751  0.2037
   15MOL   O234 5582   2.548   3.517   0.051 -0.1420  0.1354 -0.0739
   15MOL   C235 5583   2.453   3.486   0.143  0.5946 -0.5764  0.6050
   15MOL   C236 5584   2.338   3.405   0.130 -0.0285  0.4203 -0.7691
   15MOL   C237 5585   2.240   3.388   0.231 -0.2276 -0.1104  0.0963
   15MOL   C238 5586   2.276   3.441   0.354 -0.1975  0.0387  0.1793
   15MOL   C239 5587   2.391   3.521   0.377  0.6701  0.4806 -0.2186
   15MOL   C240 5588   2.477   3.543   0.267  0.1496 -0.0829  0.2057
   15MOL   H241 5589   2.620   3.083   8.018 -1.2193 -0.3790 -2.6263
   15MOL   H242 5590   2.670   3.259   0.028 -0.1884  0.6574 -0.0858
   15MOL   H243 5591   2.481   3.444   8.030  0.8010  0.0907 -1.1011
   15MOL   H244 5592   2.642   3.483   8.047  1.0875 -1.4678  1.6383
   15MOL   H245 5593   2.323   3.364   0.031 -1.7163  2.5910 -1.4461
   15MOL   H246 5594   2.144   3.341   0.215  0.7335 -1.8556 -0.6914
   15MOL   H247 5595   2.203   3.437   0.433 -0.3607  2.1152  0.1418
   15MOL   H248 5596   2.417   3.561   0.474  0.2667  1.1506 -0.3805
   15MOL   C249 5597   2.602   3.623   0.287 -0.1590  0.5536  0.3699
   15MOL   C250 5598   2.622   3.775   0.253  0.2025  0.2622  0.8821
   15MOL   O251 5599   2.588   3.723   0.384 -0.3150 -0.0301 -0.4358
   15MOL   C252 5600   2.516   3.861   0.197  0.2901 -0.2284  0.3698
   15MOL   O253 5601   2.386   3.814   0.224 -0.6646  0.2793  0.5147
   15MOL   C254 5602   2.288   3.884   0.164 -0.1055  0.5291  0.1051
   15MOL   C255 5603   2.289   3.935   0.031 -0.0944 -0.4723  0.9557
   15MOL   C256 5604   2.181   4.009   8.151  0.4223 -0.2144 -0.7369
   15MOL   C257 5605   2.057   4.008   0.050  0.2482 -0.1184  0.1082
   15MOL   C258 5606   2.055   3.949   0.178 -0.4268 -0.0955  0.3679
   15MOL   C259 5607   2.169   3.894   0.236 -0.0054 -0.1935  0.5120
   15MOL   H260 5608   2.691   3.561   0.297 -0.3160  0.3233  0.3597
   15MOL   H261 5609   2.723   3.811   0.238  0.0007  0.6762  0.5072
   15MOL   H262 5610   2.541   3.875   0.092  0.0392  0.9778  0.4727
   15MOL   H263 5611   2.532   3.955   0.249 -0.3247  0.4334 -0.6128
   15MOL   H264 5612   2.377   3.930   8.138 -0.3004  0.0770  0.6218
   15MOL   H265 5613   2.188   4.061   8.056  2.2299  1.1205  0.0967
   15MOL   H266 5614   1.974   4.070   0.020 -0.3907 -0.5009  1.0549
   15MOL   H267 5615   1.964   3.944   0.236 -0.7009  1.4319  0.1136
   15MOL   C268 5616   2.156   3.830   0.373  0.0632 -0.2588 -0.2047
   15MOL   C269 5617   2.210   3.901   0.496 -0.3003 -0.3627 -0.1219
   15MOL   O270 5618   2.070   3.897   0.470  0.0208  0.2454 -0.2536
   15MOL   C271 5619   2.283   4.036   0.491  0.3106  0.1984  0.0490
   15MOL   O272 5620   2.292   4.084   0.629 -0.9531 -0.4722  0.5096
   15MOL   C273 5621   2.192   4.171   0.670  0.7546 -0.4406 -0.6286
   15MOL   C274 5622   2.051   4.143   0.651 -0.1653  0.1106 -0.4811
   15MOL   C275 5623   1.951   4.231   0.700  0.5197  0.2494  0.8969
   15MOL   C276 5624   1.985   4.359   0.746 -0.5618 -0.1837  0.2370
   15MOL   C277 5625   2.121   4.390   0.754 -0.1284 -0.1098 -0.4542
   15MOL   C278 5626   2.226   4.299   0.723 -0.0159  0.2173  0.1998
   15MOL   H279 5627   2.180   3.724   0.372  1.6168  0.0564  1.2473
   15MOL   H280 5628   2.241   3.846   0.585  1.3293  0.9234  0.1289
   15MOL   H281 5629   2.240   4.103   0.417 -0.0306 -1.3523 -1.1651
   15MOL   H282 5630   2.387   4.024   0.459  0.3163 -2.9124  1.0619
   15MOL   H283 5631   2.014   4.048   0.615 -1.0684  1.2755 -2.7083
   15MOL   H284 5632   1.847   4.206   0.686  0.6498 -0.8690  1.8245
   15MOL   H285 5633   1.908   4.431   0.769 -0.2464  1.8482 -4.4322
   15MOL   H286 5634   2.138   4.492   0.782  0.9156 -0.3896 -0.0255
   15MOL   C287 5635   2.376   4.330   0.728 -0.2872 -0.9969  0.2219
   15MOL   C288 5636   2.453   4.351   0.604 -0.0670  0.3760  0.3878
   15MOL   O289 5637   2.401   4.460   0.686 -0.4564 -0.1186  0.0338
   15MOL   C290 5638   2.400   4.359   0.458 -0.2626 -0.1420  0.3886
   15MOL   O291 5639   2.486   4.307   0.359  0.0760  0.4827  0.5158
   15MOL   C292 5640   2.531   4.400   0.268 -0.1079 -0.4072 -0.6510
   15MOL   C293 5641   2.605   4.515   0.310 -0.1893 -0.0371  0.5948
   15MOL   C294 5642   2.664   4.607   0.222 -0.2170 -0.2522  0.1099
   15MOL   C295 5643   2.634   4.592   0.087 -0.6907 -0.0853  0.1873
   15MOL   C296 5644   2.550   4.488   0.046  0.3797 -0.6772  0.5925
   15MOL   C297 5645   2.510   4.385   0.129 -0.0830 -0.1485 -0.1188
   15MOL   H298 5646   2.420   4.292   0.820 -1.6106  0.5428  1.5470
   15MOL   H299 5647   2.560   4.331   0.609 -0.4786 -1.6994  1.1020
   15MOL   H300 5648   2.393   4.466   0.438  3.2766  0.7958  3.5582
   15MOL   H301 5649   2.294   4.337   0.449 -0.3070  0.0522  0.4344
   15MOL   H302 5650   2.635   4.514   0.414  1.7441 -0.6278  0.0683
   15MOL   H303 5651   2.731   4.688   0.248  0.4807 -0.7719 -0.0600
   15MOL   H304 5652   2.672   4.662   0.014  0.1505  0.4525  1.1216
   15MOL   H305 5653   2.520   4.474   8.113 -1.8869  0.3782  1.0793
   15MOL   C306 5654   2.438   4.271   0.063 -0.2175  0.4108  0.3044
   15MOL   C307 5655   2.497   4.196   8.121 -0.6258  0.6953 -0.4951
   15MOL   O308 5656   2.508   4.153   0.079  0.0974  0.3945 -0.6683
   15MOL   C309 5657   2.630   4.233   8.051 -0.4908 -0.9889  1.0197
   15MOL   O310 5658   2.666   4.150   7.941  0.2348 -0.1408 -0.0373
   15MOL   C311 5659   2.701   4.019   7.955 -0.5302  0.1354  0.2669
   15MOL   C312 5660   2.731   3.955   8.081 -0.5155  0.6349 -0.2091
   15MOL   C313 5661   2.776   3.821   8.082 -0.0956  0.0392 -1.0170
   15MOL   C314 5662   2.789   3.748   7.962 -0.0624 -0.4054 -0.1897
   15MOL   C315 5663   2.755   3.813   7.839  0.4526  0.0521  0.3074
   15MOL   C316 5664   2.716   3.950   7.830 -0.0090  0.2872  0.3903
   15MOL   H317 5665   2.335   4.257   0.096  0.1459 -1.3773  0.7296
   15MOL   H318 5666   2.414   4.146   8.071  0.3630 -1.3868 -0.0992
   15MOL   H319 5667   2.706   4.251   8.127 -0.5877 -0.2210  0.9375
   15MOL   H320 5668   2.625   4.328   7.998  1.2919 -0.4566  1.7813
   15MOL   H321 5669   2.728   4.020   8.166 -0.8129  0.5308 -0.1410
   15MOL   H322 5670   2.800   3.777   0.008 -2.0079  2.3826  0.6163
   15MOL   H323 5671   2.835   3.651   7.961  0.9879  0.0639  1.2699
   15MOL   H324 5672   2.777   3.759   7.749  1.6688  3.3136 -1.4088
   15MOL   C325 5673   2.688   4.014   7.692 -0.5411  1.4866  0.2860
   15MOL   C326 5674   2.786   4.117   7.624  0.2456  0.1627  0.1013
   15MOL   O327 5675   2.787   3.972   7.599  0.0521 -0.3017  0.3457
   15MOL   C328 5676   2.922   4.159   7.685 -0.6023  0.8743 -0.1805
   15MOL   O329 5677   2.908   4.299   7.683  0.4684  0.0394  0.5236
   15MOL   C330 5678   3.020   4.374   7.691 -0.4276  0.0812 -0.2087
   15MOL   C331 5679   3.143   4.333   7.754  0.2633 -0.1879  0.4883
   15MOL   C332 5680   3.259   4.420   7.747 -0.5878  1.4105  0.3289
   15MOL   C333 5681   3.250   4.549   7.687 -0.2517  0.1295  0.9267
   15MOL   C334 5682   3.127   4.592   7.629  0.6868 -0.5673  0.0970
   15MOL   C335 5683   3.015   4.502   7.632  0.0382 -0.6538  0.1893
   15MOL   H336 5684   2.586   4.003   7.657 -0.5044  2.3881 -0.1134
   15MOL   H337 5685   2.758   4.179   7.540 -0.7167  1.1263  1.1166
   15MOL   H338 5686   3.000   4.115   7.623  0.4996  0.2735  1.5871
   15MOL   H339 5687   2.942   4.123   7.786 -1.0456 -0.5227 -0.5815
   15MOL   H340 5688   3.152   4.235   7.796 -0.4531  0.1180  1.3789
   15MOL   H341 5689   3.356   4.395   7.789 -1.0089 -0.9089 -0.0107
   15MOL   H342 5690   3.337   4.613   7.680  0.3486 -0.6795  0.9485
   15MOL   H343 5691   3.119   4.691   7.586 -1.3135  0.0870  1.9229
   15MOL   C344 5692   2.890   4.542   7.566 -0.1836 -0.5026 -0.2405
   15MOL   C345 5693   2.770   4.584   7.643 -0.2936 -0.5409 -0.2143
   15MOL   O346 5694   2.863   4.682   7.590 -0.1283  0.3102 -0.3123
   15MOL   C347 5695   2.744   4.577   7.792  0.3337 -0.0821 -0.3155
   15MOL   O348 5696   2.611   4.625   7.820  0.0224 -0.5982  0.2810
   15MOL   C349 5697   2.508   4.534   7.829  0.4958  0.6538  0.1735
   15MOL   C350 5698   2.524   4.406   7.771  0.3021 -0.0258  0.6115
   15MOL   C351 5699   2.415   4.311   7.765 -0.5260  0.5616 -0.2718
   15MOL   C352 5700   2.294   4.350   7.826  0.8390  0.1868  0.2947
   15MOL   C353 5701   2.278   4.474   7.881 -0.4220 -0.7357 -0.1560
   15MOL   C354 5702   2.385   4.573   7.881 -0.0154 -0.1280  0.3722
   15MOL   H355 5703   2.879   4.509   7.463 -0.0428 -1.2677 -0.0116
   15MOL   H356 5704   2.681   4.573   7.581  0.3407  0.0817 -1.2538
   15MOL   H357 5705   2.807   4.653   7.839 -0.8446  0.8048 -0.1638
   15MOL   H358 5706   2.773   4.483   7.839  0.7763 -0.7068 -1.8067
   15MOL   H359 5707   2.622   4.375   7.738 -0.7075  0.4936 -3.1158
   15MOL   H360 5708   2.433   4.211   7.728 -0.4931  0.0509  1.0857
   15MOL   H361 5709   2.210   4.282   7.822  0.5759  0.5448 -0.4332
   15MOL   H362 5710   2.187   4.504   7.930 -0.2461 -1.3967  0.5840
   15MOL   C363 5711   2.373   4.711   7.934  0.0501 -0.3032 -0.0432
   15MOL   C364 5712   2.361   4.834   7.849 -0.0919 -0.1693 -0.2273
   15MOL   O365 5713   2.245   4.768   7.900 -0.5870  0.2677  0.6018
   15MOL   C366 5714   2.374   4.840   7.698 -0.2966  0.5798 -0.0047
   15MOL   O367 5715   2.394   4.966   7.645 -0.3754 -0.0917  0.3140
   15MOL   C368 5716   2.415   4.987   7.510  0.4299 -0.6610  0.2335
   15MOL   C369 5717   2.506   5.091   7.474 -0.1594  0.1658 -0.2841
   15MOL   C370 5718   2.542   5.118   7.336 -0.4485  0.4967 -0.8969
   15MOL   C371 5719   2.479   5.036   7.244  0.4173  0.4786  0.4288
   15MOL   C372 5720   2.403   4.925   7.275 -0.0030  0.1276 -0.0015
   15MOL   C373 5721   2.363   4.903   7.406  0.1239 -0.1561  0.4082
   15MOL   H374 5722   2.375   4.713   8.043 -1.4740  0.2583 -0.0148
   15MOL   H375 5723   2.380   4.924   7.908 -1.8139  1.1803 -1.6787
   15MOL   H376 5724   2.287   4.786   7.659 -1.1279  1.4017  0.6734
   15MOL   H377 5725   2.450   4.781   7.647 -0.9890  1.7900 -2.5585
   15MOL   H378 5726   2.552   5.169   7.533  0.9221 -1.2652  0.7907
   15MOL   H379 5727   2.606   5.200   7.306 -1.7889  0.6292 -3.5608
   15MOL   H380 5728   2.510   5.055   7.142 -0.1873 -0.1882  0.1237
   15MOL   H381 5729   2.371   4.861   7.194  2.3399 -1.4650  0.3238
   15MOL   H382 5730   2.302   4.819   7.436 -0.9729  0.8909  1.1665
   16MOL     C1 5731   7.973   6.784   4.347 -0.2170  0.3811 -0.1990
   16MOL     C2 5732   8.004   6.826   4.206  0.4475 -0.0647  0.2053
   16MOL     O3 5733   7.993   6.686   4.242  0.9202 -0.0140 -0.2600
   16MOL     C4 5734   8.141   6.868   4.152 -0.0236  0.7930 -0.1596
   16MOL     O5 5735   0.062   6.863   4.260 -0.3520 -0.7191 -0.3650
   16MOL     C6 5736   0.187   6.908   4.240  0.7664 -0.7415 -0.5405
   16MOL     C7 5737   0.222   6.994   4.139 -0.1434 -0.5360 -0.1233
   16MOL     C8 5738   0.356   7.032   4.122  0.9371  0.6440 -0.9962
   16MOL     C9 5739   0.451   6.979   4.205  0.1714  0.2551 -1.1518
   16MOL    C10 5740   0.417   6.897   4.314 -0.0046  0.3419  0.6413
   16MOL    C11 5741   0.283   6.858   4.334  0.1430  0.2143  0.0766
   16MOL    H12 5742   7.874   6.774   4.390  0.4336 -1.2307  0.9762
   16MOL    H13 5743   7.919   6.862   4.148  0.4282 -0.0910  0.2177
   16MOL    H14 5744   8.122   6.966   4.110 -1.8727  1.1383  1.4094
   16MOL    H15 5745   8.167   6.802   4.069 -2.5358 -0.4929  0.0321
   16MOL    H16 5746   0.145   7.044   4.081 -2.0006 -1.3318  1.6177
   16MOL    H17 5747   0.384   7.105   4.047 -0.4644  2.8674  0.5570
   16MOL    H18 5748   0.551   7.018   4.190  0.7028 -0.7993 -0.3806
   16MOL    H19 5749   0.490   6.875   4.390  1.1031 -1.4058 -0.8738
   16MOL    H20 5750   8.054   6.785   4.419 -0.8716 -0.4710  0.5619
   16MOL    C21 5751   0.249   6.774   4.451  0.9736  1.0085 -0.0409
   16MOL    C22 5752   0.234   6.622   4.425  0.3972  0.4377 -0.5093
   16MOL    O23 5753   0.352   6.682   4.483  0.6224  0.6282 -0.1462
   16MOL    C24 5754   0.264   6.544   4.297 -0.2676  0.2186 -0.0075
   16MOL    O25 5755   0.158   6.471   4.242  0.3616 -0.0146  0.1446
   16MOL    C26 5756   0.181   6.395   4.127 -0.0230  0.3287 -0.6826
   16MOL    C27 5757   0.308   6.397   4.058 -0.4609 -0.1089  0.2477
   16MOL    C28 5758   0.330   6.302   3.960 -0.2856 -0.5403  0.0629
   16MOL    C29 5759   0.226   6.217   3.925  0.1284 -0.4120  0.1357
   16MOL    C30 5760   0.101   6.226   3.988 -0.3782 -0.2738  0.0517
   16MOL    C31 5761   0.074   6.317   4.090  0.4526  0.6982 -0.0854
   16MOL    H32 5762   0.189   6.823   4.528  0.7294  1.4660 -0.5277
   16MOL    H33 5763   0.181   6.566   4.503  2.5950 -0.1617  0.6016
   16MOL    H34 5764   0.338   6.469   4.324 -0.8201 -1.3441 -2.6933
   16MOL    H35 5765   0.312   6.603   4.219  1.5131 -3.9168 -2.1995
   16MOL    H36 5766   0.397   6.450   4.085  0.3899 -0.5475 -1.6282
   16MOL    H37 5767   0.431   6.294   3.920 -0.1023 -1.1600  0.6503
   16MOL    H38 5768   0.254   6.143   3.851  2.2744 -0.8564  1.3444
   16MOL    H39 5769   0.025   6.155   3.959 -1.9855  1.6894 -0.6493
   16MOL    C40 5770   8.116   6.313   4.166 -0.3569  0.2230  0.4235
   16MOL    C41 5771   7.992   6.397   4.133  0.4897  0.4755  0.3311
   16MOL    O42 5772   8.003   6.258   4.094 -0.4311  0.1213 -0.2151
   16MOL    C43 5773   7.974   6.490   4.010 -0.0136 -0.2375 -0.7840
   16MOL    O44 5774   7.830   6.481   3.996  0.4273  0.1100  0.0947
   16MOL    C45 5775   7.773   6.491   3.869  0.1398  0.1612  0.0128
   16MOL    C46 5776   7.843   6.541   3.754  0.4966  0.0683  0.4520
   16MOL    C47 5777   7.776   6.553   3.634  0.2974  0.3627  0.7198
   16MOL    C48 5778   7.651   6.499   3.612 -0.0448 -0.3933  0.8957
   16MOL    C49 5779   7.581   6.450   3.726 -0.6550  0.3638 -0.4055
   16MOL    C50 5780   7.634   6.442   3.856  0.3211 -0.2578 -0.5574
   16MOL    H51 5781   8.135   6.280   4.268 -0.7441  0.5711  0.6083
   16MOL    H52 5782   7.927   6.423   4.216  0.1651  1.2924 -0.1702
   16MOL    H53 5783   8.024   6.450   3.923  0.6336 -0.9974 -0.0714
   16MOL    H54 5784   8.007   6.591   4.031 -1.6121  0.0207  0.6240
   16MOL    H55 5785   7.933   6.600   3.760 -1.2437  2.7459  1.3279
   16MOL    H56 5786   7.833   6.601   3.556 -0.1808 -0.2038  0.0099
   16MOL    H57 5787   7.613   6.489   3.511 -0.1456 -0.5470  0.9493
   16MOL    H58 5788   7.478   6.418   3.711 -1.1969  1.5703  0.6797
   16MOL    C59 5789   7.559   6.392   3.973 -0.9130  0.0787  0.3299
   16MOL    C60 5790   7.554   6.453   4.113 -0.3178  0.0183 -0.1198
   16MOL    O61 5791   7.440   6.463   4.016  0.1104  0.0032 -0.1418
   16MOL    C62 5792   7.609   6.589   4.159  0.0178  0.2925  0.0752
   16MOL    O63 5793   7.534   6.637   4.270  0.1237  0.3281  0.1411
   16MOL    C64 5794   7.547   6.763   4.321  0.2817  0.0434 -0.4486
   16MOL    C65 5795   7.597   6.874   4.246  0.5828 -0.2711  0.0677
   16MOL    C66 5796   7.593   7.003   4.300 -0.2977 -0.7194 -0.4029
   16MOL    C67 5797   7.534   7.031   4.426 -0.1601  0.1662 -0.0975
   16MOL    C68 5798   7.501   6.915   4.503 -0.4071 -0.5694 -0.0749
   16MOL    C69 5799   7.513   6.788   4.453  0.2022 -0.0051  0.2443
   16MOL    H70 5800   7.552   6.283   3.971  2.3331 -0.2039  1.5916
   16MOL    H71 5801   7.552   6.383   4.196  1.7946 -1.0863 -0.9757
   16MOL    H72 5802   7.595   6.658   4.076  0.9537  1.4946  0.9084
   16MOL    H73 5803   7.712   6.590   4.192 -0.3092  0.3385  1.1057
   16MOL    H74 5804   7.641   6.855   4.149 -1.9844 -1.6338 -0.8671
   16MOL    H75 5805   7.632   7.081   4.236 -0.4648  0.7363  1.2393
   16MOL    H76 5806   7.518   7.133   4.459  0.7791  0.1743  0.3642
   16MOL    H77 5807   7.449   6.928   4.597 -0.1571 -0.9880  0.1217
   16MOL    C78 5808   7.471   6.678   4.542  0.5718  0.0975 -0.2935
   16MOL    C79 5809   7.560   6.575   4.598  0.1887 -0.1763  0.5052
   16MOL    O80 5810   7.523   6.696   4.672 -0.4856  0.2771 -0.3594
   16MOL    C81 5811   7.707   6.570   4.560  0.4406 -0.0903 -0.4134
   16MOL    O82 5812   7.766   6.482   4.651 -0.1295 -0.4269 -0.4538
   16MOL    C83 5813   7.892   6.429   4.626 -0.0930 -0.4758 -0.2323
   16MOL    C84 5814   7.966   6.477   4.515 -0.2111  0.6593  0.2570
   16MOL    C85 5815   8.101   6.437   4.497 -0.1175  0.0184 -0.4414
   16MOL    C86 5816   8.164   6.350   4.588 -0.0871 -0.1975 -0.0328
   16MOL    C87 5817   8.097   6.309   4.703 -0.2100 -0.0963 -0.9127
   16MOL    C88 5818   7.959   6.342   4.722 -0.1288 -0.4413 -0.2128
   16MOL    H89 5819   7.365   6.656   4.536  0.7477 -0.4435 -1.4109
   16MOL    H90 5820   7.518   6.482   4.636  1.7222 -1.3353 -0.5721
   16MOL    H91 5821   7.749   6.669   4.574 -1.9040  1.0561 -1.2032
   16MOL    H92 5822   7.709   6.534   4.457  2.9646  0.4559 -0.5676
   16MOL    H93 5823   7.934   6.551   4.444 -0.8931 -2.4927 -2.8323
   16MOL    H94 5824   8.156   6.473   4.411  0.6842  2.4480  1.0704
   16MOL    H95 5825   0.097   6.321   4.572 -0.7428 -2.2655 -0.5796
   16MOL    H96 5826   8.144   6.255   4.784 -1.1955 -0.0898 -0.3400
   16MOL    C97 5827   7.891   6.294   4.844  0.3705 -0.2672  0.0149
   16MOL    C98 5828   7.793   6.178   4.860 -0.4358 -0.0014  0.3956
   16MOL    O99 5829   7.933   6.165   4.891  0.1405 -0.1115  0.3764
   16MOL   C100 5830   7.753   6.079   4.752  0.0203 -0.3039  0.7654
   16MOL   O101 5831   7.731   6.139   4.629  0.0340 -0.5408  0.4036
   16MOL   C102 5832   7.600   6.169   4.600  0.5063  0.0587  0.4112
   16MOL   C103 5833   7.497   6.181   4.696 -0.4277 -1.0252 -0.5691
   16MOL   C104 5834   7.363   6.219   4.663  0.2019  0.5294  0.8610
   16MOL   C105 5835   7.329   6.236   4.530  0.3164  0.2998 -0.3060
   16MOL   C106 5836   7.427   6.233   4.429  0.0789 -0.3667  0.1576
   16MOL   C107 5837   7.565   6.209   4.466 -0.1567 -0.0428 -0.2029
   16MOL   H108 5838   7.894   6.370   4.922 -0.5295  0.5980 -0.7699
   16MOL   H109 5839   7.730   6.182   4.948 -2.1795 -0.4618 -0.8145
   16MOL   H110 5840   7.682   6.009   4.798 -0.2903  1.3633  2.9297
   16MOL   H111 5841   7.838   6.021   4.719 -0.7457  0.4396 -2.6588
   16MOL   H112 5842   7.525   6.166   4.799  1.0064 -1.9631 -1.0766
   16MOL   H113 5843   7.296   6.244   4.744  0.6614  2.5415  0.6425
   16MOL   H114 5844   7.226   6.254   4.504 -0.2392 -2.6984 -0.3559
   16MOL   H115 5845   7.396   6.262   4.330  0.0475  0.6363  0.4575
   16MOL   C116 5846   7.685   6.208   4.364 -0.4911 -0.2915  0.9689
   16MOL   C117 5847   7.728   6.073   4.304 -0.2718 -0.1431  0.2771
   16MOL   O118 5848   7.662   6.172   4.226  0.8640  0.5386  0.1127
   16MOL   C119 5849   7.658   5.947   4.329  0.3406 -0.5955 -0.6272
   16MOL   O120 5850   7.698   5.856   4.231 -0.2804  0.3250  0.0606
   16MOL   C121 5851   7.620   5.751   4.188  0.0543 -0.2985  0.5084
   16MOL   C122 5852   7.477   5.744   4.223  0.2471 -0.6625  0.2360
   16MOL   C123 5853   7.390   5.651   4.164 -0.5084  0.1593  1.0468
   16MOL   C124 5854   7.439   5.555   4.078 -0.6574  0.3211  0.0950
   16MOL   C125 5855   7.578   5.556   4.053  0.0135  0.2333  0.5129
   16MOL   C126 5856   7.671   5.652   4.107 -0.3492 -0.3291 -0.0428
   16MOL   H127 5857   7.762   6.285   4.372  0.7020 -1.6086  2.4661
   16MOL   H128 5858   7.834   6.059   4.284 -0.4061 -1.2639  0.3544
   16MOL   H129 5859   7.551   5.965   4.337  0.5294  0.6357 -0.7272
   16MOL   H130 5860   7.688   5.915   4.429 -0.0989  0.7919 -0.0364
   16MOL   H131 5861   7.431   5.825   4.278 -0.4801 -0.3565 -0.8211
   16MOL   H132 5862   7.283   5.652   4.178 -0.7737  0.6868 -0.8950
   16MOL   H133 5863   7.380   5.481   4.024  1.9012 -0.6924 -1.3805
   16MOL   H134 5864   7.622   5.478   3.993 -1.6735 -2.2355  2.4057
   16MOL   C135 5865   7.817   5.659   4.072  0.3723  0.2173 -0.6713
   16MOL   C136 5866   7.919   5.541   4.077  0.1036  0.0213 -0.2978
   16MOL   O137 5867   7.851   5.583   3.960  0.2000 -0.3393  0.0353
   16MOL   C138 5868   7.876   5.405   4.138 -0.0124  0.6553  0.1339
   16MOL   O139 5869   7.985   5.317   4.108  0.4483 -0.4218 -0.8964
   16MOL   C140 5870   8.102   5.339   4.176  0.3519  0.4923 -0.3694
   16MOL   C141 5871   8.109   5.417   4.289  0.2742  0.4801  0.3896
   16MOL   C142 5872   0.054   5.436   4.359  0.1062 -0.2694  0.4580
   16MOL   C143 5873   0.170   5.381   4.311  0.6230  0.4157  0.0453
   16MOL   C144 5874   0.165   5.295   4.197 -0.3457  0.0953 -0.1343
   16MOL   C145 5875   0.046   5.277   4.127  0.1531 -0.5608 -0.7334
   16MOL   H146 5876   7.846   5.764   4.067 -0.3642  0.3258 -3.2432
   16MOL   H147 5877   8.023   5.570   4.073 -0.1989  1.5493  2.1153
   16MOL   H148 5878   7.795   5.355   4.085  1.4420 -0.9147 -0.6406
   16MOL   H149 5879   7.840   5.416   4.241 -1.8648 -2.9504 -0.0373
   16MOL   H150 5880   8.016   5.462   4.319  1.2261  1.1469  2.3990
   16MOL   H151 5881   0.054   5.505   4.443 -3.0226 -1.2816  1.3384
   16MOL   H152 5882   0.266   5.405   4.354  0.2413  0.8277  0.6730
   16MOL   H153 5883   0.260   5.260   4.159 -1.7549  0.4541 -4.1978
   16MOL   C154 5884   0.035   5.197   4.004  0.1166  0.0161  0.2409
   16MOL   C155 5885   0.051   5.255   3.865  0.2329  0.4709  0.4422
   16MOL   O156 5886   0.161   5.195   3.934 -0.3666  0.4352  1.2239
   16MOL   C157 5887   0.067   5.401   3.838 -0.4549  0.1373 -0.9109
   16MOL   O158 5888   8.133   5.463   3.772 -0.2202 -0.3122  0.2835
   16MOL   C159 5889   8.122   5.421   3.643 -0.9166 -0.5000 -0.0738
   16MOL   C160 5890   0.062   5.459   3.559  0.4461  0.0537 -0.5306
   16MOL   C161 5891   0.051   5.431   3.421  0.7560 -0.6811 -0.0558
   16MOL   C162 5892   8.111   5.356   3.374 -0.5962  0.0963  0.3974
   16MOL   C163 5893   7.999   5.324   3.455 -0.0723 -0.4593  0.4551
   16MOL   C164 5894   8.000   5.369   3.595 -0.0628  1.4095 -0.3314
   16MOL   H165 5895   0.007   5.092   4.012  2.0789 -0.5152  0.2282
   16MOL   H166 5896   0.022   5.209   3.771  2.7682 -2.2766  0.9238
   16MOL   H167 5897   0.168   5.411   3.797 -1.0986  3.4003 -1.9027
   16MOL   H168 5898   0.082   5.460   3.928  0.2439 -2.4065  0.6650
   16MOL   H169 5899   0.151   5.503   3.601  1.7134 -1.6548 -1.3444
   16MOL   H170 5900   0.134   5.454   3.356  0.1121  1.2103 -0.2416
   16MOL   H171 5901   8.108   5.324   3.271 -2.3471 -1.3996  0.8914
   16MOL   H172 5902   7.903   5.282   3.429  0.4287 -0.9218 -0.7264
   16MOL   C173 5903   7.879   5.357   3.686  0.0265  0.5175  0.0177
   16MOL   C174 5904   7.753   5.430   3.670  0.0170 -0.1976  0.0712
   16MOL   O175 5905   7.771   5.295   3.617 -0.5913  0.1539  0.1061
   16MOL   C176 5906   7.743   5.542   3.572 -0.3497 -0.1068 -0.6228
   16MOL   O177 5907   7.624   5.612   3.564 -0.3015  0.4363 -0.2245
   16MOL   C178 5908   7.519   5.575   3.485  0.2165  0.6703  0.0948
   16MOL   C179 5909   7.510   5.445   3.428  0.4671  0.0433  0.2908
   16MOL   C180 5910   7.392   5.412   3.354  0.7228 -0.1907  0.3924
   16MOL   C181 5911   7.290   5.514   3.335 -0.1032  0.9107 -0.1040
   16MOL   C182 5912   7.299   5.642   3.390  0.0814  0.2134 -0.3785
   16MOL   C183 5913   7.413   5.669   3.462 -0.4452  0.2447 -0.6354
   16MOL   H184 5914   7.908   5.325   3.786  0.2494 -0.2334 -0.2806
   16MOL   H185 5915   7.695   5.436   3.762  0.1621  1.7826  0.0410
   16MOL   H186 5916   7.779   5.510   3.474  2.8674  3.9688 -0.9158
   16MOL   H187 5917   7.825   5.610   3.594  0.3587 -1.0343 -0.3666
   16MOL   H188 5918   7.579   5.364   3.443 -0.8742 -1.5876 -2.0683
   16MOL   H189 5919   7.371   5.309   3.328 -0.4202 -0.0909  0.8574
   16MOL   H190 5920   7.206   5.475   3.279 -0.9697  2.5209  0.0775
   16MOL   H191 5921   7.219   5.714   3.383 -0.1004  0.0914  0.3892
   16MOL   C192 5922   7.446   5.802   3.515 -0.2073  0.3175 -0.0570
   16MOL   C193 5923   7.544   5.891   3.441 -0.2666 -0.1264  0.1121
   16MOL   O194 5924   7.403   5.914   3.441 -0.2619 -0.4318 -0.5534
   16MOL   C195 5925   7.603   5.858   3.307  0.1182 -1.1741 -0.4436
   16MOL   O196 5926   7.630   5.978   3.236  0.4143 -0.7585  0.4444
   16MOL   C197 5927   7.763   6.011   3.223 -0.6383  0.7581 -0.8305
   16MOL   C198 5928   7.867   5.963   3.316  0.9756 -0.2502  0.5247
   16MOL   C199 5929   7.999   6.005   3.294  0.1127  0.2685  0.3134
   16MOL   C200 5930   8.035   6.079   3.183  0.3142  0.7898  0.3627
   16MOL   C201 5931   7.936   6.120   3.091 -0.1360  0.4429 -0.1881
   16MOL   C202 5932   7.798   6.095   3.116 -0.5730 -0.0566  0.4958
   16MOL   H203 5933   7.436   5.819   3.622  0.8227  0.5641  0.0058
   16MOL   H204 5934   7.608   5.962   3.494 -0.9442  0.6712 -0.1246
   16MOL   H205 5935   7.534   5.797   3.249 -2.7181  2.0049 -0.5948
   16MOL   H206 5936   7.689   5.792   3.317 -0.1865 -1.4495  0.3931
   16MOL   H207 5937   7.834   5.903   3.400  0.4717  0.4614  0.8418
   16MOL   H208 5938   8.078   5.978   3.362  0.7351  0.7870 -0.1989
   16MOL   H209 5939   8.139   6.104   3.166  0.0388  2.3213  0.7984
   16MOL   H210 5940   7.967   6.183   3.009  0.7862 -0.0405 -0.2258
   16MOL   C211 5941   7.687   6.143   3.032 -0.4947 -0.1967  0.0739
   16MOL   C212 5942   7.611   6.270   3.047  0.1539 -0.1516 -0.9602
   16MOL   O213 5943   7.720   6.256   2.953  0.5138  0.2252  0.0276
   16MOL   C214 5944   7.629   6.356   3.169  0.7541 -0.0486 -0.1091
   16MOL   O215 5945   7.509   6.438   3.188 -0.8012  0.3997  0.1511
   16MOL   C216 5946   7.410   6.404   3.276  0.2290  0.5263  0.0424
   16MOL   C217 5947   7.408   6.286   3.358 -0.0284 -0.3491  0.3920
   16MOL   C218 5948   7.296   6.259   3.433  0.3626 -0.3664 -0.3440
   16MOL   C219 5949   7.184   6.345   3.433  0.0381 -0.0596 -0.7061
   16MOL   C220 5950   7.185   6.459   3.348 -0.5582 -0.3921 -0.0291
   16MOL   C221 5951   7.301   6.498   3.277  0.0225  0.5546  0.1331
   16MOL   H222 5952   7.657   6.064   2.963 -0.4356 -0.5655  0.4749
   16MOL   H223 5953   7.511   6.257   3.005 -1.4490  2.1160  1.9773
   16MOL   H224 5954   7.703   6.427   3.131 -0.1563 -0.5520 -2.9400
   16MOL   H225 5955   7.678   6.300   3.249  1.1267  0.5488  0.0906
   16MOL   H226 5956   7.493   6.220   3.363 -0.1238 -0.6689 -1.7057
   16MOL   H227 5957   7.298   6.172   3.497  1.9200  0.7232  1.1116
   16MOL   H228 5958   7.096   6.312   3.485 -0.0962  1.1752 -0.1429
   16MOL   H229 5959   7.100   6.524   3.361  0.7207  1.0640  1.2040
   16MOL   C230 5960   7.308   6.622   3.203  0.0480  0.0855 -0.0826
   16MOL   C231 5961   7.230   6.648   3.074 -0.3499  0.0233  0.0421
   16MOL   O232 5962   7.190   6.706   3.200  0.0127 -0.0324  0.2605
   16MOL   C233 5963   7.131   6.555   3.012 -0.4101  0.3413  0.1811
   16MOL   O234 5964   7.052   6.626   2.918 -0.8298  0.1698  0.0692
   16MOL   C235 5965   6.998   6.552   2.816  0.0480  0.0468  0.2549
   16MOL   C236 5966   6.984   6.413   2.823 -0.1374 -0.1446 -0.2523
   16MOL   C237 5967   6.931   6.347   2.712  0.2150 -0.1438 -0.4199
   16MOL   C238 5968   6.889   6.423   2.596  0.2043  0.0265 -0.4195
   16MOL   C239 5969   6.907   6.562   2.591  0.5946 -0.1870 -0.6831
   16MOL   C240 5970   6.959   6.629   2.704 -0.8235 -0.1589  0.0963
   16MOL   H241 5971   7.398   6.681   3.220 -0.3464  1.8593 -3.5998
   16MOL   H242 5972   7.276   6.715   3.001  1.7330 -2.0676 -0.6299
   16MOL   H243 5973   7.066   6.514   3.089 -0.4755  0.6227  0.2764
   16MOL   H244 5974   7.195   6.481   2.964  1.6632  2.9442 -1.2331
   16MOL   H245 5975   7.015   6.353   2.907  0.0003  0.2468 -0.0232
   16MOL   H246 5976   6.919   6.240   2.702 -0.6917  0.0167 -1.1641
   16MOL   H247 5977   6.848   6.361   2.518  0.1572  1.3473 -1.4561
   16MOL   H248 5978   6.875   6.612   2.500  0.4542  0.6085 -0.1932
   16MOL   C249 5979   6.957   6.778   2.696  0.3010  0.4200 -0.6475
   16MOL   C250 5980   7.076   6.861   2.688 -0.5206 -0.0251  0.4625
   16MOL   O251 5981   7.004   6.823   2.570 -0.5295  1.0948 -0.3685
   16MOL   C252 5982   7.216   6.808   2.702 -0.7351 -0.4971 -0.6676
   16MOL   O253 5983   7.315   6.889   2.651 -0.5988 -0.5447 -0.1540
   16MOL   C254 5984   7.365   7.003   2.710  0.1660 -0.3530  0.3908
   16MOL   C255 5985   7.303   7.073   2.816  0.5325 -1.3261  0.7323
   16MOL   C256 5986   7.355   7.195   2.863 -0.1287  0.6834 -0.2448
   16MOL   C257 5987   7.474   7.245   2.808  0.4785  0.1128 -0.8056
   16MOL   C258 5988   7.542   7.179   2.710 -0.2052  0.8794 -0.5448
   16MOL   C259 5989   7.491   7.055   2.660 -0.5356  0.8717 -1.0173
   16MOL   H260 5990   6.861   6.816   2.730 -0.1880  2.9636 -4.5905
   16MOL   H261 5991   7.065   6.967   2.714 -0.9455  0.3779 -1.3149
   16MOL   H262 5992   7.221   6.707   2.663  2.2120 -0.7382  0.2213
   16MOL   H263 5993   7.232   6.803   2.810 -0.5309  1.0369 -0.6109
   16MOL   H264 5994   7.205   7.051   2.854  0.2525 -0.5778  0.4666
   16MOL   H265 5995   7.303   7.251   2.939  0.5288  0.2167  0.5634
   16MOL   H266 5996   7.519   7.332   2.854 -0.2347 -0.8004  1.6723
   16MOL   H267 5997   7.637   7.209   2.669 -0.2003 -0.9973 -1.9522
   16MOL   C268 5998   7.552   6.988   2.543  0.1675 -0.4464 -0.0603
   16MOL   C269 5999   7.688   6.939   2.523  1.0575 -0.3387 -0.0290
   16MOL   O270 6000   7.579   6.853   2.564  0.1834  0.5405 -0.3081
   16MOL   C271 6001   7.803   6.971   2.624  0.4659 -0.4388  1.0077
   16MOL   O272 6002   7.916   6.883   2.607 -0.0146  0.4705 -0.1860
   16MOL   C273 6003   7.912   6.761   2.668 -0.0104 -0.3217 -0.7845
   16MOL   C274 6004   7.807   6.710   2.747 -0.0277 -0.6568 -1.0116
   16MOL   C275 6005   7.818   6.576   2.796 -0.0806 -0.4134  0.8254
   16MOL   C276 6006   7.933   6.503   2.760 -0.4137 -0.3658 -0.4300
   16MOL   C277 6007   8.034   6.551   2.684 -0.4311 -0.5729 -0.5142
   16MOL   C278 6008   8.028   6.680   2.632  0.2340 -0.6764 -0.1552
   16MOL   H279 6009   7.492   7.006   2.454 -0.7504 -0.8627  0.4664
   16MOL   H280 6010   7.719   6.910   2.423 -1.0758  0.9178 -1.0835
   16MOL   H281 6011   7.768   6.973   2.727 -1.1462 -2.9367  0.5353
   16MOL   H282 6012   7.839   7.073   2.608  0.0391 -0.4659 -0.2100
   16MOL   H283 6013   7.718   6.770   2.761  1.3274  1.2976 -0.5519
   16MOL   H284 6014   7.748   6.523   2.859  0.3554 -0.3356  1.3737
   16MOL   H285 6015   7.939   6.403   2.800 -0.6673  0.0682  0.7009
   16MOL   H286 6016   8.114   6.488   2.646 -1.2142 -2.0078  0.1680
   16MOL   C287 6017   8.138   6.729   2.544 -0.3576  0.4015  0.0805
   16MOL   C288 6018   0.076   6.812   2.602 -0.0989 -0.5361  0.2254
   16MOL   O289 6019   0.101   6.670   2.582  0.4935  0.0673  0.5337
   16MOL   C290 6020   0.082   6.857   2.748  0.1417 -0.5478 -0.1849
   16MOL   O291 6021   0.164   6.981   2.751 -0.1125  0.6845  0.1479
   16MOL   C292 6022   0.105   7.102   2.711  0.7828 -0.3002  0.4230
   16MOL   C293 6023   8.138   7.111   2.672 -0.1502  0.2823  0.6447
   16MOL   C294 6024   8.096   7.237   2.629 -0.7626  0.8577 -0.3222
   16MOL   C295 6025   0.008   7.350   2.620  0.5731 -0.4847  0.2709
   16MOL   C296 6026   0.143   7.341   2.659  0.6035  0.1376 -0.5726
   16MOL   C297 6027   0.191   7.216   2.704 -0.0422 -0.9620 -0.4489
   16MOL   H298 6028   8.118   6.729   2.437  1.6332  2.2146 -0.3121
   16MOL   H299 6029   0.126   6.873   2.527 -1.2933  0.7774  0.4746
   16MOL   H300 6030   0.149   6.798   2.809 -0.3908 -0.1894  0.7508
   16MOL   H301 6031   8.150   6.864   2.786 -0.5070  1.1115 -2.1300
   16MOL   H302 6032   8.066   7.031   2.677  0.5728 -0.5250 -1.4035
   16MOL   H303 6033   7.992   7.251   2.603 -1.7012  0.3269  2.8972
   16MOL   H304 6034   8.136   7.441   2.580 -2.3125 -0.6063  2.8509
   16MOL   H305 6035   0.202   7.431   2.647  0.0556  1.0469  2.8551
   16MOL   C306 6036   0.327   7.210   2.756 -0.7650  0.0486  1.3499
   16MOL   C307 6037   0.439   7.133   2.686 -0.0397 -0.3166 -0.1942
   16MOL   O308 6038   0.407   7.278   2.664 -0.0810  0.2741 -0.0605
   16MOL   C309 6039   0.413   7.047   2.565 -0.1451  0.6618 -0.2557
   16MOL   O310 6040   0.534   7.052   2.487 -0.0332 -0.0554 -0.1387
   16MOL   C311 6041   0.655   7.013   2.539  0.3122  0.5924 -0.6000
   16MOL   C312 6042   0.660   6.914   2.637 -1.1341  0.4595  0.1450
   16MOL   C313 6043   0.775   6.874   2.698  0.2797 -0.1826  0.2863
   16MOL   C314 6044   0.896   6.938   2.652  0.4932 -0.2271 -0.6931
   16MOL   C315 6045   0.895   7.036   2.544  0.6121  0.1820 -0.0403
   16MOL   C316 6046   0.773   7.072   2.486 -0.4459 -0.2149 -0.0493
   16MOL   H317 6047   0.331   7.265   2.850  1.3706  1.4492  0.4735
   16MOL   H318 6048   0.522   7.108   2.752 -0.9905 -0.9890  0.7679
   16MOL   H319 6049   0.331   7.083   2.504  0.3538 -0.9909 -1.9633
   16MOL   H320 6050   0.384   6.945   2.591  2.5358  0.1999  1.1257
   16MOL   H321 6051   0.569   6.862   2.664  0.0784 -0.9185  1.6698
   16MOL   H322 6052   0.774   6.792   2.768 -0.6211  0.2682  0.8096
   16MOL   H323 6053   0.997   6.919   2.684  1.0205 -0.6109 -2.5161
   16MOL   H324 6054   0.992   7.075   2.521  0.3592  1.1265  0.4880
   16MOL   C325 6055   0.755   7.180   2.393  0.1756  0.0118  0.0964
   16MOL   C326 6056   0.732   7.330   2.422  0.3980 -0.6839  0.2483
   16MOL   O327 6057   0.867   7.275   2.411  0.1343  0.3264 -0.3205
   16MOL   C328 6058   0.683   7.382   2.556  0.7164 -0.0410 -0.0207
   16MOL   O329 6059   0.731   7.515   2.586  0.0474 -0.0668 -0.7305
   16MOL   C330 6060   0.687   7.619   2.511 -0.7575 -0.3158 -0.1489
   16MOL   C331 6061   0.581   7.612   2.422  0.3518 -0.3135 -0.0088
   16MOL   C332 6062   0.538   7.721   2.348 -0.0600 -0.4079  0.9320
   16MOL   C333 6063   0.608   7.846   2.380  0.4852  0.4654 -0.0999
   16MOL   C334 6064   0.730   7.853   2.446  0.5149 -0.1115  0.3379
   16MOL   C335 6065   0.769   7.740   2.523  0.1151  0.1331  0.6941
   16MOL   H336 6066   0.755   7.146   2.289 -1.0855  0.9826 -0.2330
   16MOL   H337 6067   0.703   7.395   2.339 -0.9385 -0.2762  1.0112
   16MOL   H338 6068   0.718   7.311   2.632 -2.7580  0.5722  2.2793
   16MOL   H339 6069   0.575   7.387   2.556  0.6258 -1.2980  2.0112
   16MOL   H340 6070   0.525   7.522   2.402  0.3471 -0.4802  0.7730
   16MOL   H341 6071   0.448   7.726   2.289 -0.0597  0.4239  0.9900
   16MOL   H342 6072   0.581   7.934   2.324  2.7864  2.3005  1.5838
   16MOL   H343 6073   0.790   7.943   2.438  0.4872 -0.2772 -1.8484
   16MOL   C344 6074   0.898   7.739   2.598 -0.2047  0.0828 -0.4991
   16MOL   C345 6075   1.031   7.741   2.530  0.2555 -1.0138  0.7258
   16MOL   O346 6076   0.969   7.861   2.585 -0.1545 -0.5513 -0.3308
   16MOL   C347 6077   1.061   7.749   2.381 -0.2733  0.5965  0.0109
   16MOL   O348 6078   1.201   7.735   2.357  0.3726  0.5986 -0.1073
   16MOL   C349 6079   1.270   7.614   2.376  0.9081  0.0683  0.3881
   16MOL   C350 6080   1.196   7.495   2.412  0.4490  0.3154  0.1954
   16MOL   C351 6081   1.262   7.370   2.427 -0.1396  0.4313 -0.5067
   16MOL   C352 6082   1.398   7.361   2.389 -0.1895  0.4462  0.7464
   16MOL   C353 6083   1.469   7.476   2.339 -0.3146  0.3375  0.1865
   16MOL   C354 6084   1.408   7.605   2.346 -0.4682  0.6411  0.4462
   16MOL   H355 6085   0.884   7.716   2.703 -0.2223  0.3170 -0.4513
   16MOL   H356 6086   1.112   7.695   2.586  0.8431 -1.8190 -0.7447
   16MOL   H357 6087   1.029   7.848   2.350 -1.1921 -0.1894 -1.6320
   16MOL   H358 6088   0.997   7.672   2.338 -0.8902  0.8256  0.5132
   16MOL   H359 6089   1.091   7.501   2.436  0.7792 -0.5757  2.0201
   16MOL   H360 6090   1.202   7.283   2.447 -1.8007  1.6148 -0.2865
   16MOL   H361 6091   1.449   7.267   2.401 -0.9595  0.0089  0.6411
   16MOL   H362 6092   1.571   7.461   2.307 -0.9212 -1.7302 -0.8799
   16MOL   C363 6093   1.490   7.728   2.298 -0.4330 -0.3220 -0.3700
   16MOL   C364 6094   1.540   7.825   2.400 -0.2158 -0.7163  0.4005
   16MOL   O365 6095   1.627   7.722   2.352 -0.2173  0.5300 -0.1576
   16MOL   C366 6096   1.495   7.812   2.540  0.1019  0.3398  0.7670
   16MOL   O367 6097   1.578   7.899   2.619 -0.0219  0.4263 -0.4008
   16MOL   C368 6098   1.529   7.925   2.743  0.0456  0.3656 -0.0535
   16MOL   C369 6099   1.576   8.045   2.809  0.1080  0.3939 -0.8623
   16MOL   C370 6100   1.530   8.087   2.939  0.2719 -0.4408 -0.8005
   16MOL   C371 6101   1.453   7.996   3.014  0.1250 -0.1393 -0.2778
   16MOL   C372 6102   1.406   7.884   2.948  0.2204 -0.2279  0.1670
   16MOL   C373 6103   1.443   7.839   2.816 -0.3590  0.0283 -0.4321
   16MOL   H374 6104   1.467   7.747   2.193 -0.4910 -0.2957 -0.3528
   16MOL   H375 6105   1.558   7.924   2.358  1.2452 -1.4192 -0.6510
   16MOL   H376 6106   1.508   7.711   2.580  1.6004  0.6092  1.0009
   16MOL   H377 6107   1.389   7.832   2.547 -0.0718 -0.5354  0.7532
   16MOL   H378 6108   1.630   8.124   2.758 -0.0055  1.0280 -0.0260
   16MOL   H379 6109   1.563   0.012   2.979 -1.8942 -0.1047  0.3040
   16MOL   H380 6110   1.420   8.021   3.114 -1.2418 -1.8889 -0.2725
   16MOL   H381 6111   1.343   7.811   2.995 -0.9293  0.0915 -0.8426
   16MOL   H382 6112   1.407   7.745   2.777 -1.0271 -0.6109  1.6613
   17MOL     C1 6113   5.816   5.994   5.049  0.1293  0.9922  0.5735
   17MOL     C2 6114   5.754   6.112   5.106 -0.1179 -0.1546 -0.1773
   17MOL     O3 6115   5.839   6.026   5.183  0.2849  0.4013  0.0319
   17MOL     C4 6116   5.601   6.117   5.136  0.6628 -0.6757 -0.7062
   17MOL     O5 6117   5.574   6.212   5.246 -0.3006  0.4095  0.1771
   17MOL     C6 6118   5.602   6.349   5.231  0.3480  0.1901  0.8184
   17MOL     C7 6119   5.581   6.417   5.109  0.0285 -0.2408 -0.6506
   17MOL     C8 6120   5.604   6.556   5.097 -0.2057 -0.0141 -0.1685
   17MOL     C9 6121   5.647   6.628   5.204 -0.7545  0.0058 -0.7832
   17MOL    C10 6122   5.666   6.568   5.333  0.5200 -1.0411 -0.7059
   17MOL    C11 6123   5.643   6.424   5.343 -0.4105 -0.3227 -0.7877
   17MOL    H12 6124   5.899   5.995   4.978 -1.8207  0.9947 -1.8031
   17MOL    H13 6125   5.795   6.206   5.071 -0.4161 -0.2212 -0.7153
   17MOL    H14 6126   5.556   6.023   5.170 -0.1138 -0.4524 -1.0934
   17MOL    H15 6127   5.547   6.152   5.048  1.2431  3.5978  0.5389
   17MOL    H16 6128   5.552   6.365   5.019 -0.9319  1.5952 -1.4363
   17MOL    H17 6129   5.590   6.597   4.998 -1.4954  0.6030  0.2562
   17MOL    H18 6130   5.679   6.729   5.181  0.0030 -0.1106 -0.2793
   17MOL    H19 6131   5.702   6.619   5.421 -1.2516 -1.3393  0.2154
   17MOL    H20 6132   5.748   5.910   5.035  1.3723  0.0645 -0.0034
   17MOL    C21 6133   5.664   6.352   5.478  0.0703 -0.5790 -0.7728
   17MOL    C22 6134   5.804   6.300   5.513 -0.6738  0.3901 -0.7048
   17MOL    O23 6135   5.758   6.420   5.574 -0.1623 -0.8493  0.1166
   17MOL    C24 6136   5.922   6.308   5.428  0.4195 -0.2047 -0.4241
   17MOL    O25 6137   6.042   6.273   5.493  0.4670  0.4219 -0.7962
   17MOL    C26 6138   6.071   6.143   5.542  0.1072 -0.1952  0.5803
   17MOL    C27 6139   6.009   6.025   5.485 -0.3227  0.1709 -0.0520
   17MOL    C28 6140   6.057   5.896   5.523 -0.3102  0.2098  0.1232
   17MOL    C29 6141   6.169   5.880   5.602  0.6369 -0.0114 -0.7268
   17MOL    C30 6142   6.225   5.997   5.654 -0.3046 -0.4994 -0.6053
   17MOL    C31 6143   6.177   6.125   5.630 -0.1987  0.2778 -0.2230
   17MOL    H32 6144   5.581   6.295   5.520 -0.3407  0.0278 -0.7676
   17MOL    H33 6145   5.791   6.221   5.588  0.3072  0.7070 -0.1914
   17MOL    H34 6146   5.937   6.409   5.392 -0.0346  0.0215  0.0033
   17MOL    H35 6147   5.913   6.245   5.340 -1.4752 -1.5325  0.6642
   17MOL    H36 6148   5.924   6.034   5.419 -1.0214 -2.0750  0.5304
   17MOL    H37 6149   6.013   5.807   5.479 -0.3083  0.3132 -0.0870
   17MOL    H38 6150   6.206   5.779   5.612 -0.4159 -0.3299 -0.0278
   17MOL    H39 6151   6.316   5.979   5.709 -1.3569  2.8066  2.4347
   17MOL    C40 6152   6.248   6.245   5.693  0.0678  0.1235 -0.1170
   17MOL    C41 6153   6.181   6.339   5.799  0.4831 -0.2726 -0.6266
   17MOL    O42 6154   6.263   6.226   5.834 -0.7909 -0.0348  0.3329
   17MOL    C43 6155   6.034   6.333   5.817  1.1007 -0.2150 -0.1811
   17MOL    O44 6156   5.965   6.457   5.817  0.3318 -0.1377  0.0440
   17MOL    C45 6157   5.950   6.527   5.936  0.3837  0.2250 -0.1879
   17MOL    C46 6158   6.010   6.486   6.057  0.5105  0.0217  0.0368
   17MOL    C47 6159   5.997   6.565   6.178  0.0387  0.0384 -0.1976
   17MOL    C48 6160   5.943   6.696   6.173 -0.4994  0.4103 -0.0404
   17MOL    C49 6161   5.895   6.742   6.043 -0.2369  0.1775 -0.4411
   17MOL    C50 6162   5.886   6.653   5.930 -0.7495 -0.1451  0.3760
   17MOL    H51 6163   6.346   6.263   5.650 -0.1261 -1.5071 -1.2376
   17MOL    H52 6164   6.230   6.436   5.805  0.4589 -0.3278  0.7533
   17MOL    H53 6165   6.011   6.266   5.900  0.1646 -0.0025 -0.2610
   17MOL    H54 6166   5.985   6.287   5.732 -0.3854  1.7529 -0.4263
   17MOL    H55 6167   6.067   6.394   6.064 -0.2795 -0.5179 -0.6455
   17MOL    H56 6168   6.045   6.529   6.268 -1.7807 -1.0128  0.3845
   17MOL    H57 6169   5.938   6.754   6.264 -0.7502 -0.0917  0.2663
   17MOL    H58 6170   5.855   6.840   6.020  2.1650  0.8262 -2.0396
   17MOL    C59 6171   5.835   6.694   5.793 -0.4238 -0.5225 -0.8641
   17MOL    C60 6172   5.698   6.679   5.748 -0.3639 -0.5739  0.1075
   17MOL    O61 6173   5.738   6.805   5.799 -0.4191 -0.2919  0.8130
   17MOL    C62 6174   5.609   6.588   5.831 -0.6431 -0.0857 -0.2044
   17MOL    O63 6175   5.466   6.609   5.803  0.5020 -0.0646 -0.2807
   17MOL    C64 6176   5.375   6.577   5.901  0.0610  0.3275 -0.1939
   17MOL    C65 6177   5.404   6.480   6.006  0.1294 -0.2891  0.5980
   17MOL    C66 6178   5.315   6.457   6.110  0.4150 -0.4644  0.5896
   17MOL    C67 6179   5.195   6.523   6.107 -1.0554  0.2226 -0.3113
   17MOL    C68 6180   5.157   6.608   6.002  0.1908 -0.5519  0.1627
   17MOL    C69 6181   5.239   6.633   5.895 -0.0762  0.7720 -0.6805
   17MOL    H70 6182   5.912   6.713   5.718 -0.6666  0.3634 -0.8928
   17MOL    H71 6183   5.690   6.671   5.640  1.7544  1.0211 -0.1982
   17MOL    H72 6184   5.619   6.614   5.937  2.0747  1.1765 -0.7344
   17MOL    H73 6185   5.640   6.484   5.819  0.4840  0.2959 -0.7234
   17MOL    H74 6186   5.505   6.443   6.017  0.7571  1.8829  2.4900
   17MOL    H75 6187   5.342   6.395   6.194  0.9427  0.8360  1.4029
   17MOL    H76 6188   5.138   6.513   6.198 -0.2742  1.9317  0.3833
   17MOL    H77 6189   5.062   6.659   5.992  0.6228 -0.0411 -1.5036
   17MOL    C78 6190   5.205   6.716   5.776  0.3944  0.0260 -0.0449
   17MOL    C79 6191   5.188   6.678   5.632 -0.6277  0.2699 -0.6199
   17MOL    O80 6192   5.079   6.686   5.728  0.1626 -0.4809 -0.5418
   17MOL    C81 6193   5.211   6.530   5.588  0.4012 -0.1875  0.0863
   17MOL    O82 6194   5.211   6.511   5.445  0.0263 -0.0126 -0.5214
   17MOL    C83 6195   5.097   6.512   5.370 -0.1190  0.2261  0.0381
   17MOL    C84 6196   4.973   6.565   5.413 -0.4093  0.5094  0.8196
   17MOL    C85 6197   4.861   6.558   5.328  1.3039  0.2222 -0.2849
   17MOL    C86 6198   4.869   6.495   5.202  0.0964  0.2930  0.2485
   17MOL    C87 6199   4.991   6.434   5.163 -0.1345  0.6105  0.1971
   17MOL    C88 6200   5.105   6.442   5.247  0.1584 -0.2044 -0.1895
   17MOL    H89 6201   5.220   6.821   5.800  0.8846  0.2037 -1.1003
   17MOL    H90 6202   5.202   6.761   5.564  2.8898 -0.1760 -0.5499
   17MOL    H91 6203   5.142   6.461   5.635  3.3183 -2.2661  1.4891
   17MOL    H92 6204   5.308   6.496   5.623  0.0299 -0.2997  1.0059
   17MOL    H93 6205   4.963   6.618   5.507 -1.2037  0.0714  0.9812
   17MOL    H94 6206   4.764   6.599   5.350  1.2610 -0.2139  0.3657
   17MOL    H95 6207   4.778   6.478   5.145  0.0470 -1.2564  0.7655
   17MOL    H96 6208   5.006   6.387   5.067 -0.1888  0.7875  0.1009
   17MOL    C97 6209   5.233   6.374   5.210  0.0719  0.1461 -0.3579
   17MOL    C98 6210   5.245   6.227   5.236 -0.1589  0.0092  0.8904
   17MOL    O99 6211   5.229   6.281   5.102  0.2857 -0.4278  0.3748
   17MOL   C100 6212   5.140   6.141   5.289  0.2520 -0.1481 -0.0097
   17MOL   O101 6213   5.169   6.001   5.287 -0.1204 -0.0535  0.9914
   17MOL   C102 6214   5.135   5.927   5.174  0.0376  0.1342 -0.5187
   17MOL   C103 6215   5.112   5.983   5.044  0.0998  0.6280 -0.1906
   17MOL   C104 6216   5.092   5.899   4.935  0.8872  0.1302  0.9150
   17MOL   C105 6217   5.092   5.757   4.943 -1.1792  0.2614 -0.6218
   17MOL   C106 6218   5.104   5.702   5.075  0.5488  0.4751  0.1212
   17MOL   C107 6219   5.122   5.785   5.185 -0.9051  0.0601 -0.9430
   17MOL   H108 6220   5.315   6.445   5.210 -0.8637  1.2727  1.8685
   17MOL   H109 6221   5.338   6.184   5.274 -0.5962  0.5643  2.6442
   17MOL   H110 6222   5.042   6.162   5.246 -0.1072 -0.1246  0.8094
   17MOL   H111 6223   5.131   6.158   5.396 -0.6024  0.3432 -0.1523
   17MOL   H112 6224   5.118   6.087   5.015  1.2062  0.3256 -1.0972
   17MOL   H113 6225   5.082   5.955   4.843 -0.1889 -2.1701 -0.4111
   17MOL   H114 6226   5.095   5.694   4.856 -0.9833  1.0763 -1.2144
   17MOL   H115 6227   5.104   5.594   5.077  2.5116  0.4176 -1.4311
   17MOL   C116 6228   5.135   5.726   5.335  0.5031  0.6200 -0.4371
   17MOL   C117 6229   5.023   5.728   5.439  0.6029 -0.0076  0.1760
   17MOL   O118 6230   5.039   5.619   5.355  0.5499 -0.4437 -0.3584
   17MOL   C119 6231   4.901   5.813   5.434  0.0809  0.2262 -0.3410
   17MOL   O120 6232   4.789   5.736   5.488  0.3043 -0.1227 -0.3004
   17MOL   C121 6233   4.666   5.779   5.443  0.1012  0.9206  0.3290
   17MOL   C122 6234   4.595   5.869   5.523  0.2223  0.4285  0.0506
   17MOL   C123 6235   4.472   5.925   5.476 -0.1714 -0.3013  0.4981
   17MOL   C124 6236   4.423   5.887   5.348 -0.8006 -0.6241 -0.1728
   17MOL   C125 6237   4.496   5.797   5.272 -0.3890 -0.2066  0.9108
   17MOL   C126 6238   4.624   5.754   5.313  0.0750 -0.2210  0.1236
   17MOL   H127 6239   5.235   5.697   5.366  0.2885  0.7547  0.4148
   17MOL   H128 6240   5.070   5.708   5.536  1.5081 -0.5337 -0.3690
   17MOL   H129 6241   4.882   5.846   5.332 -0.4675  3.4346  0.7621
   17MOL   H130 6242   4.914   5.904   5.491 -0.8819 -0.8906  1.7211
   17MOL   H131 6243   4.630   5.914   5.614  0.9541  0.9415 -0.4811
   17MOL   H132 6244   4.429   6.001   5.540  2.8552 -0.4778  2.8636
   17MOL   H133 6245   4.337   5.926   5.296 -1.9230 -2.5514  0.1707
   17MOL   H134 6246   4.463   5.770   5.173  0.7479 -2.6492  1.1700
   17MOL   C135 6247   4.703   5.666   5.225 -0.5893  0.0019  0.5848
   17MOL   C136 6248   4.726   5.515   5.248  0.0475 -0.2996 -0.8249
   17MOL   O137 6249   4.639   5.565   5.151 -0.3815 -0.1430  0.0805
   17MOL   C138 6250   4.671   5.439   5.370  0.7083  0.1612  0.2626
   17MOL   O139 6251   4.682   5.304   5.336 -0.5941  0.4855 -0.3714
   17MOL   C140 6252   4.794   5.235   5.381 -0.2627 -0.6400 -0.5877
   17MOL   C141 6253   4.906   5.303   5.440 -0.2724 -0.6976 -0.3965
   17MOL   C142 6254   5.007   5.219   5.493  0.6078 -0.6993 -0.5633
   17MOL   C143 6255   5.010   5.081   5.475 -0.3424 -0.4487  0.0765
   17MOL   C144 6256   4.901   5.013   5.422 -0.4697  0.0805  0.3416
   17MOL   C145 6257   4.795   5.092   5.378  0.1305  0.4294 -0.1629
   17MOL   H146 6258   4.785   5.713   5.170 -0.7833  0.0370  0.3260
   17MOL   H147 6259   4.824   5.474   5.222 -0.4746 -2.0537 -0.0690
   17MOL   H148 6260   4.568   5.468   5.391 -0.6957 -3.3056 -1.3056
   17MOL   H149 6261   4.722   5.464   5.463 -1.4026 -0.4765  1.6236
   17MOL   H150 6262   4.909   5.408   5.467  3.8930 -0.2954 -2.0126
   17MOL   H151 6263   5.086   5.260   5.554 -0.6414  2.4574 -0.9409
   17MOL   H152 6264   5.095   5.023   5.509  1.1089  0.7578 -1.4324
   17MOL   H153 6265   4.902   4.905   5.420  0.8441  0.0689  1.3878
   17MOL   C154 6266   4.679   5.021   5.309  0.0514  0.5655 -0.8188
   17MOL   C155 6267   4.669   4.968   5.165 -1.0211 -0.0751 -0.0433
   17MOL   O156 6268   4.709   4.879   5.265 -0.2448 -0.8317  0.1280
   17MOL   C157 6269   4.766   5.020   5.059  0.3241 -0.0298  0.0100
   17MOL   O158 6270   4.748   4.945   4.934 -0.3160 -0.2640  0.4916
   17MOL   C159 6271   4.825   4.973   4.825  0.0883  0.1649 -0.2931
   17MOL   C160 6272   4.957   5.016   4.845 -0.3173  0.6689 -0.2096
   17MOL   C161 6273   5.040   5.056   4.736  0.8016  0.5774  0.9932
   17MOL   C162 6274   4.979   5.065   4.609 -1.1416  0.2737  0.1478
   17MOL   C163 6275   4.849   5.014   4.587 -0.2168 -0.2187 -0.3061
   17MOL   C164 6276   4.771   4.967   4.694 -0.2150  0.7796 -0.7384
   17MOL   H165 6277   4.582   5.039   5.356  0.4686  1.5799 -0.3182
   17MOL   H166 6278   4.570   4.945   5.126 -0.6513 -0.1022 -0.9697
   17MOL   H167 6279   4.865   5.010   5.104  0.9684  0.5979 -1.2389
   17MOL   H168 6280   4.748   5.126   5.043  3.2887  0.2693 -1.6301
   17MOL   H169 6281   4.984   5.029   4.949 -0.9310  3.4495 -0.3560
   17MOL   H170 6282   5.137   5.103   4.749  0.5106  1.9168 -1.4502
   17MOL   H171 6283   5.034   5.104   4.524 -1.6863  1.6643  0.4234
   17MOL   H172 6284   4.799   5.025   4.492  0.7018 -1.2871 -0.9250
   17MOL   C173 6285   4.627   4.912   4.676  0.4187 -0.5515  0.2548
   17MOL   C174 6286   4.510   4.998   4.633 -0.2121 -0.1781  0.9183
   17MOL   O175 6287   4.584   4.915   4.536  0.0805  0.7971 -0.5284
   17MOL   C176 6288   4.517   5.149   4.623 -0.8747  0.3859 -0.7815
   17MOL   O177 6289   4.559   5.218   4.744 -0.3140  0.5833 -0.3416
   17MOL   C178 6290   4.515   5.343   4.763 -0.2461 -0.3079  0.1328
   17MOL   C179 6291   4.487   5.435   4.653  0.1289  0.1253 -0.8943
   17MOL   C180 6292   4.420   5.554   4.680 -0.0825  0.1136  0.1748
   17MOL   C181 6293   4.403   5.598   4.811 -0.9345 -0.4090 -0.2954
   17MOL   C182 6294   4.444   5.518   4.923 -0.3420  0.3078  0.4819
   17MOL   C183 6295   4.494   5.389   4.893  0.9205  0.3440  0.5509
   17MOL   H184 6296   4.614   4.822   4.736  0.8729 -1.0014 -0.3234
   17MOL   H185 6297   4.406   4.970   4.647 -0.5244 -1.6143 -3.4283
   17MOL   H186 6298   4.416   5.185   4.600 -0.8646  1.5794  0.9410
   17MOL   H187 6299   4.576   5.174   4.535 -1.2826 -1.6894 -1.6771
   17MOL   H188 6300   4.508   5.403   4.552  0.3628  1.4324 -1.2641
   17MOL   H189 6301   4.387   5.623   4.604 -0.9169 -0.5394 -0.0714
   17MOL   H190 6302   4.357   5.689   4.848 -0.6762 -0.7980  1.0243
   17MOL   H191 6303   4.423   5.539   5.027 -1.1651 -1.1125  0.6324
   17MOL   C192 6304   4.527   5.297   5.010  0.4447  0.4495 -1.2886
   17MOL   C193 6305   4.434   5.260   5.125  0.1610 -0.2110 -0.1514
   17MOL   O194 6306   4.450   5.179   5.007  0.2709 -0.8797 -0.2189
   17MOL   C195 6307   4.292   5.316   5.143 -0.9616  0.2519 -0.2869
   17MOL   O196 6308   4.209   5.210   5.190  0.0158 -0.0066  0.4898
   17MOL   C197 6309   4.229   5.158   5.314 -0.0559  0.0980  0.1991
   17MOL   C198 6310   4.295   5.224   5.420  0.4444  0.2256  0.1228
   17MOL   C199 6311   4.314   5.165   5.544 -0.1548 -0.1693 -0.5408
   17MOL   C200 6312   4.243   5.045   5.573 -0.1233 -0.0821  0.2666
   17MOL   C201 6313   4.183   4.981   5.465 -0.3728 -0.5497  0.5309
   17MOL   C202 6314   4.172   5.030   5.336 -0.4890 -0.1510 -0.1683
   17MOL   H203 6315   4.633   5.297   5.033 -0.1473  0.5025  1.7079
   17MOL   H204 6316   4.476   5.219   5.216 -1.1590  0.4021  0.7533
   17MOL   H205 6317   4.256   5.346   5.044 -1.1331  1.2137  0.0705
   17MOL   H206 6318   4.288   5.398   5.213  2.6992 -0.4198  0.7963
   17MOL   H207 6319   4.338   5.322   5.409 -1.4404  0.9790 -0.7302
   17MOL   H208 6320   4.387   5.205   5.613  1.6366 -0.4241 -2.2570
   17MOL   H209 6321   4.255   4.995   5.668 -1.0270 -1.6178 -0.4169
   17MOL   H210 6322   4.130   4.889   5.487 -1.6822  0.0605 -0.0060
   17MOL   C211 6323   4.084   4.967   5.232  0.3409  0.5162  0.1443
   17MOL   C212 6324   4.125   4.845   5.160 -0.4434 -0.6209 -0.1956
   17MOL   O213 6325   4.043   4.832   5.272 -0.1460  0.4548 -0.1160
   17MOL   C214 6326   4.266   4.787   5.171 -0.3064 -0.3714  0.0991
   17MOL   O215 6327   4.282   4.653   5.120  0.3916  0.5642 -0.1326
   17MOL   C216 6328   4.264   4.618   4.985  0.1367  1.0429  0.2859
   17MOL   C217 6329   4.265   4.714   4.877 -0.0605  0.0475  0.7287
   17MOL   C218 6330   4.251   4.684   4.744  0.0341  0.5176  0.1792
   17MOL   C219 6331   4.259   4.544   4.712  0.1300 -0.3323 -0.3461
   17MOL   C220 6332   4.267   4.446   4.808 -0.1357 -0.5166 -0.4047
   17MOL   C221 6333   4.269   4.482   4.948  0.5349  0.2928  0.2236
   17MOL   H222 6334   3.997   5.026   5.206 -1.4744 -0.6767  3.1543
   17MOL   H223 6335   4.079   4.823   5.064  2.1344  1.3623 -1.9514
   17MOL   H224 6336   4.299   4.782   5.275  1.1951 -2.1279 -0.4310
   17MOL   H225 6337   4.342   4.850   5.125  1.1486 -1.1446  1.3858
   17MOL   H226 6338   4.279   4.816   4.910 -1.6795  0.3882  0.3943
   17MOL   H227 6339   4.248   4.750   4.659 -0.2138  0.1702 -0.0842
   17MOL   H228 6340   4.253   4.511   4.609 -1.7809 -0.8447 -0.0753
   17MOL   H229 6341   4.264   4.343   4.777 -3.4393 -0.4563 -0.5211
   17MOL   C230 6342   4.306   4.378   5.048  0.2609  0.5830  0.2314
   17MOL   C231 6343   4.207   4.326   5.145 -0.2605 -0.2459 -0.2776
   17MOL   O232 6344   4.231   4.258   5.019  0.4945  0.4484  0.4384
   17MOL   C233 6345   4.075   4.383   5.167  0.7330  0.8129 -0.1400
   17MOL   O234 6346   4.003   4.317   5.277  0.3215  0.1135  0.4855
   17MOL   C235 6347   3.949   4.193   5.253 -0.1497 -0.0943  0.3082
   17MOL   C236 6348   3.954   4.117   5.139 -0.3058  0.4150  0.0318
   17MOL   C237 6349   3.878   3.999   5.133 -0.2355 -0.1342  1.6831
   17MOL   C238 6350   3.800   3.959   5.239  0.1961 -0.2784  0.1933
   17MOL   C239 6351   3.800   4.033   5.362 -0.4548 -0.3632  0.4168
   17MOL   C240 6352   3.870   4.156   5.363  0.2536  0.4950 -0.1985
   17MOL   H241 6353   4.414   4.365   5.051 -0.0010 -1.6366  0.6971
   17MOL   H242 6354   4.240   4.270   5.232 -0.1100  1.7882  1.0163
   17MOL   H243 6355   4.014   4.381   5.076 -0.1491 -1.0328  0.4686
   17MOL   H244 6356   4.085   4.489   5.191 -0.2385  1.0561 -0.7674
   17MOL   H245 6357   4.022   4.145   5.059  0.3048  1.0031  0.7514
   17MOL   H246 6358   3.881   3.945   5.040 -0.0777  1.5098  0.7226
   17MOL   H247 6359   3.743   3.867   5.239 -0.7332  0.2894 -0.8017
   17MOL   H248 6360   3.728   4.007   5.438 -2.2431 -1.9296 -1.7490
   17MOL   C249 6361   3.857   4.234   5.488 -0.8432  0.3167 -0.8795
   17MOL   C250 6362   3.797   4.374   5.487 -0.6584  0.9222 -0.4899
   17MOL   O251 6363   3.726   4.262   5.534  0.1698 -0.1055  0.2345
   17MOL   C252 6364   3.751   4.447   5.367  0.3535 -0.1675  0.2221
   17MOL   O253 6365   3.631   4.518   5.404 -0.0385  0.1221 -0.4615
   17MOL   C254 6366   3.639   4.652   5.418  0.6346  1.1583 -0.5329
   17MOL   C255 6367   3.758   4.729   5.413 -0.2317 -0.4674 -0.4245
   17MOL   C256 6368   3.752   4.870   5.428  0.3890  0.2831 -0.3448
   17MOL   C257 6369   3.621   4.930   5.427 -0.5782 -0.0340 -0.1885
   17MOL   C258 6370   3.504   4.851   5.433  1.1957 -0.4133 -0.2727
   17MOL   C259 6371   3.511   4.715   5.430  0.1364  0.9237 -0.0375
   17MOL   H260 6372   3.925   4.195   5.564 -0.3950 -0.0187 -1.4403
   17MOL   H261 6373   3.827   4.430   5.575 -0.9647  0.5709 -0.1615
   17MOL   H262 6374   3.721   4.386   5.282  1.4239  2.8741 -2.4426
   17MOL   H263 6375   3.839   4.498   5.328  0.2775  2.3985  3.2712
   17MOL   H264 6376   3.856   4.689   5.391 -0.5130  0.0853 -2.8121
   17MOL   H265 6377   3.843   4.929   5.431  0.1553  0.7346 -1.8956
   17MOL   H266 6378   3.617   5.038   5.420  2.0498  0.1740  0.6527
   17MOL   H267 6379   3.409   4.900   5.422  0.8018 -0.4434  2.7567
   17MOL   C268 6380   3.380   4.637   5.406 -0.2274  0.0166 -0.7740
   17MOL   C269 6381   3.325   4.542   5.508 -0.5675 -0.7586 -0.6047
   17MOL   O270 6382   3.265   4.676   5.483 -0.4981  0.1171  0.5472
   17MOL   C271 6383   3.392   4.522   5.647  0.5985 -0.2180 -0.6115
   17MOL   O272 6384   3.302   4.452   5.732 -0.6563  0.3666 -0.6603
   17MOL   C273 6385   3.308   4.316   5.722  0.2766  0.2450  0.0340
   17MOL   C274 6386   3.376   4.238   5.624 -0.9904  0.1470 -0.0121
   17MOL   C275 6387   3.377   4.099   5.636  0.7134  0.0311  0.2355
   17MOL   C276 6388   3.315   4.030   5.744  0.5638  0.0113  0.1157
   17MOL   C277 6389   3.250   4.104   5.845  0.2037  0.1661  0.8184
   17MOL   C278 6390   3.241   4.246   5.833  0.2109 -0.4345  0.1612
   17MOL   H279 6391   3.359   4.627   5.299 -0.0323  1.1563 -0.9290
   17MOL   H280 6392   3.268   4.454   5.479 -1.1438 -0.1221 -1.4297
   17MOL   H281 6393   3.421   4.613   5.700 -0.0082  0.0678 -0.7663
   17MOL   H282 6394   3.488   4.472   5.641 -0.1734 -2.0944  1.9764
   17MOL   H283 6395   3.419   4.281   5.535 -1.5119  0.4829 -0.1006
   17MOL   H284 6396   3.424   4.041   5.559  1.1759  0.9586 -0.1873
   17MOL   H285 6397   3.320   3.923   5.738  0.2694  0.0912 -1.7220
   17MOL   H286 6398   3.192   4.049   5.918  1.2386 -1.3114  0.5477
   17MOL   C287 6399   3.161   4.336   5.917  0.0193  0.8631 -0.0173
   17MOL   C288 6400   3.015   4.371   5.892  0.0618  0.2557 -0.3408
   17MOL   O289 6401   3.055   4.271   5.985  0.1196  0.1814  0.6688
   17MOL   C290 6402   2.926   4.311   5.786  0.0089 -0.0523  0.2968
   17MOL   O291 6403   2.815   4.269   5.862  0.3585  0.0553 -0.3839
   17MOL   C292 6404   2.758   4.153   5.821 -0.5587  0.3312 -0.3874
   17MOL   C293 6405   2.699   4.143   5.694  0.7225  0.1003  0.3646
   17MOL   C294 6406   2.634   4.027   5.663  0.0848  0.3780 -0.8855
   17MOL   C295 6407   2.634   3.915   5.750 -0.3073 -0.0950  0.5390
   17MOL   C296 6408   2.694   3.924   5.875 -0.5658 -1.0054 -0.3911
   17MOL   C297 6409   2.753   4.042   5.918  0.5897  0.5453 -0.1971
   17MOL   H298 6410   3.222   4.398   5.983  1.1976 -1.6993  1.3722
   17MOL   H299 6411   2.991   4.472   5.925  0.1429  0.2755 -0.3441
   17MOL   H300 6412   2.990   4.228   5.754 -1.6471 -0.5898 -1.6823
   17MOL   H301 6413   2.893   4.383   5.711 -2.1385  0.5396  1.7534
   17MOL   H302 6414   2.688   4.227   5.627 -0.0463  0.3951  0.8524
   17MOL   H303 6415   2.599   4.000   5.564 -0.3739 -0.0921 -0.6032
   17MOL   H304 6416   2.580   3.829   5.714 -1.2815  0.9423 -0.5326
   17MOL   H305 6417   2.684   3.841   5.942 -1.5469  0.7395  1.7015
   17MOL   C306 6418   2.803   4.061   6.063  0.2157 -0.6751  0.5956
   17MOL   C307 6419   2.719   4.085   6.186  0.7890  0.3770 -0.5748
   17MOL   O308 6420   2.758   3.951   6.152 -0.7199 -0.2650  0.2151
   17MOL   C309 6421   2.567   4.095   6.181  0.1878  0.2733  0.3104
   17MOL   O310 6422   2.523   4.227   6.151  0.4134 -0.1479 -0.9348
   17MOL   C311 6423   2.394   4.256   6.196  0.7180  0.1086  0.0195
   17MOL   C312 6424   2.301   4.163   6.248  0.1355 -0.4552 -0.2033
   17MOL   C313 6425   2.176   4.205   6.294 -0.5630  0.1634 -0.2880
   17MOL   C314 6426   2.136   4.336   6.285 -0.2092 -0.7301 -0.0015
   17MOL   C315 6427   2.230   4.428   6.234 -0.0820 -0.2712  0.0366
   17MOL   C316 6428   2.356   4.391   6.181 -0.0440  0.0300  0.7206
   17MOL   H317 6429   2.911   4.077   6.060  0.0370  0.5710  0.5056
   17MOL   H318 6430   2.770   4.127   6.273 -0.8138  1.6516 -0.2030
   17MOL   H319 6431   2.533   4.062   6.279  0.4930  1.2492  0.7489
   17MOL   H320 6432   2.527   4.034   6.100  1.8997  0.8049 -0.9911
   17MOL   H321 6433   2.330   4.060   6.263 -2.8898 -1.5261 -1.4678
   17MOL   H322 6434   2.108   4.145   6.352  0.4470  0.2354  0.9817
   17MOL   H323 6435   2.039   4.379   6.308 -1.1450 -1.4950 -2.3575
   17MOL   H324 6436   2.196   4.529   6.221 -2.5265 -1.2775 -1.7075
   17MOL   C325 6437   2.449   4.495   6.112 -0.5044 -0.2247 -0.0636
   17MOL   C326 6438   2.481   4.500   5.961  0.0722 -0.4505  0.2012
   17MOL   O327 6439   2.382   4.586   6.020  0.2233 -0.0485  0.4862
   17MOL   C328 6440   2.414   4.406   5.858  0.1347 -0.4276 -0.2146
   17MOL   O329 6441   2.371   4.471   5.739 -0.0903 -0.0109 -0.0151
   17MOL   C330 6442   2.467   4.532   5.662  0.3277 -0.0315 -0.4094
   17MOL   C331 6443   2.604   4.490   5.656  0.3298 -0.1148  0.5181
   17MOL   C332 6444   2.691   4.556   5.569  0.0481 -1.0490  0.2841
   17MOL   C333 6445   2.647   4.648   5.475 -0.0425  0.1448  1.0182
   17MOL   C334 6446   2.512   4.684   5.480 -0.8453 -0.3738  0.9644
   17MOL   C335 6447   2.426   4.633   5.574  0.0864  0.6012 -0.1019
   17MOL   H336 6448   2.517   4.541   6.184 -0.3394  1.2849 -1.1632
   17MOL   H337 6449   2.569   4.553   5.926  0.5607 -1.7387 -0.5392
   17MOL   H338 6450   2.319   4.386   5.908  1.5638  0.8543  3.1102
   17MOL   H339 6451   2.471   4.316   5.836  0.7802 -0.0688 -0.0144
   17MOL   H340 6452   2.653   4.428   5.729 -1.5152 -0.9131  1.1052
   17MOL   H341 6453   2.795   4.527   5.565 -0.1842 -1.6669 -1.7408
   17MOL   H342 6454   2.712   4.693   5.402  0.5865  1.5434  2.4014
   17MOL   H343 6455   2.476   4.765   5.419 -0.0270 -0.5019  0.3008
   17MOL   C344 6456   2.278   4.670   5.559  0.0588 -0.2840 -0.9793
   17MOL   C345 6457   2.204   4.754   5.659 -0.1030 -0.4598 -0.2109
   17MOL   O346 6458   2.253   4.817   5.536 -0.9885  0.5016 -0.3364
   17MOL   C347 6459   2.260   4.823   5.788  0.0585  0.0019 -0.4635
   17MOL   O348 6460   2.174   4.930   5.842 -0.0448  0.2890  0.1320
   17MOL   C349 6461   2.198   5.061   5.802  0.5266 -0.2869  0.8031
   17MOL   C350 6462   2.290   5.090   5.698 -0.3840 -1.0690  0.0223
   17MOL   C351 6463   2.317   5.228   5.665 -0.5179  0.1085 -0.0451
   17MOL   C352 6464   2.265   5.337   5.736  0.7627  0.1481 -0.4484
   17MOL   C353 6465   2.161   5.297   5.828 -0.3939 -0.1237 -0.1999
   17MOL   C354 6466   2.129   5.162   5.866 -0.2264  1.2866  0.4623
   17MOL   H355 6467   2.224   4.597   5.500 -3.4908  0.3341  1.3592
   17MOL   H356 6468   2.095   4.750   5.659 -0.2014  0.5189 -4.0535
   17MOL   H357 6469   2.365   4.848   5.778 -0.3675  1.4179 -1.6282
   17MOL   H358 6470   2.273   4.746   5.864  2.4222 -2.1112 -2.9097
   17MOL   H359 6471   2.349   5.023   5.638  2.0738  1.9037 -1.0464
   17MOL   H360 6472   2.379   5.254   5.581 -1.4383 -0.3859 -0.8867
   17MOL   H361 6473   2.287   5.436   5.698  0.9664  0.5512  0.6976
   17MOL   H362 6474   2.104   5.371   5.880  0.8008 -0.4564  1.6451
   17MOL   C363 6475   2.018   5.123   5.959  0.5651  0.2591  0.0127
   17MOL   C364 6476   2.037   5.122   6.108  0.0533  0.0670  0.6537
   17MOL   O365 6477   1.979   5.235   6.042  0.5431  0.4695 -0.5037
   17MOL   C366 6478   2.173   5.145   6.173 -0.0057  0.1899 -0.6312
   17MOL   O367 6479   2.146   5.130   6.314 -0.0335 -0.1467 -0.9204
   17MOL   C368 6480   2.246   5.178   6.397  1.0398 -0.1989  0.0267
   17MOL   C369 6481   2.382   5.209   6.355  0.6287  0.0813  0.3203
   17MOL   C370 6482   2.480   5.247   6.449 -0.4132  0.0353 -0.3234
   17MOL   C371 6483   2.442   5.268   6.585  0.0155 -0.3741  0.3502
   17MOL   C372 6484   2.307   5.258   6.623  0.0530  0.4187 -0.3027
   17MOL   C373 6485   2.210   5.205   6.532  0.0775  0.8753 -0.4046
   17MOL   H374 6486   1.931   5.075   5.914 -1.4814  0.5274  3.4839
   17MOL   H375 6487   1.954   5.074   6.158 -0.8489 -0.4387 -1.3106
   17MOL   H376 6488   2.211   5.245   6.151  0.5939  0.1581  0.2315
   17MOL   H377 6489   2.243   5.066   6.143  1.5897  2.0871 -1.9980
   17MOL   H378 6490   2.409   5.202   6.251 -0.6571  0.5154 -0.0533
   17MOL   H379 6491   2.581   5.270   6.420 -1.0736 -0.6547 -3.3601
   17MOL   H380 6492   2.511   5.307   6.659 -1.3664  1.9297  0.4619
   17MOL   H381 6493   2.278   5.280   6.725 -0.3409 -1.0706 -0.0778
   17MOL   H382 6494   2.108   5.189   6.563  0.8945 -1.5639  1.1752
   18MOL     C1 6495   3.788   4.581   5.002  0.3384 -0.1647 -0.4697
   18MOL     C2 6496   3.641   4.564   5.013  0.0789  0.8100 -0.0477
   18MOL     O3 6497   3.735   4.451   5.022  0.0273  0.2782  0.0441
   18MOL     C4 6498   3.550   4.555   4.891  0.1263  0.3423 -0.5176
   18MOL     O5 6499   3.628   4.578   4.772  0.7102  0.4609 -0.3510
   18MOL     C6 6500   3.588   4.681   4.688 -0.2504 -0.2960  0.2404
   18MOL     C7 6501   3.455   4.712   4.658 -0.1655  0.2482 -0.2415
   18MOL     C8 6502   3.431   4.823   4.567 -0.0176 -0.4845 -0.3087
   18MOL     C9 6503   3.539   4.897   4.509  0.5404 -0.2021  0.3869
   18MOL    C10 6504   3.667   4.855   4.543 -0.0631 -0.0676  0.4889
   18MOL    C11 6505   3.694   4.750   4.627  0.6271 -0.5266  0.6856
   18MOL    H12 6506   3.833   4.630   5.088  1.8234 -1.5107 -0.4413
   18MOL    H13 6507   3.585   4.592   5.103  1.6823 -1.9515  1.8854
   18MOL    H14 6508   3.493   4.645   4.911 -2.8980 -1.8514  1.0422
   18MOL    H15 6509   3.498   4.459   4.895  0.8932 -0.0552  0.0824
   18MOL    H16 6510   3.369   4.657   4.693  0.2169 -0.4047 -0.3237
   18MOL    H17 6511   3.328   4.855   4.561  0.2687  0.2897 -1.2446
   18MOL    H18 6512   3.524   4.976   4.438  0.0148 -1.0374 -0.4433
   18MOL    H19 6513   3.756   4.907   4.510  0.1431 -1.5743 -1.4447
   18MOL    H20 6514   3.826   4.597   4.902  2.5235 -3.1393 -0.2082
   18MOL    C21 6515   3.837   4.710   4.647  0.5531 -0.1727 -0.7231
   18MOL    C22 6516   3.908   4.589   4.589  0.6080  0.4423  0.0138
   18MOL    O23 6517   3.916   4.720   4.533 -0.0109  0.7305  0.7439
   18MOL    C24 6518   3.833   4.491   4.503  0.1651 -0.0938  0.1798
   18MOL    O25 6519   3.822   4.367   4.569 -0.0088 -0.4365 -0.0396
   18MOL    C26 6520   3.756   4.259   4.513 -0.2067 -0.2537  0.1919
   18MOL    C27 6521   3.686   4.266   4.392  0.3011  0.1762  0.2219
   18MOL    C28 6522   3.618   4.156   4.334 -0.0674 -0.0849  0.5562
   18MOL    C29 6523   3.625   4.027   4.396 -0.0494 -0.0488  0.8246
   18MOL    C30 6524   3.694   4.020   4.518  0.3014 -0.4681  0.4765
   18MOL    C31 6525   3.755   4.136   4.578  0.0920 -0.9876  0.1561
   18MOL    H32 6526   3.871   4.756   4.740 -1.0141  2.1377 -1.2716
   18MOL    H33 6527   3.994   4.556   4.648  0.4666  0.3216  0.1503
   18MOL    H34 6528   3.882   4.471   4.408 -0.9050 -0.6349 -0.2549
   18MOL    H35 6529   3.740   4.540   4.475  2.0864  3.2618 -0.5691
   18MOL    H36 6530   3.682   4.354   4.329 -3.0503 -0.1059 -0.0952
   18MOL    H37 6531   3.563   4.159   4.242  0.1918  0.4162  0.4173
   18MOL    H38 6532   3.590   3.935   4.352 -0.8494  1.0402 -0.8235
   18MOL    H39 6533   3.697   3.920   4.560  0.6847  0.0596  1.7175
   18MOL    C40 6534   3.826   4.125   4.712  0.4464  0.1649 -0.7798
   18MOL    C41 6535   3.741   4.151   4.828  0.3967 -0.2335 -0.3688
   18MOL    O42 6536   3.776   4.017   4.794 -0.0521  0.4910  0.2060
   18MOL    C43 6537   3.586   4.178   4.827  0.5222 -0.9670  0.9084
   18MOL    O44 6538   3.526   4.200   4.956 -0.7727 -0.2908  0.6285
   18MOL    C45 6539   3.505   4.094   5.043 -0.5427 -0.2477  0.0070
   18MOL    C46 6540   3.533   3.957   5.021  0.4876  0.3411  0.1388
   18MOL    C47 6541   3.498   3.856   5.117  0.2134  0.0362 -0.7999
   18MOL    C48 6542   3.429   3.897   5.230 -0.2439 -1.1794  0.0043
   18MOL    C49 6543   3.403   4.030   5.254 -1.7536  0.0542  0.0762
   18MOL    C50 6544   3.444   4.132   5.167  0.6633  0.7440 -0.0513
   18MOL    H51 6545   3.934   4.138   4.708  0.8700 -3.0809 -1.5203
   18MOL    H52 6546   3.790   4.178   4.921  0.3211  3.2403 -1.2782
   18MOL    H53 6547   3.525   4.111   4.768 -2.4908  1.3538  1.2459
   18MOL    H54 6548   3.570   4.273   4.777 -0.1640 -1.8784 -0.6373
   18MOL    H55 6549   3.580   3.933   4.927  0.2844  1.6911 -0.3184
   18MOL    H56 6550   3.509   3.750   5.101  2.7140 -0.0993  1.4297
   18MOL    H57 6551   3.389   3.824   5.299 -1.9094  0.7285  1.1177
   18MOL    H58 6552   3.336   4.063   5.332  1.1928 -1.0855  3.1589
   18MOL    C59 6553   3.416   4.272   5.198 -0.0538 -0.1789 -0.5597
   18MOL    C60 6554   3.306   4.341   5.129  0.0270 -0.0870  0.1949
   18MOL    O61 6555   3.302   4.298   5.268  0.2603 -0.5114  0.4451
   18MOL    C62 6556   3.208   4.275   5.033  0.3226  0.9571  0.0946
   18MOL    O63 6557   3.095   4.359   5.021  0.5003  0.5341 -0.1893
   18MOL    C64 6558   3.047   4.380   4.893  0.3677  0.3248  0.0566
   18MOL    C65 6559   3.064   4.292   4.784  0.3041 -0.4306  0.1292
   18MOL    C66 6560   3.009   4.330   4.660 -0.0033 -0.6368 -0.0536
   18MOL    C67 6561   2.926   4.445   4.657 -0.0791  0.4961  0.5457
   18MOL    C68 6562   2.901   4.525   4.764  0.0636 -0.0145 -0.1542
   18MOL    C69 6563   2.960   4.496   4.886  0.0145 -0.1914  0.2066
   18MOL    H70 6564   3.506   4.323   5.232  1.1614 -2.2767 -0.4947
   18MOL    H71 6565   3.316   4.449   5.127 -0.1594 -0.0720  0.1077
   18MOL    H72 6566   3.176   4.177   5.068  0.9105  0.4624 -0.7154
   18MOL    H73 6567   3.261   4.263   4.938  0.8412 -0.8509  0.5909
   18MOL    H74 6568   3.114   4.196   4.792  0.2558 -0.3860  0.9861
   18MOL    H75 6569   3.027   4.281   4.565 -0.2463 -0.6751 -0.0793
   18MOL    H76 6570   2.883   4.463   4.559  0.3523 -0.6392  0.1268
   18MOL    H77 6571   2.834   4.610   4.763  1.6715  1.2805 -0.0113
   18MOL    C78 6572   2.934   4.571   5.007  0.2320  0.7851 -0.0280
   18MOL    C79 6573   3.046   4.671   5.051 -0.7712  0.6135  0.1517
   18MOL    O80 6574   2.932   4.713   4.987 -0.5934  0.1755  0.3037
   18MOL    C81 6575   3.177   4.688   4.969  0.2131  0.0889 -0.2263
   18MOL    O82 6576   3.261   4.801   5.007 -0.7724  0.0341  0.0273
   18MOL    C83 6577   3.234   4.923   4.953  0.0945 -0.6290  0.0970
   18MOL    C84 6578   3.125   4.948   4.869  0.1842 -0.2264 -0.3451
   18MOL    C85 6579   3.100   5.072   4.811 -0.3904  0.7036  0.4498
   18MOL    C86 6580   3.182   5.180   4.835 -0.0380  0.4366  0.0393
   18MOL    C87 6581   3.287   5.164   4.926  0.7802 -0.3679  0.5521
   18MOL    C88 6582   3.318   5.031   4.983 -0.2830  0.1060 -0.6194
   18MOL    H89 6583   2.859   4.521   5.068  0.0782 -0.1423 -0.9543
   18MOL    H90 6584   3.052   4.678   5.159 -0.0024 -1.0280  0.2394
   18MOL    H91 6585   3.163   4.685   4.861  0.4176 -4.5380 -0.2358
   18MOL    H92 6586   3.239   4.600   4.984  1.3984  0.5812 -2.0464
   18MOL    H93 6587   3.061   4.868   4.835  2.5230 -2.6087  0.6949
   18MOL    H94 6588   3.029   5.080   4.730 -1.7527 -2.9902  1.1932
   18MOL    H95 6589   3.159   5.277   4.792 -0.4118  0.0946 -0.5462
   18MOL    H96 6590   3.353   5.245   4.955  2.3469 -0.9011 -1.4463
   18MOL    C97 6591   3.424   5.008   5.084  0.0259 -0.2366 -0.3751
   18MOL    C98 6592   3.570   5.007   5.052 -0.6626  0.5601 -0.4235
   18MOL    O99 6593   3.508   5.125   5.108  0.6465 -0.1493  0.4202
   18MOL   C100 6594   3.622   5.021   4.908  0.2996  0.1691  0.1353
   18MOL   O101 6595   3.768   5.023   4.891 -0.6022  0.5249 -0.1496
   18MOL   C102 6596   3.837   5.143   4.909  0.6177  0.7322 -0.1539
   18MOL   C103 6597   3.782   5.245   4.986  0.0571 -0.2045  0.1725
   18MOL   C104 6598   3.851   5.368   5.000 -0.0072 -0.0624  0.1816
   18MOL   C105 6599   3.980   5.384   4.948  0.3624 -0.6846 -0.1728
   18MOL   C106 6600   4.040   5.279   4.877 -0.1542 -0.0167  0.4441
   18MOL   C107 6601   3.967   5.160   4.852 -0.1925  0.3217 -0.7131
   18MOL   H108 6602   3.384   4.967   5.176 -4.0151 -1.6871 -2.6475
   18MOL   H109 6603   3.640   4.946   5.109 -0.9424  1.9524  1.4147
   18MOL   H110 6604   3.575   5.105   4.856 -2.1769 -1.2970 -0.0555
   18MOL   H111 6605   3.586   4.933   4.856 -0.4570  1.2342 -1.1619
   18MOL   H112 6606   3.686   5.236   5.035  0.1038  1.0627  0.5051
   18MOL   H113 6607   3.804   5.446   5.057 -0.5662 -0.4051  0.1930
   18MOL   H114 6608   4.036   5.472   4.979 -0.1187 -0.8671  1.2859
   18MOL   H115 6609   4.142   5.293   4.845 -0.4320 -0.2594 -0.5620
   18MOL   C116 6610   4.035   5.061   4.764 -0.0164  0.6527  0.7026
   18MOL   C117 6611   3.999   5.063   4.616  0.1021 -0.2543 -0.5446
   18MOL   O118 6612   4.121   5.122   4.667  0.3955 -0.6066  0.7797
   18MOL   C119 6613   3.892   5.154   4.559 -0.5646 -0.1319 -0.2911
   18MOL   O120 6614   3.922   5.169   4.420 -0.4165  0.1526 -0.0979
   18MOL   C121 6615   3.818   5.209   4.343  0.2148  0.1186 -0.0321
   18MOL   C122 6616   3.700   5.281   4.394  0.0123  0.5656  0.1665
   18MOL   C123 6617   3.594   5.311   4.314  0.0026 -0.4527  0.4355
   18MOL   C124 6618   3.596   5.279   4.176 -0.4924  0.1529  0.3822
   18MOL   C125 6619   3.715   5.229   4.121 -0.7657 -0.2944 -0.8096
   18MOL   C126 6620   3.820   5.189   4.205 -1.2248 -0.1079 -0.3818
   18MOL   H127 6621   4.075   4.967   4.800  2.8631  0.9770 -1.4500
   18MOL   H128 6622   4.013   4.974   4.555 -2.7735 -1.6337  0.7296
   18MOL   H129 6623   3.889   5.248   4.615 -0.5249 -1.9560  2.9273
   18MOL   H130 6624   3.797   5.102   4.566  0.3748 -2.0642 -1.5351
   18MOL   H131 6625   3.683   5.304   4.498  0.1204  0.1457  0.2769
   18MOL   H132 6626   3.507   5.360   4.354  0.1315 -0.1061  0.2876
   18MOL   H133 6627   3.514   5.306   4.111  0.6899  1.0368 -0.7715
   18MOL   H134 6628   3.718   5.204   4.016 -0.4966  0.7092 -1.0458
   18MOL   C135 6629   3.945   5.126   4.148 -0.2269 -0.4121 -0.1716
   18MOL   C136 6630   3.964   4.982   4.147  0.0277  0.4408  0.1236
   18MOL   O137 6631   3.910   5.050   4.033 -0.5433 -0.4957 -0.3275
   18MOL   C138 6632   3.876   4.877   4.204  0.0932  0.7396  0.4671
   18MOL   O139 6633   3.890   4.757   4.127  0.4813 -0.2448  0.3055
   18MOL   C140 6634   3.780   4.678   4.132 -0.5042 -0.9810  0.0696
   18MOL   C141 6635   3.694   4.688   4.240 -0.3678  0.3814 -0.2520
   18MOL   C142 6636   3.581   4.609   4.253  0.1708  0.2035  0.5390
   18MOL   C143 6637   3.555   4.520   4.147  1.1666 -0.1223  0.3885
   18MOL   C144 6638   3.621   4.524   4.031  0.0411 -0.2966  0.0089
   18MOL   C145 6639   3.745   4.591   4.028  0.5021  0.2967 -0.4025
   18MOL   H146 6640   4.029   5.191   4.124 -1.1060  1.4567  1.6882
   18MOL   H147 6641   4.067   4.954   4.127  0.4183 -0.4478  3.1261
   18MOL   H148 6642   3.772   4.910   4.202 -0.4663 -0.9587 -0.1416
   18MOL   H149 6643   3.894   4.877   4.311 -2.2409  3.4566  0.9218
   18MOL   H150 6644   3.711   4.750   4.327  0.8918 -1.0042  0.5125
   18MOL   H151 6645   3.509   4.625   4.331 -0.5227  1.6166 -0.3636
   18MOL   H152 6646   3.463   4.464   4.143 -0.1944  2.0615  0.3861
   18MOL   H153 6647   3.590   4.460   3.951 -0.4097 -1.0448  0.7774
   18MOL   C154 6648   3.828   4.590   3.900  0.1836  0.3861 -0.2562
   18MOL   C155 6649   3.906   4.474   3.850  0.3840 -0.4314 -0.0218
   18MOL   O156 6650   3.782   4.505   3.793 -0.5601  0.0792 -1.2039
   18MOL   C157 6651   3.916   4.341   3.935 -0.4718 -0.0520  0.9281
   18MOL   O158 6652   3.993   4.246   3.861  0.4972 -0.3029  0.5089
   18MOL   C159 6653   4.057   4.145   3.928 -0.1024 -0.0854  0.3183
   18MOL   C160 6654   4.018   4.094   4.053  0.4539  0.4364  1.0322
   18MOL   C161 6655   4.086   3.981   4.110 -0.1257 -0.1124  0.1999
   18MOL   C162 6656   4.194   3.918   4.047 -0.4842  0.3395 -0.1221
   18MOL   C163 6657   4.236   3.969   3.918 -0.1815  0.3138 -0.2368
   18MOL   C164 6658   4.167   4.081   3.858  0.6060 -0.7729 -0.2249
   18MOL   H165 6659   3.861   4.690   3.870  1.3458 -0.4993 -1.9965
   18MOL   H166 6660   3.994   4.505   3.793 -0.1433  1.2238  0.0462
   18MOL   H167 6661   3.814   4.302   3.933 -0.4647 -0.0598  0.7092
   18MOL   H168 6662   3.937   4.361   4.040  2.5725 -0.6067  0.4605
   18MOL   H169 6663   3.921   4.113   4.096 -0.2699  0.2713 -0.4862
   18MOL   H170 6664   4.049   3.930   4.198  0.2687  0.0619  0.4625
   18MOL   H171 6665   4.251   3.840   4.095  2.3849  1.6994 -1.2694
   18MOL   H172 6666   4.314   3.915   3.867 -3.4317 -1.6534 -3.3744
   18MOL   C173 6667   4.207   4.136   3.725  0.7473  0.5507 -0.1309
   18MOL   C174 6668   4.304   4.247   3.703  0.1168 -0.4200  0.6596
   18MOL   O175 6669   4.344   4.115   3.692 -0.4204 -0.0450  0.1690
   18MOL   C176 6670   4.366   4.327   3.822 -0.1234 -0.2891  0.6495
   18MOL   O177 6671   4.497   4.355   3.781  0.1669  0.3879 -0.2237
   18MOL   C178 6672   4.567   4.434   3.871  0.2951  0.7662 -0.0968
   18MOL   C179 6673   4.533   4.465   4.011 -0.4304 -0.0897  0.0737
   18MOL   C180 6674   4.624   4.538   4.089  0.3873 -0.4112  0.2212
   18MOL   C181 6675   4.725   4.607   4.029  0.4117 -0.3476 -0.1658
   18MOL   C182 6676   4.758   4.584   3.895  0.1836 -0.4898  0.1118
   18MOL   C183 6677   4.679   4.498   3.817  0.3019  0.2151  0.8469
   18MOL   H184 6678   4.129   4.114   3.651 -0.1979  0.1620  0.9587
   18MOL   H185 6679   4.296   4.303   3.610  0.2314 -2.1646 -0.4160
   18MOL   H186 6680   4.380   4.260   3.906  0.1901 -2.1404 -0.8379
   18MOL   H187 6681   4.304   4.415   3.841  2.2005  1.5904 -0.1902
   18MOL   H188 6682   4.442   4.426   4.053 -1.4896  1.5611 -0.6758
   18MOL   H189 6683   4.595   4.578   4.186  1.2375 -1.4632  0.9247
   18MOL   H190 6684   4.787   4.672   4.088 -0.0385  0.3828 -0.4847
   18MOL   H191 6685   4.834   4.639   3.840 -0.9921  1.2707  0.2149
   18MOL   C192 6686   4.729   4.452   3.688  0.1949 -0.5931  0.5195
   18MOL   C193 6687   4.681   4.495   3.551 -0.2047  0.0700  0.1798
   18MOL   O194 6688   4.801   4.552   3.613 -0.0707  0.7992  0.4467
   18MOL   C195 6689   4.559   4.574   3.519  0.2907  0.4139  0.1461
   18MOL   O196 6690   4.486   4.610   3.638 -0.3950  0.6241  0.2307
   18MOL   C197 6691   4.352   4.656   3.639  0.0559  0.0459  0.0632
   18MOL   C198 6692   4.262   4.630   3.534 -0.6406 -0.4107  0.7045
   18MOL   C199 6693   4.125   4.666   3.539 -0.2855 -0.0214 -0.3610
   18MOL   C200 6694   4.076   4.722   3.658 -1.0793 -0.0170 -0.2141
   18MOL   C201 6695   4.162   4.745   3.768 -0.2036 -0.0552 -0.0394
   18MOL   C202 6696   4.303   4.715   3.759 -0.2386  0.5688  0.1095
   18MOL   H203 6697   4.765   4.350   3.702 -0.2695 -0.8472 -0.1050
   18MOL   H204 6698   4.704   4.441   3.460 -1.6829 -1.5789  0.7641
   18MOL   H205 6699   4.497   4.518   3.449  1.1451  0.7387 -0.8784
   18MOL   H206 6700   4.575   4.667   3.466 -1.2054  0.4803 -0.2237
   18MOL   H207 6701   4.291   4.583   3.441 -2.8341  1.1207 -0.8035
   18MOL   H208 6702   4.065   4.647   3.451  1.8133  0.6297 -1.9606
   18MOL   H209 6703   3.974   4.756   3.656 -1.4059 -0.9561  0.4761
   18MOL   H210 6704   4.121   4.789   3.858 -1.5174  1.9753 -1.5789
   18MOL   C211 6705   4.391   4.765   3.873  0.4469 -0.3928  0.2330
   18MOL   C212 6706   4.472   4.895   3.854 -0.4818 -0.2787  0.1812
   18MOL   O213 6707   4.349   4.894   3.920  0.0941  0.0721  0.0996
   18MOL   C214 6708   4.466   4.980   3.723 -0.1040 -0.0482  0.1320
   18MOL   O215 6709   4.584   5.065   3.729  0.2241  0.3039 -0.6279
   18MOL   C216 6710   4.712   5.021   3.716  0.1090 -0.3116 -0.4047
   18MOL   C217 6711   4.756   4.890   3.692  0.3600 -0.1621  0.4878
   18MOL   C218 6712   4.890   4.862   3.684  0.0204 -0.1163 -0.5419
   18MOL   C219 6713   4.991   4.963   3.707 -0.8889 -0.3758  0.4641
   18MOL   C220 6714   4.940   5.088   3.742  0.6852  0.7393 -0.4072
   18MOL   C221 6715   4.805   5.128   3.736  0.5439  0.1043 -0.5966
   18MOL   H222 6716   4.428   4.693   3.947  0.6808  1.0170  1.5174
   18MOL   H223 6717   4.555   4.913   3.921  0.0118  3.2420 -1.2329
   18MOL   H224 6718   4.373   5.035   3.716 -2.1585 -3.5942 -1.5655
   18MOL   H225 6719   4.463   4.918   3.634 -0.0547 -0.4528  0.4087
   18MOL   H226 6720   4.689   4.807   3.673  0.3850 -0.4184  1.5113
   18MOL   H227 6721   4.920   4.760   3.669  1.6116  0.1702  0.5252
   18MOL   H228 6722   5.097   4.944   3.711 -0.4749  1.7491  0.2375
   18MOL   H229 6723   5.013   5.163   3.768  0.3342  1.8076 -2.3634
   18MOL   C230 6724   4.759   5.269   3.754  0.1375  0.2478  0.1626
   18MOL   C231 6725   4.666   5.322   3.866 -0.4027  0.4474  0.1143
   18MOL   O232 6726   4.809   5.322   3.883 -0.4906  0.7660 -0.1604
   18MOL   C233 6727   4.594   5.246   3.973 -0.6935 -0.3208  0.3861
   18MOL   O234 6728   4.581   5.343   4.075  0.1257  1.3587 -0.1070
   18MOL   C235 6729   4.475   5.330   4.161  0.4939  0.1912  0.2817
   18MOL   C236 6730   4.399   5.208   4.167  0.0348  0.0185  0.4760
   18MOL   C237 6731   4.294   5.181   4.255 -0.1115  0.3914 -0.1546
   18MOL   C238 6732   4.258   5.286   4.341 -0.7386 -0.6150  0.1749
   18MOL   C239 6733   4.332   5.406   4.340 -1.1926  0.6915 -0.2620
   18MOL   C240 6734   4.439   5.430   4.255  0.8663  0.5649  0.1188
   18MOL   H241 6735   4.763   5.326   3.661  0.9004 -2.6508 -1.6510
   18MOL   H242 6736   4.630   5.423   3.847  0.1949  1.1210  2.3605
   18MOL   H243 6737   4.653   5.159   4.002  0.1081 -0.4608 -1.5463
   18MOL   H244 6738   4.500   5.217   3.926 -0.5008  0.2447 -0.3581
   18MOL   H245 6739   4.419   5.126   4.099 -1.2490  0.2068 -0.1536
   18MOL   H246 6740   4.231   5.093   4.254  1.3245 -0.6485 -1.5366
   18MOL   H247 6741   4.182   5.286   4.418 -0.7128  1.4954  0.2266
   18MOL   H248 6742   4.308   5.487   4.407 -0.3571  1.3370 -0.7304
   18MOL   C249 6743   4.515   5.560   4.258 -0.1007 -0.0655 -0.8712
   18MOL   C250 6744   4.473   5.672   4.171 -0.2538 -0.0019 -0.7584
   18MOL   O251 6745   4.420   5.664   4.300 -0.2502  0.4912  0.3134
   18MOL   C252 6746   4.383   5.648   4.055  0.5438  0.1141  0.2474
   18MOL   O253 6747   4.311   5.760   4.006  0.1495  0.1904 -0.1297
   18MOL   C254 6748   4.205   5.810   4.080  0.2136  0.2064  0.0735
   18MOL   C255 6749   4.121   5.734   4.165  0.6652 -0.0446  0.1575
   18MOL   C256 6750   4.014   5.791   4.233 -0.0512  0.1501 -0.2407
   18MOL   C257 6751   3.981   5.925   4.210 -0.2894  0.1341  0.0235
   18MOL   C258 6752   4.063   5.999   4.125  0.7834  0.2029 -0.3662
   18MOL   C259 6753   4.173   5.943   4.061  0.0604  0.5205  0.6362
   18MOL   H260 6754   4.605   5.550   4.319 -1.1385 -0.3287  0.6350
   18MOL   H261 6755   4.539   5.758   4.158 -1.7828  1.3570  0.1342
   18MOL   H262 6756   4.316   5.564   4.070  2.3185 -0.9857  2.3294
   18MOL   H263 6757   4.450   5.624   3.972  0.4603  0.4371  0.0854
   18MOL   H264 6758   4.148   5.633   4.191  1.7215  0.6143  1.7187
   18MOL   H265 6759   3.954   5.722   4.291  1.4695 -1.1771 -0.2166
   18MOL   H266 6760   3.893   5.962   4.260  0.6099  0.8274  1.1030
   18MOL   H267 6761   4.025   6.097   4.102 -0.7505 -0.9575 -3.0499
   18MOL   C268 6762   4.247   6.030   3.961  0.1568  0.8139 -0.2794
   18MOL   C269 6763   4.180   6.065   3.827 -0.1279 -0.1136 -0.6522
   18MOL   O270 6764   4.197   6.158   3.937 -0.5903 -0.5050 -0.1010
   18MOL   C271 6765   4.035   6.038   3.798  0.2380  0.3083  0.0843
   18MOL   O272 6766   3.998   6.049   3.658  0.2875 -0.3874 -0.2962
   18MOL   C273 6767   4.015   6.154   3.583 -0.1969  0.5118  0.1790
   18MOL   C274 6768   4.055   6.283   3.623 -0.4007 -0.2930  0.3015
   18MOL   C275 6769   4.057   6.389   3.527  0.1619  0.0192  0.1267
   18MOL   C276 6770   4.036   6.358   3.391  0.0381  0.3092  0.3944
   18MOL   C277 6771   4.017   6.230   3.343 -0.3034 -0.8429 -0.3807
   18MOL   C278 6772   4.002   6.130   3.442  0.1419  0.1054 -0.2661
   18MOL   H279 6773   4.354   6.015   3.969 -0.1217 -0.5463  1.2803
   18MOL   H280 6774   4.248   6.076   3.742  0.5414 -1.6031 -0.3352
   18MOL   H281 6775   3.987   6.112   3.861 -3.2358 -3.1017  1.6114
   18MOL   H282 6776   4.005   5.942   3.839 -2.4440  0.7304 -0.8088
   18MOL   H283 6777   4.089   6.303   3.724 -3.3592 -1.3105  1.5330
   18MOL   H284 6778   4.081   6.490   3.557  0.6876  0.0868 -0.5114
   18MOL   H285 6779   4.046   6.447   3.331  1.5734  0.6001  1.0481
   18MOL   H286 6780   4.006   6.210   3.237  0.2038  0.2716 -0.6489
   18MOL   C287 6781   3.988   5.987   3.393  0.1267 -0.1949 -0.1409
   18MOL   C288 6782   3.874   5.890   3.419 -0.0855 -0.2680 -0.2935
   18MOL   O289 6783   3.879   5.974   3.300 -0.0100  0.9951  0.1254
   18MOL   C290 6784   3.753   5.915   3.504 -0.3402 -0.6061  0.0704
   18MOL   O291 6785   3.669   5.805   3.534  0.5140  0.2480  0.3433
   18MOL   C292 6786   3.707   5.713   3.628 -0.3791  0.7970 -1.1253
   18MOL   C293 6787   3.830   5.713   3.699  0.8172  0.2045  0.2270
   18MOL   C294 6788   3.855   5.625   3.806 -0.2870  0.2254  1.0171
   18MOL   C295 6789   3.749   5.539   3.846 -0.1204  0.6664 -0.2065
   18MOL   C296 6790   3.630   5.532   3.777 -0.6453  0.3920 -0.7151
   18MOL   C297 6791   3.610   5.619   3.666 -0.1124  0.6831  0.4872
   18MOL   H298 6792   4.082   5.948   3.353 -0.4591  0.5399 -2.2502
   18MOL   H299 6793   3.888   5.786   3.389 -0.0180 -0.2673 -0.2638
   18MOL   H300 6794   3.691   5.986   3.450  0.0343 -0.8903 -0.7494
   18MOL   H301 6795   3.781   5.972   3.593  1.5679 -2.6505  0.8511
   18MOL   H302 6796   3.909   5.784   3.678  0.2667  0.3903 -1.2569
   18MOL   H303 6797   3.952   5.626   3.855 -0.1490  0.3673  0.7447
   18MOL   H304 6798   3.768   5.464   3.923 -0.0970 -0.9125 -1.7172
   18MOL   H305 6799   3.548   5.465   3.800  1.1118 -1.2979  0.7852
   18MOL   C306 6800   3.479   5.613   3.597 -0.1867 -0.2666  0.5802
   18MOL   C307 6801   3.463   5.565   3.456  0.2354  0.9200  0.1901
   18MOL   O308 6802   3.461   5.470   3.557  0.0428  0.6809 -0.1194
   18MOL   C309 6803   3.583   5.549   3.362  0.2502 -0.1859  0.4924
   18MOL   O310 6804   3.599   5.435   3.286  0.1193  0.6036  0.6596
   18MOL   C311 6805   3.517   5.401   3.178 -0.3734  0.1425  0.8721
   18MOL   C312 6806   3.428   5.492   3.115  1.0233 -0.3384 -0.3425
   18MOL   C313 6807   3.366   5.456   2.994  0.3152  0.3882  0.6741
   18MOL   C314 6808   3.378   5.322   2.949  0.4242  0.2547  0.4123
   18MOL   C315 6809   3.453   5.233   3.026 -0.1212 -0.0133  0.1324
   18MOL   C316 6810   3.526   5.269   3.139  0.5075 -0.2867 -0.7978
   18MOL   H317 6811   3.398   5.664   3.648 -0.2905 -1.6123  1.7789
   18MOL   H318 6812   3.368   5.579   3.405 -0.1843 -0.5656  0.5294
   18MOL   H319 6813   3.675   5.557   3.420  0.8193  0.8561 -0.5360
   18MOL   H320 6814   3.586   5.636   3.296 -0.5218 -0.3996  0.1705
   18MOL   H321 6815   3.420   5.595   3.146 -0.2459 -0.7398  0.6984
   18MOL   H322 6816   3.306   5.528   2.941 -1.3167 -0.5151  1.2492
   18MOL   H323 6817   3.323   5.286   2.863 -1.7948 -0.4775  2.1052
   18MOL   H324 6818   3.460   5.129   2.996  1.1959 -0.2833  1.2979
   18MOL   C325 6819   3.618   5.164   3.200  0.1441  0.3731 -0.4545
   18MOL   C326 6820   3.606   5.103   3.338 -0.6343 -0.2697  0.0734
   18MOL   O327 6821   3.546   5.036   3.224  0.3982 -0.3213  0.3121
   18MOL   C328 6822   3.515   5.160   3.444  0.1712  0.5027 -0.5981
   18MOL   O329 6823   3.435   5.058   3.509  0.1070  0.0632  0.2058
   18MOL   C330 6824   3.468   5.035   3.642  0.1899 -0.1504  0.3360
   18MOL   C331 6825   3.576   4.946   3.674  0.2009 -0.0228  0.0686
   18MOL   C332 6826   3.614   4.931   3.808 -0.0401  0.1017  0.2906
   18MOL   C333 6827   3.529   4.968   3.910 -0.2131 -0.1022  0.8727
   18MOL   C334 6828   3.421   5.053   3.878  0.1123 -0.5427  0.2603
   18MOL   C335 6829   3.389   5.088   3.742 -0.6727 -0.2911 -0.5549
   18MOL   H336 6830   3.703   5.142   3.136  0.3867  1.8461 -0.6475
   18MOL   H337 6831   3.699   5.062   3.377 -0.4168  0.9786  0.8877
   18MOL   H338 6832   3.437   5.226   3.407 -0.7680 -0.2095  0.0772
   18MOL   H339 6833   3.564   5.231   3.511 -2.2760  1.5895  0.0897
   18MOL   H340 6834   3.648   4.904   3.606  0.5749 -0.9384  1.0203
   18MOL   H341 6835   3.697   4.863   3.821 -0.3186 -0.4168 -0.5643
   18MOL   H342 6836   3.547   4.941   4.013  1.6533  0.3106  0.6674
   18MOL   H343 6837   3.364   5.101   3.956  0.5751 -1.2409  1.0479
   18MOL   C344 6838   3.274   5.173   3.703  0.2170  0.7721 -0.0143
   18MOL   C345 6839   3.137   5.120   3.678  0.6629 -0.7866 -0.0006
   18MOL   O346 6840   3.177   5.176   3.806 -0.4218  0.2772  0.2354
   18MOL   C347 6841   3.105   4.977   3.687  0.5824 -0.5434 -0.5225
   18MOL   O348 6842   2.975   4.947   3.628  0.5755 -0.1438 -0.1983
   18MOL   C349 6843   2.967   4.958   3.489 -0.5710 -0.1458  0.5526
   18MOL   C350 6844   3.078   4.935   3.400  0.1119 -0.3169  0.3892
   18MOL   C351 6845   3.060   4.935   3.264  0.6949 -0.6559  0.1094
   18MOL   C352 6846   2.928   4.952   3.210  0.5899 -0.1992 -0.3694
   18MOL   C353 6847   2.820   4.965   3.300 -0.4311  0.4994 -0.1737
   18MOL   C354 6848   2.838   4.965   3.434  0.5502  0.8955  0.0215
   18MOL   H355 6849   3.303   5.275   3.676  0.6406  0.2228 -1.6588
   18MOL   H356 6850   3.072   5.184   3.619  0.3667  0.2837  1.4614
   18MOL   H357 6851   3.106   4.927   3.784  0.9707 -0.2270 -0.3620
   18MOL   H358 6852   3.191   4.930   3.639 -0.1437 -3.8309  1.2345
   18MOL   H359 6853   3.178   4.921   3.438 -0.2552 -0.0056  1.4957
   18MOL   H360 6854   3.144   4.921   3.197 -0.7936  0.5003 -2.0470
   18MOL   H361 6855   2.905   4.960   3.105 -2.2754  0.0691  0.2427
   18MOL   H362 6856   2.718   4.979   3.267 -1.4742 -0.1386  2.6924
   18MOL   C363 6857   2.714   4.964   3.517  0.6221  0.7687 -0.2974
   18MOL   C364 6858   2.661   5.061   3.625  0.1782  1.0498 -0.5054
   18MOL   O365 6859   2.622   5.071   3.495 -0.1133 -0.8040 -0.3792
   18MOL   C366 6860   2.730   5.190   3.677  0.1938  0.5221  0.1568
   18MOL   O367 6861   2.698   5.229   3.807  0.2570 -0.5464  0.0407
   18MOL   C368 6862   2.742   5.146   3.905 -0.2589  0.5793  0.1869
   18MOL   C369 6863   2.649   5.073   3.979  0.8835 -0.6540 -0.4608
   18MOL   C370 6864   2.688   4.995   4.085  0.6056  0.0592  0.2403
   18MOL   C371 6865   2.817   4.990   4.130  0.4336 -0.9719  0.0917
   18MOL   C372 6866   2.909   5.070   4.060  0.1499 -0.0084  0.5823
   18MOL   C373 6867   2.877   5.137   3.942 -0.7320 -0.1932 -0.4803
   18MOL   H374 6868   2.667   4.866   3.507  0.1636  1.0665 -1.0735
   18MOL   H375 6869   2.601   5.009   3.700 -0.1061  1.2919 -0.5660
   18MOL   H376 6870   2.720   5.269   3.603  0.6183 -0.8850 -1.4681
   18MOL   H377 6871   2.836   5.167   3.664  0.0640  0.0511 -0.1122
   18MOL   H378 6872   2.545   5.072   3.952  0.7768  3.8423 -0.5697
   18MOL   H379 6873   2.609   4.940   4.135 -0.7394 -0.4488 -2.3785
   18MOL   H380 6874   2.856   4.927   4.208 -0.3279 -0.8510  0.5844
   18MOL   H381 6875   3.012   5.085   4.088 -0.0328  3.5481 -0.4303
   18MOL   H382 6876   2.949   5.188   3.879 -1.0262  0.1338 -0.5556
   19MOL     C1 6877   2.316   2.063   7.701 -0.4169 -0.3666  0.2969
   19MOL     C2 6878   2.379   2.191   7.754  0.1803  0.7961  0.5121
   19MOL     O3 6879   2.361   2.160   7.612  0.3156 -0.4928  0.0916
   19MOL     C4 6880   2.526   2.190   7.800 -0.2421 -0.1061 -0.3432
   19MOL     O5 6881   2.574   2.068   7.852 -0.2863 -0.1344  0.2855
   19MOL     C6 6882   2.536   2.033   7.976 -0.0328 -0.1141 -0.0461
   19MOL     C7 6883   2.446   2.116   8.050 -0.3604  0.5219 -0.7216
   19MOL     C8 6884   2.391   2.077   0.004 -0.1000  0.0076  0.2854
   19MOL     C9 6885   2.439   1.948   0.056 -0.4476 -1.0324 -0.3061
   19MOL    C10 6886   2.544   1.880   8.160 -0.2817  0.1321 -0.0369
   19MOL    C11 6887   2.597   1.921   8.040  0.4141  0.0778  0.2821
   19MOL    H12 6888   2.209   2.053   7.681 -0.1241 -0.2216 -1.4911
   19MOL    H13 6889   2.323   2.281   7.780 -3.3871 -1.2533  0.3335
   19MOL    H14 6890   2.550   2.275   7.863  1.7177 -1.4829  0.8103
   19MOL    H15 6891   2.585   2.204   7.709 -2.7266  3.8334 -1.5054
   19MOL    H16 6892   2.399   2.201   8.004 -2.3861  0.1707  0.6514
   19MOL    H17 6893   2.315   2.127   0.061  1.8216  1.2660  1.8069
   19MOL    H18 6894   2.393   1.908   0.145 -0.1230  1.4079  0.9732
   19MOL    H19 6895   2.582   1.787   0.030  2.3806  1.7077  1.2382
   19MOL    H20 6896   2.376   1.974   7.714  0.6542  0.5198  1.4808
   19MOL    C21 6897   2.702   1.834   7.972  0.8851  0.4307 -0.1221
   19MOL    C22 6898   2.845   1.866   7.953  0.6322 -0.2440  0.2573
   19MOL    O23 6899   2.801   1.785   8.068 -0.2063  0.8873 -0.1603
   19MOL    C24 6900   2.926   1.990   7.997  0.1135  1.0319  0.5825
   19MOL    O25 6901   2.856   2.108   8.044  0.2100 -0.5681  0.1284
   19MOL    C26 6902   2.936   2.200   8.114 -0.0146 -0.0016  0.1420
   19MOL    C27 6903   3.067   2.238   8.063  0.3550  0.0369 -1.5379
   19MOL    C28 6904   3.146   2.330   8.141  0.0295 -0.0676  0.4391
   19MOL    C29 6905   3.095   2.394   0.085  0.1932 -0.1359  0.9118
   19MOL    C30 6906   2.968   2.352   0.137  0.1472 -0.6400  0.0841
   19MOL    C31 6907   2.894   2.248   0.069 -0.2528 -0.4576 -0.2992
   19MOL    H32 6908   2.656   1.765   7.902  1.4692  0.0340 -0.1170
   19MOL    H33 6909   2.897   1.804   7.880 -0.1963  1.0758 -1.4819
   19MOL    H34 6910   2.991   2.012   7.913 -1.2139  3.1970  0.0648
   19MOL    H35 6911   2.990   1.956   8.078  0.5176  0.3489 -0.0253
   19MOL    H36 6912   3.104   2.187   7.976  0.6820 -2.2035 -0.1327
   19MOL    H37 6913   3.241   2.373   8.114 -0.5588  1.0719  0.1674
   19MOL    H38 6914   3.153   2.470   0.135  0.5524  0.1397  0.0730
   19MOL    H39 6915   2.925   2.398   0.224  0.4909  0.5381 -0.3595
   19MOL    C40 6916   2.769   2.194   0.120  0.3269 -0.7508 -0.2803
   19MOL    C41 6917   2.762   2.072   0.209  0.6363  0.6345 -0.5147
   19MOL    O42 6918   2.761   2.203   0.262 -0.2454 -0.5183  0.0325
   19MOL    C43 6919   2.882   1.987   0.248 -0.5840  0.1846 -0.0336
   19MOL    O44 6920   2.829   1.871   0.324 -0.0287 -0.4834 -0.1425
   19MOL    C45 6921   2.835   1.860   0.456 -0.4631 -0.4213  0.6746
   19MOL    C46 6922   2.953   1.907   0.524  0.3789  0.0211 -0.6080
   19MOL    C47 6923   2.967   1.863   0.660 -0.4098  0.5744  0.1136
   19MOL    C48 6924   2.865   1.790   0.729  0.4724  0.7343 -0.4924
   19MOL    C49 6925   2.747   1.757   0.656  0.2418  0.4901 -0.6744
   19MOL    C50 6926   2.739   1.782   0.523  0.0786  0.4621 -0.0694
   19MOL    H51 6927   2.680   2.225   0.067  1.0037  2.7236  0.4717
   19MOL    H52 6928   2.665   2.022   0.215  0.6980  0.4245 -1.1644
   19MOL    H53 6929   2.968   2.040   0.288  0.3908 -0.2219 -1.5497
   19MOL    H54 6930   2.922   1.939   0.159 -0.3592 -1.5848  1.0069
   19MOL    H55 6931   3.030   1.958   0.469 -0.3138 -0.7811 -2.3621
   19MOL    H56 6932   3.057   1.893   0.711  0.0858  1.1953 -1.1184
   19MOL    H57 6933   2.865   1.775   0.836 -0.4209 -1.0694 -0.7258
   19MOL    H58 6934   2.669   1.703   0.707 -0.6033  1.2257 -1.1668
   19MOL    C59 6935   2.619   1.735   0.439 -0.7242 -0.1086  0.0074
   19MOL    C60 6936   2.632   1.617   0.337 -0.4145  0.7852 -0.1068
   19MOL    O61 6937   2.579   1.597   0.471 -0.8030  0.6011 -0.3270
   19MOL    C62 6938   2.761   1.546   0.312  0.3109  0.3679 -0.7646
   19MOL    O63 6939   2.725   1.418   0.257 -0.5263 -0.0365 -0.9784
   19MOL    C64 6940   2.824   1.326   0.270  0.0170  0.3499  0.0107
   19MOL    C65 6941   2.958   1.352   0.223  0.1227  0.3487 -0.0607
   19MOL    C66 6942   3.049   1.247   0.222 -0.4795 -0.0135 -0.4886
   19MOL    C67 6943   3.017   1.121   0.276 -0.4090  0.3876  0.3447
   19MOL    C68 6944   2.889   1.098   0.331 -0.2522  0.4048 -0.7625
   19MOL    C69 6945   2.793   1.203   0.326 -0.1656  0.2096  0.0684
   19MOL    H70 6946   2.539   1.808   0.448 -0.7990  0.1196 -2.3014
   19MOL    H71 6947   2.568   1.616   0.249  1.3423  1.5017 -1.4178
   19MOL    H72 6948   2.812   1.535   0.408  0.5127  0.2659 -0.8846
   19MOL    H73 6949   2.826   1.595   0.241  0.2008 -0.9029 -1.7666
   19MOL    H74 6950   2.987   1.449   0.185  2.3228 -1.1904 -2.5244
   19MOL    H75 6951   3.154   1.264   0.200 -0.3419 -0.1650  0.0576
   19MOL    H76 6952   3.092   1.043   0.274 -0.7909  0.0267 -2.1639
   19MOL    H77 6953   2.865   1.000   0.371 -1.9572  0.7469 -0.9400
   19MOL    C78 6954   2.660   1.184   0.388 -0.2106 -0.0133  0.1659
   19MOL    C79 6955   2.530   1.136   0.315  0.2985  0.0572 -0.0890
   19MOL    O80 6956   2.618   1.045   0.379  0.2488  0.2607  0.0754
   19MOL    C81 6957   2.500   1.123   0.171 -0.8220  0.2593 -0.1797
   19MOL    O82 6958   2.532   1.232   0.096  0.1768  0.2230  0.2287
   19MOL    C83 6959   2.484   1.228   8.136 -0.0592  0.4134 -0.1572
   19MOL    C84 6960   2.433   1.113   8.069  0.3460  0.7042 -0.2527
   19MOL    C85 6961   2.379   1.112   7.939 -0.0975  0.5393  0.1171
   19MOL    C86 6962   2.382   1.234   7.872 -0.2693  0.0134 -0.5547
   19MOL    C87 6963   2.436   1.351   7.932 -0.5658 -0.3418  0.4764
   19MOL    C88 6964   2.489   1.348   8.064 -0.0575  0.1456 -0.4901
   19MOL    H89 6965   2.644   1.228   0.486  2.4793 -1.4636  1.3087
   19MOL    H90 6966   2.442   1.147   0.378  1.1994 -1.0219  1.3830
   19MOL    H91 6967   2.395   1.098   0.157 -0.5255 -0.6286 -0.8925
   19MOL    H92 6968   2.553   1.039   0.127 -0.7046  1.1703 -1.8312
   19MOL    H93 6969   2.426   1.018   8.120 -1.5526 -0.1560 -2.0385
   19MOL    H94 6970   2.341   1.018   7.903 -0.9547 -0.4381  3.5105
   19MOL    H95 6971   2.349   1.257   7.772 -0.4273  0.1917 -0.4617
   19MOL    H96 6972   2.428   1.440   7.872  1.1950 -1.5772 -1.7048
   19MOL    C97 6973   2.552   1.466   8.131 -0.0259 -0.2160  0.4790
   19MOL    C98 6974   2.695   1.517   8.110 -0.5631  0.3079  0.4052
   19MOL    O99 6975   2.579   1.569   8.036 -0.4519  0.2983 -0.2837
   19MOL   C100 6976   2.813   1.460   8.027  0.6536 -0.2069 -0.0019
   19MOL   O101 6977   2.815   1.313   8.027 -0.4361 -0.4294 -0.0700
   19MOL   C102 6978   2.923   1.246   7.978 -0.4868  0.0462 -0.9096
   19MOL   C103 6979   3.027   1.298   7.895 -0.0287 -0.4347 -0.5286
   19MOL   C104 6980   3.128   1.212   7.846  0.8638  0.1861 -0.4346
   19MOL   C105 6981   3.128   1.076   7.882  0.3692 -0.0444 -1.3149
   19MOL   C106 6982   3.031   1.023   7.967  0.0031  0.1737  0.3635
   19MOL   C107 6983   2.934   1.109   8.019  0.2601 -0.0821  0.1738
   19MOL   H108 6984   2.490   1.503   0.043  1.7811  1.4638  1.1274
   19MOL   H109 6985   2.731   1.575   0.025  0.0282 -1.2638  1.2282
   19MOL   H110 6986   2.913   1.484   8.062  0.7283 -0.4128 -0.0749
   19MOL   H111 6987   2.801   1.499   7.926 -0.1614  2.4731  1.0756
   19MOL   H112 6988   3.022   1.403   7.871  0.5807 -0.6770 -1.7357
   19MOL   H113 6989   3.197   1.253   7.773 -0.4371  2.8727 -0.2050
   19MOL   H114 6990   3.197   1.003   7.843 -0.7343 -1.0913 -1.3236
   19MOL   H115 6991   3.045   0.925   8.009  0.6024  0.6236  1.2230
   19MOL   C116 6992   2.846   1.054   8.115  0.2110  0.3493  0.1682
   19MOL   C117 6993   2.739   0.962   8.072 -0.4431  0.1064 -0.1887
   19MOL   O118 6994   2.858   0.915   8.131 -0.7933 -0.1170 -0.0359
   19MOL   C119 6995   2.719   0.914   7.929  0.0029  0.2809  0.2460
   19MOL   O120 6996   2.614   0.814   7.917  0.2280  0.0848  0.8961
   19MOL   C121 6997   2.640   0.681   7.930  0.7152  0.5217 -0.3502
   19MOL   C122 6998   2.762   0.637   7.987 -0.6237 -0.3725  0.3206
   19MOL   C123 6999   2.786   0.499   7.993  0.2236 -0.2625  0.0354
   19MOL   C124 7000   2.687   0.409   7.954 -0.2544  0.0607  0.0090
   19MOL   C125 7001   2.566   0.452   7.893 -0.2786  0.0056  1.0551
   19MOL   C126 7002   2.540   0.590   7.885  0.6879 -0.1963 -0.5227
   19MOL   H127 7003   2.828   1.113   0.035  0.2682  2.5768 -1.2338
   19MOL   H128 7004   2.649   0.932   8.126  0.0295  0.1025  0.6020
   19MOL   H129 7005   2.815   0.901   7.878  0.4610  0.8918  0.9251
   19MOL   H130 7006   2.691   1.009   7.883  0.7559 -0.0842 -0.9985
   19MOL   H131 7007   2.839   0.702   8.025 -0.0963  0.8395 -2.6823
   19MOL   H132 7008   2.880   0.464   8.032  2.0806  0.7583 -3.3307
   19MOL   H133 7009   2.702   0.304   7.973  2.5039  0.6046  1.0870
   19MOL   H134 7010   2.484   0.389   7.860  0.9632 -1.6453  1.0716
   19MOL   C135 7011   2.406   0.640   7.830 -0.0903  0.0397 -0.4469
   19MOL   C136 7012   2.396   0.744   7.729 -0.1155 -1.2240 -0.0243
   19MOL   O137 7013   2.381   0.605   7.697  0.1568 -0.1113 -0.6873
   19MOL   C138 7014   2.510   0.800   7.641  0.3996 -0.3759 -0.1200
   19MOL   O139 7015   2.543   0.932   7.667  0.4522 -0.0530 -0.4976
   19MOL   C140 7016   2.494   1.032   7.585 -1.5043 -0.3185  0.0747
   19MOL   C141 7017   2.386   1.014   7.502  1.0566 -0.1317  0.0881
   19MOL   C142 7018   2.335   1.116   7.424 -0.7436  0.1859  0.8067
   19MOL   C143 7019   2.399   1.241   7.422  0.0963  0.2473 -0.2615
   19MOL   C144 7020   2.520   1.260   7.487  0.0800 -0.4948  0.8336
   19MOL   C145 7021   2.561   1.160   7.578 -0.0083 -0.0820  0.0887
   19MOL   H146 7022   2.323   0.618   7.897 -0.8610 -0.5364 -1.5786
   19MOL   H147 7023   2.301   0.792   7.708  0.6068 -0.0576 -0.6976
   19MOL   H148 7024   2.489   0.792   7.534  1.7634  1.5062 -0.5497
   19MOL   H149 7025   2.602   0.745   7.661  0.9431  0.4878 -0.2338
   19MOL   H150 7026   2.338   0.920   7.483  1.0687 -0.6121  2.2729
   19MOL   H151 7027   2.248   1.095   7.365 -0.8765 -2.3354  1.8452
   19MOL   H152 7028   2.376   1.313   7.345 -0.8709 -2.1221 -2.2583
   19MOL   H153 7029   2.575   1.349   7.461 -0.7020 -0.7326 -1.7928
   19MOL   C154 7030   2.688   1.180   7.659  1.0432  0.2055 -0.6074
   19MOL   C155 7031   2.816   1.096   7.635 -0.7770  0.0823  0.5567
   19MOL   O156 7032   2.799   1.230   7.579  0.0096 -0.4714 -0.3998
   19MOL   C157 7033   2.824   0.982   7.532 -0.5602  0.2837 -0.7575
   19MOL   O158 7034   2.955   0.973   7.470  0.9368  0.0382 -0.4865
   19MOL   C159 7035   2.966   0.877   7.366 -0.1459 -0.0955  0.1338
   19MOL   C160 7036   2.867   0.793   7.311  0.3925 -0.4944  0.2300
   19MOL   C161 7037   2.895   0.714   7.199 -0.6253 -1.0413  0.1217
   19MOL   C162 7038   3.023   0.719   7.141  0.1722  0.2331  0.2530
   19MOL   C163 7039   3.128   0.786   7.205 -0.3616  0.2999 -0.5026
   19MOL   C164 7040   3.099   0.867   7.313 -0.3553  0.1920 -0.8957
   19MOL   H165 7041   2.676   1.215   7.761  2.6153  1.0464 -0.7062
   19MOL   H166 7042   2.883   1.084   7.720  2.1933 -1.5550 -1.9234
   19MOL   H167 7043   2.748   0.999   7.456 -1.5370  1.6449  0.5093
   19MOL   H168 7044   2.804   0.880   7.567  0.2186  0.8776  1.5488
   19MOL   H169 7045   2.768   0.787   7.353  0.7520  0.2439  1.1844
   19MOL   H170 7046   2.819   0.655   7.150 -1.3658  2.1022 -2.7237
   19MOL   H171 7047   3.037   0.655   7.055  2.6615 -0.5083  1.1832
   19MOL   H172 7048   3.229   0.778   7.167 -0.0648  2.3750 -0.2387
   19MOL   C173 7049   3.204   0.949   7.373 -0.0421 -0.5868  0.4380
   19MOL   C174 7050   3.335   0.909   7.428 -1.0136  0.5336  0.2861
   19MOL   O175 7051   3.319   0.944   7.288 -0.2970  0.1841  0.2648
   19MOL   C176 7052   3.398   0.772   7.444 -0.3479 -0.3950 -0.4315
   19MOL   O177 7053   3.325   0.658   7.407  0.9139 -0.6838  0.1590
   19MOL   C178 7054   3.376   0.536   7.437 -0.1060 -0.0684 -0.3643
   19MOL   C179 7055   3.511   0.519   7.488  0.4433  0.8559 -0.1588
   19MOL   C180 7056   3.554   0.385   7.521  0.4790  0.3396 -0.5862
   19MOL   C181 7057   3.465   0.280   7.512  0.4627 -0.4898  0.2742
   19MOL   C182 7058   3.343   0.295   7.444 -1.0414  0.2632 -0.2010
   19MOL   C183 7059   3.293   0.424   7.414  0.4407  0.5257 -0.5258
   19MOL   H184 7060   3.178   1.046   7.415  1.2375 -0.0721  0.0532
   19MOL   H185 7061   3.393   0.988   7.476 -1.1735  0.9351 -0.1740
   19MOL   H186 7062   3.410   0.768   7.553 -0.9261  2.2119 -0.2448
   19MOL   H187 7063   3.499   0.772   7.401 -1.2903 -3.5953 -2.7754
   19MOL   H188 7064   3.589   0.592   7.506  1.7738 -0.7128  0.6279
   19MOL   H189 7065   3.650   0.372   7.568  0.2318 -2.8861 -0.9190
   19MOL   H190 7066   3.491   0.183   7.553  1.1088 -0.4587 -0.0542
   19MOL   H191 7067   3.271   0.215   7.440  0.3014 -0.9002 -1.5011
   19MOL   C192 7068   3.156   0.437   7.362  0.0565  0.0534 -0.8826
   19MOL   C193 7069   3.102   0.365   7.237 -0.3034 -0.4422 -0.2544
   19MOL   O194 7070   3.080   0.309   7.367  0.7719 -0.4066 -0.0755
   19MOL   C195 7071   3.181   0.275   7.133 -0.2776 -1.1631  0.0697
   19MOL   O196 7072   3.298   0.342   7.087  0.6215  0.0652  0.1068
   19MOL   C197 7073   3.286   0.446   7.000  0.3915 -0.2864  0.2832
   19MOL   C198 7074   3.201   0.437   6.896  0.8102 -0.5776  0.9417
   19MOL   C199 7075   3.196   0.534   6.796 -0.2098 -0.0630 -0.4496
   19MOL   C200 7076   3.276   0.649   6.812  0.0182 -1.4505 -0.2302
   19MOL   C201 7077   3.363   0.665   6.921 -0.2972 -0.5591  0.2643
   19MOL   C202 7078   3.368   0.560   7.014  0.5606  0.5271 -0.4960
   19MOL   H203 7079   3.100   0.521   7.402  0.5143 -0.1368  0.1876
   19MOL   H204 7080   3.014   0.409   7.190 -1.4734 -1.1285  1.2789
   19MOL   H205 7081   3.123   0.226   7.054  0.2028 -0.3687 -0.7825
   19MOL   H206 7082   3.218   0.184   7.180 -0.4981  0.8307  4.4106
   19MOL   H207 7083   3.137   0.351   6.887 -0.1205  0.2671 -0.7166
   19MOL   H208 7084   3.131   0.514   6.712 -0.8298  1.6601 -0.3866
   19MOL   H209 7085   3.276   0.726   6.737 -0.5162 -0.7255  0.5090
   19MOL   H210 7086   3.420   0.756   6.930 -0.1059 -0.6913  0.3965
   19MOL   C211 7087   3.476   0.561   7.121  0.0383  0.4222 -0.1816
   19MOL   C212 7088   3.586   0.457   7.141  0.1126 -0.5414  0.6386
   19MOL   O213 7089   3.608   0.588   7.072  0.2658 -0.4753  0.1880
   19MOL   C214 7090   3.597   0.337   7.051  0.0681 -0.5189  0.1486
   19MOL   O215 7091   3.732   0.305   7.015  0.6067  0.0075 -0.2938
   19MOL   C216 7092   3.812   0.262   7.114 -0.6162  0.3723 -0.1914
   19MOL   C217 7093   3.767   0.207   7.234  0.3635  0.5084 -0.0989
   19MOL   C218 7094   3.858   0.169   7.339 -0.2365 -0.0590 -0.6371
   19MOL   C219 7095   3.995   0.166   7.309 -0.2675  0.0396  0.1018
   19MOL   C220 7096   4.048   0.215   7.189 -0.4871 -0.8071  0.1871
   19MOL   C221 7097   3.957   0.260   7.090 -0.3601  0.1780  0.3365
   19MOL   H222 7098   3.444   0.628   7.200 -2.1214  0.9648 -1.4863
   19MOL   H223 7099   3.625   0.452   7.243  0.5264 -0.0267  0.5116
   19MOL   H224 7100   3.548   0.351   6.954  0.3576  1.7606  0.2950
   19MOL   H225 7101   3.556   0.241   7.083  0.5308 -0.5526  0.6385
   19MOL   H226 7102   3.663   0.198   7.262  0.0103  0.0625 -1.5089
   19MOL   H227 7103   3.821   0.129   7.433 -0.2211 -0.4827 -0.8091
   19MOL   H228 7104   4.057   0.118   7.383 -0.6207 -0.2138  0.2307
   19MOL   H229 7105   4.155   0.214   7.171 -0.5631 -0.9259 -0.2846
   19MOL   C230 7106   4.007   0.305   6.955  0.6259  0.0262  0.0667
   19MOL   C231 7107   3.978   0.436   6.886 -0.0842 -0.4443 -0.4345
   19MOL   O232 7108   4.093   0.415   6.965 -0.1973 -0.2124  0.2203
   19MOL   C233 7109   3.890   0.550   6.933 -0.1310 -0.4244 -0.7339
   19MOL   O234 7110   3.938   0.675   6.876  0.1171  0.0378 -0.2073
   19MOL   C235 7111   4.029   0.748   6.940 -0.4353  0.1023 -0.4589
   19MOL   C236 7112   4.092   0.717   7.064 -0.9809 -0.4155 -0.8210
   19MOL   C237 7113   4.191   0.804   7.117 -1.1130  0.6973 -0.0849
   19MOL   C238 7114   4.241   0.911   7.038 -0.0174 -0.8702 -0.0571
   19MOL   C239 7115   4.180   0.944   6.919 -0.7631  0.1565 -0.0235
   19MOL   C240 7116   4.076   0.862   6.873  0.1149  0.5141  0.6918
   19MOL   H241 7117   4.039   0.219   6.898  2.5654  0.7345  0.0397
   19MOL   H242 7118   4.013   0.433   6.783 -1.5339 -1.0503 -0.9259
   19MOL   H243 7119   3.869   0.559   7.039  2.5313  0.6915 -0.2518
   19MOL   H244 7120   3.791   0.524   6.895 -1.3119  0.3177  1.7652
   19MOL   H245 7121   4.068   0.635   7.129  1.8590 -1.5032 -1.0842
   19MOL   H246 7122   4.232   0.773   7.212  1.2266  0.2626 -1.1800
   19MOL   H247 7123   4.339   0.944   7.070 -0.8053  0.2579  1.2397
   19MOL   H248 7124   4.214   1.029   6.861  1.3691 -0.6179  0.0544
   19MOL   C249 7125   4.024   0.892   6.733  0.0887 -0.1807  0.0634
   19MOL   C250 7126   3.881   0.929   6.705  0.5718 -0.6089 -0.1669
   19MOL   O251 7127   3.988   1.030   6.720  0.5263 -0.0398 -0.5692
   19MOL   C252 7128   3.770   0.937   6.806  0.1761  0.0806  0.0642
   19MOL   O253 7129   3.667   1.023   6.762 -0.6536  0.8436 -0.0327
   19MOL   C254 7130   3.585   1.084   6.848  0.1712 -0.3477 -0.4123
   19MOL   C255 7131   3.601   1.104   6.994  0.5603  0.1985  0.4498
   19MOL   C256 7132   3.505   1.164   7.063  0.6088  0.4919 -0.0795
   19MOL   C257 7133   3.386   1.217   7.007  0.9093 -0.7523  0.4246
   19MOL   C258 7134   3.381   1.221   6.866  0.3878  0.5018  0.0341
   19MOL   C259 7135   3.480   1.154   6.787 -0.1274  0.4804  0.0739
   19MOL   H260 7136   4.094   0.863   6.656 -2.7782 -1.1145 -2.2798
   19MOL   H261 7137   3.851   0.907   6.603 -0.8778  1.9149 -0.3282
   19MOL   H262 7138   3.812   0.976   6.899  1.2468  2.6001 -1.4292
   19MOL   H263 7139   3.710   0.850   6.833  2.1485 -1.1380  0.6558
   19MOL   H264 7140   3.690   1.067   7.043  1.5501 -0.5838 -1.8737
   19MOL   H265 7141   3.495   1.162   7.171  0.1897  0.6630 -0.1150
   19MOL   H266 7142   3.309   1.272   7.060  1.4778  1.3267 -0.8512
   19MOL   H267 7143   3.295   1.267   6.820 -0.4837 -0.3481  0.8035
   19MOL   C268 7144   3.476   1.166   6.631  0.0965  0.6032 -0.1686
   19MOL   C269 7145   3.407   1.078   6.540  0.1193  0.6130  0.4816
   19MOL   O270 7146   3.348   1.203   6.579 -0.3694 -0.0595  0.3529
   19MOL   C271 7147   3.339   0.955   6.586  0.3548 -0.1139 -0.1308
   19MOL   O272 7148   3.194   0.960   6.578  0.0948  0.0910  0.7010
   19MOL   C273 7149   3.147   0.927   6.456 -0.5356  0.0142  0.3859
   19MOL   C274 7150   3.132   0.790   6.416  0.0946 -0.0921 -0.3636
   19MOL   C275 7151   3.048   0.746   6.310  0.1480  0.2655 -1.2981
   19MOL   C276 7152   2.984   0.849   6.240  0.3191  0.0310 -0.4130
   19MOL   C277 7153   3.007   0.987   6.271  0.0385 -0.0182  0.2905
   19MOL   C278 7154   3.087   1.027   6.380 -0.3136  0.1114  0.1447
   19MOL   H279 7155   3.563   1.214   6.586  0.4394 -0.4724 -0.6519
   19MOL   H280 7156   3.418   1.084   6.432  0.0860  1.1502  0.5084
   19MOL   H281 7157   3.364   0.937   6.690 -2.0956 -0.8092  0.3720
   19MOL   H282 7158   3.374   0.873   6.523  1.9870  1.3416 -1.1590
   19MOL   H283 7159   3.174   0.721   6.487 -3.4410  0.1801  2.1329
   19MOL   H284 7160   3.032   0.640   6.291  0.1369 -0.1906  1.0618
   19MOL   H285 7161   2.921   0.818   6.159  1.3127 -0.5646 -0.9669
   19MOL   H286 7162   2.949   1.063   6.220 -0.4178 -1.0699 -0.7999
   19MOL   C287 7163   3.103   1.174   6.416 -0.6865  0.1683 -0.2661
   19MOL   C288 7164   3.181   1.275   6.332 -0.1016  0.2512 -0.1173
   19MOL   O289 7165   3.042   1.262   6.315 -0.0990 -0.1043  0.6999
   19MOL   C290 7166   3.263   1.234   6.206  0.3631  0.1444  0.7677
   19MOL   O291 7167   3.345   1.341   6.168  0.4619 -0.1279  0.0742
   19MOL   C292 7168   3.302   1.459   6.105  0.5207 -1.0618  0.6213
   19MOL   C293 7169   3.161   1.486   6.083 -0.4334 -0.2888  0.3548
   19MOL   C294 7170   3.113   1.609   6.035  0.5119 -0.2055  0.2904
   19MOL   C295 7171   3.203   1.708   6.005 -0.6543  0.5747  0.0230
   19MOL   C296 7172   3.343   1.688   6.025 -0.6232  0.0814 -0.5159
   19MOL   C297 7173   3.397   1.564   6.067  1.2613 -0.3431  0.1180
   19MOL   H298 7174   3.093   1.201   6.521 -0.8415 -1.1305  0.0543
   19MOL   H299 7175   3.217   1.366   6.380  1.7521 -0.7575  0.4449
   19MOL   H300 7176   3.200   1.178   6.137  0.6902  0.7235 -0.0128
   19MOL   H301 7177   3.331   1.151   6.224  1.4191  0.7588 -0.3613
   19MOL   H302 7178   3.096   1.402   6.102 -1.9483  1.3214  2.4909
   19MOL   H303 7179   3.006   1.621   6.024  0.1332 -2.3594  1.3886
   19MOL   H304 7180   3.153   1.797   5.970 -2.8466 -0.8637 -0.5886
   19MOL   H305 7181   3.408   1.769   5.995 -0.4621 -0.4305 -1.5638
   19MOL   C306 7182   3.546   1.551   6.090  0.8763  0.0329 -0.4930
   19MOL   C307 7183   3.630   1.453   6.007 -0.3961 -0.0950 -0.9620
   19MOL   O308 7184   3.616   1.596   5.973  0.2542  0.2680 -0.2441
   19MOL   C309 7185   3.577   1.361   5.895 -0.0861 -0.3372 -0.3420
   19MOL   O310 7186   3.676   1.339   5.798  0.2447 -0.4340 -0.6787
   19MOL   C311 7187   3.675   1.412   5.683 -0.7791  0.6522 -0.8213
   19MOL   C312 7188   3.608   1.536   5.669  0.2460 -0.5334  0.5790
   19MOL   C313 7189   3.614   1.598   5.543  0.4960  0.0796 -0.2030
   19MOL   C314 7190   3.683   1.541   5.433  0.0772  0.4945 -0.7672
   19MOL   C315 7191   3.748   1.415   5.451  1.0857 -0.2967 -0.3805
   19MOL   C316 7192   3.741   1.348   5.575 -0.4044  0.3158  0.2976
   19MOL   H317 7193   3.586   1.580   6.187 -1.7368 -1.7897  1.1697
   19MOL   H318 7194   3.726   1.427   6.051 -0.0413  2.0630 -0.4161
   19MOL   H319 7195   3.481   1.396   5.858  1.0678 -1.0986 -4.3119
   19MOL   H320 7196   3.550   1.265   5.939  0.3256 -1.3819 -2.3022
   19MOL   H321 7197   3.560   1.590   5.750  0.5214  0.7594 -0.0952
   19MOL   H322 7198   3.562   1.691   5.528  0.6460  0.4223  1.3659
   19MOL   H323 7199   3.681   1.580   5.332 -1.9531 -0.2744 -1.0325
   19MOL   H324 7200   3.798   1.371   5.366 -0.2131  2.4132 -2.6040
   19MOL   C325 7201   3.788   1.212   5.593 -0.5200 -0.3156 -0.5937
   19MOL   C326 7202   3.706   1.095   5.557  0.5423 -0.3311 -0.3382
   19MOL   O327 7203   3.804   1.143   5.464  0.0680  0.3252  0.0841
   19MOL   C328 7204   3.558   1.117   5.506 -0.7828  0.8261  0.0058
   19MOL   O329 7205   3.513   0.991   5.453  0.2949 -0.2698 -0.0794
   19MOL   C330 7206   3.532   0.952   5.320  0.2631 -0.6345  0.8370
   19MOL   C331 7207   3.611   1.019   5.219 -0.1454  0.1034  0.0545
   19MOL   C332 7208   3.633   0.963   5.089 -0.3743  0.8762  0.2004
   19MOL   C333 7209   3.564   0.849   5.063 -0.6919 -0.0194  0.5186
   19MOL   C334 7210   3.481   0.782   5.152 -0.6253 -0.1300  0.5858
   19MOL   C335 7211   3.474   0.832   5.286  0.3505  0.2502 -0.3180
   19MOL   H336 7212   3.870   1.212   5.665  0.1049  3.4372 -1.1698
   19MOL   H337 7213   3.729   1.002   5.608 -2.3028 -1.8057 -1.6368
   19MOL   H338 7214   3.556   1.190   5.425 -1.4573 -1.1366 -1.8125
   19MOL   H339 7215   3.489   1.157   5.581 -1.6286 -1.6301  0.6010
   19MOL   H340 7216   3.647   1.118   5.243  1.4577 -0.3890 -0.2710
   19MOL   H341 7217   3.680   1.021   5.011  0.9830 -2.6179 -1.6968
   19MOL   H342 7218   3.569   0.808   4.963  1.0729 -0.6752  0.8542
   19MOL   H343 7219   3.431   0.698   5.107  1.9377  0.1477 -2.9700
   19MOL   C344 7220   3.395   0.764   5.393  0.0083  0.1769 -0.6610
   19MOL   C345 7221   3.258   0.801   5.433  0.6096  0.5733  0.3448
   19MOL   O346 7222   3.281   0.696   5.343  0.2163 -0.0681  0.7119
   19MOL   C347 7223   3.184   0.927   5.382  0.5832 -0.6767  0.6630
   19MOL   O348 7224   3.166   1.025   5.486 -0.7845  0.0568  0.1122
   19MOL   C349 7225   3.059   0.993   5.571  0.1979 -0.6042  0.6105
   19MOL   C350 7226   2.935   0.936   5.529  0.1829 -0.2214  0.0156
   19MOL   C351 7227   2.843   0.901   5.632  0.7366  0.4093 -0.2045
   19MOL   C352 7228   2.874   0.925   5.768 -0.0157  0.1531 -0.0935
   19MOL   C353 7229   2.987   1.002   5.799 -0.2861 -0.6668 -0.3310
   19MOL   C354 7230   3.081   1.030   5.701 -0.5395  0.7084 -0.1043
   19MOL   H355 7231   3.454   0.702   5.460 -0.7173  0.8944  0.6700
   19MOL   H356 7232   3.240   0.776   5.537 -1.9522 -2.1561 -0.6699
   19MOL   H357 7233   3.102   0.900   5.316 -0.2316  1.8861  0.5911
   19MOL   H358 7234   3.257   0.969   5.312  0.6309 -1.6806  0.0994
   19MOL   H359 7235   2.919   0.905   5.427  3.0061 -1.4191 -0.0941
   19MOL   H360 7236   2.760   0.840   5.599 -0.0663  2.1807 -1.5543
   19MOL   H361 7237   2.807   0.897   5.848  0.3167  1.8123  0.8008
   19MOL   H362 7238   2.997   1.015   5.906 -0.1632  0.8158 -0.5093
   19MOL   C363 7239   3.212   1.099   5.736  0.0677 -0.2419  0.0221
   19MOL   C364 7240   3.227   1.247   5.758  0.7270  0.1730 -0.4125
   19MOL   O365 7241   3.212   1.158   5.869  0.4270  0.5980 -0.2542
   19MOL   C366 7242   3.107   1.340   5.731 -0.0155  0.1963  0.3851
   19MOL   O367 7243   3.110   1.393   5.600 -0.1918 -0.2793 -0.0865
   19MOL   C368 7244   3.184   1.511   5.574  0.7229  0.8773 -0.0112
   19MOL   C369 7245   3.179   1.561   5.443 -0.3070  0.0511 -0.1185
   19MOL   C370 7246   3.245   1.688   5.413  0.1986 -0.1816  0.5433
   19MOL   C371 7247   3.318   1.756   5.512  0.1331  0.5090 -0.4173
   19MOL   C372 7248   3.316   1.702   5.646 -0.2442  0.0831 -0.4317
   19MOL   C373 7249   3.250   1.583   5.677 -0.0651 -0.6843 -0.6746
   19MOL   H374 7250   3.299   1.036   5.715 -0.2236 -0.0631 -1.8124
   19MOL   H375 7251   3.330   1.270   5.734  1.3996 -1.6304  0.5931
   19MOL   H376 7252   3.107   1.410   5.814  1.1106  0.4418  0.1918
   19MOL   H377 7253   3.022   1.272   5.737  1.6605 -1.9793  0.4270
   19MOL   H378 7254   3.123   1.520   5.359  0.8848 -0.8554 -0.4914
   19MOL   H379 7255   3.226   1.733   5.317  1.5985  1.9982  1.2666
   19MOL   H380 7256   3.378   1.844   5.496  2.7010 -1.0956  0.1953
   19MOL   H381 7257   3.368   1.757   5.723 -1.0873 -0.9200  0.8501
   19MOL   H382 7258   3.227   1.558   5.779 -0.3491 -0.3822 -0.6633
   20MOL     C1 7259   3.006   4.659   5.713  0.4861  0.1574 -0.7103
   20MOL     C2 7260   3.105   4.767   5.717  0.0098 -0.8711 -1.2735
   20MOL     O3 7261   3.052   4.704   5.838  0.0067 -0.0312  0.5960
   20MOL     C4 7262   3.073   4.917   5.711  0.4168 -0.1120  0.5124
   20MOL     O5 7263   2.934   4.932   5.682 -0.1016  0.4251 -0.1708
   20MOL     C6 7264   2.908   4.964   5.551 -0.1685  0.4298 -0.1354
   20MOL     C7 7265   2.984   4.913   5.444  0.1076 -0.6874 -0.5101
   20MOL     C8 7266   2.950   4.938   5.310 -0.2097 -0.6244 -0.7209
   20MOL     C9 7267   2.843   5.025   5.277  0.0900  0.0453 -0.7590
   20MOL    C10 7268   2.767   5.075   5.381  0.0398  0.5291  0.5802
   20MOL    C11 7269   2.800   5.048   5.521  0.2227 -0.0741  1.0675
   20MOL    H12 7270   3.043   4.561   5.687 -1.1766 -0.7309  0.2190
   20MOL    H13 7271   3.211   4.744   5.710  0.3420 -0.2745  1.3013
   20MOL    H14 7272   3.121   4.971   5.629  0.1218 -0.6155  0.0101
   20MOL    H15 7273   3.080   4.976   5.802 -3.1693 -1.1630  1.5263
   20MOL    H16 7274   3.075   4.858   5.458  2.4694  2.7768 -1.5799
   20MOL    H17 7275   2.999   4.903   5.220 -1.2311 -0.8218 -1.2023
   20MOL    H18 7276   2.821   5.046   5.174 -0.1102 -1.4485 -1.0327
   20MOL    H19 7277   2.688   5.143   5.353 -2.1451 -0.5003  4.0384
   20MOL    H20 7278   2.904   4.688   5.684  0.4605  1.9174  1.0049
   20MOL    C21 7279   2.707   5.096   5.622  0.3132 -0.1113 -0.2970
   20MOL    C22 7280   2.722   5.211   5.718 -0.2367 -0.6400 -0.0729
   20MOL    O23 7281   2.646   5.227   5.596 -0.1511 -0.9097  0.4035
   20MOL    C24 7282   2.855   5.282   5.725  0.1870 -0.1606 -0.3953
   20MOL    O25 7283   2.849   5.369   5.838 -0.0704  0.1413  0.1400
   20MOL    C26 7284   2.765   5.478   5.859  0.2446  0.2502  0.0417
   20MOL    C27 7285   2.662   5.510   5.772 -0.0352 -0.0166  0.2834
   20MOL    C28 7286   2.571   5.615   5.799  0.1580  0.1545 -0.2360
   20MOL    C29 7287   2.585   5.689   5.918  0.3887  0.2131 -0.1870
   20MOL    C30 7288   2.691   5.657   6.003 -0.1383 -0.4385 -0.4473
   20MOL    C31 7289   2.789   5.559   5.973  0.5981  0.0276 -0.3106
   20MOL    H32 7290   2.634   5.020   5.650 -0.3638  0.6371 -0.0058
   20MOL    H33 7291   2.660   5.211   5.808  2.2589 -2.6220  1.7386
   20MOL    H34 7292   2.888   5.333   5.634  0.0615 -0.7243 -0.7610
   20MOL    H35 7293   2.939   5.214   5.733  0.4255  0.0679 -0.8916
   20MOL    H36 7294   2.649   5.461   5.676  1.4698 -0.9693  0.5488
   20MOL    H37 7295   2.493   5.636   5.728 -1.4677 -2.1473  0.8223
   20MOL    H38 7296   2.526   5.774   5.949 -2.6322 -2.5205  1.8686
   20MOL    H39 7297   2.706   5.714   6.094 -2.3012 -0.9947  0.2801
   20MOL    C40 7298   2.901   5.539   6.065  0.0728  0.3322  0.0480
   20MOL    C41 7299   3.024   5.625   6.073 -0.2162  0.3933  0.3625
   20MOL    O42 7300   2.911   5.642   6.163 -0.4919  0.8963  0.2018
   20MOL    C43 7301   3.046   5.742   5.975 -0.3964  0.2552 -0.6002
   20MOL    O44 7302   3.141   5.840   6.019 -0.3818  0.4582  0.7208
   20MOL    C45 7303   3.103   5.966   5.988  0.0963 -0.5901  0.6070
   20MOL    C46 7304   3.153   6.017   5.868 -0.8316  0.0136 -0.7912
   20MOL    C47 7305   3.118   6.147   5.827 -0.2595  0.4644 -0.1487
   20MOL    C48 7306   3.037   6.225   5.913  0.5609 -0.3669 -0.3677
   20MOL    C49 7307   2.990   6.173   6.036 -0.1046  0.5896  0.0322
   20MOL    C50 7308   3.024   6.043   6.073  0.1298  0.2441  0.0407
   20MOL    H51 7309   2.920   5.434   6.087  1.1673 -0.1487 -3.0119
   20MOL    H52 7310   3.112   5.588   6.123 -0.9028 -0.7628  0.7401
   20MOL    H53 7311   2.951   5.787   5.948  0.5233  1.6231 -1.6695
   20MOL    H54 7312   3.074   5.704   5.876 -0.4639 -1.1943 -0.0755
   20MOL    H55 7313   3.222   5.961   5.806 -0.7779 -0.8078 -0.0032
   20MOL    H56 7314   3.148   6.191   5.734 -0.5123  2.3516  0.6492
   20MOL    H57 7315   3.008   6.321   5.873  2.8383 -0.4195 -2.3012
   20MOL    H58 7316   2.935   6.243   6.097  0.0517  0.7516 -0.0132
   20MOL    C59 7317   2.969   5.980   6.200 -0.1488  0.5719 -0.3247
   20MOL    C60 7318   3.061   5.933   6.314 -0.6621  0.5845 -0.0642
   20MOL    O61 7319   3.000   6.062   6.308  0.4058  0.0350 -0.1276
   20MOL    C62 7320   3.209   5.948   6.314 -0.7752 -0.3013  0.8191
   20MOL    O63 7321   3.265   5.901   6.437  0.0474 -0.3705 -0.1330
   20MOL    C64 7322   3.222   5.958   6.556 -0.4769 -0.6637  0.3300
   20MOL    C65 7323   3.150   6.080   6.563 -0.7292 -0.5003  0.0486
   20MOL    C66 7324   3.108   6.137   6.691 -0.7011 -0.0607 -0.2448
   20MOL    C67 7325   3.146   6.069   6.808  0.3124 -0.5304  0.5136
   20MOL    C68 7326   3.221   5.950   6.798  0.1869  0.2491  0.2590
   20MOL    C69 7327   3.262   5.898   6.676 -0.5927  0.1895 -0.1415
   20MOL    H70 7328   2.861   5.971   6.188  0.1708  0.3397 -3.5059
   20MOL    H71 7329   3.016   5.858   6.378 -0.2310 -2.2336 -2.9726
   20MOL    H72 7330   3.241   6.047   6.280 -2.4973  0.5237  1.5577
   20MOL    H73 7331   3.254   5.883   6.238 -2.1945 -1.5029  0.9866
   20MOL    H74 7332   3.137   6.132   6.469  1.8733 -0.5034 -0.3556
   20MOL    H75 7333   3.050   6.228   6.699  2.0406  1.6194  1.1873
   20MOL    H76 7334   3.113   6.108   6.903 -1.2729  0.0075 -0.2396
   20MOL    H77 7335   3.254   5.889   6.881 -1.2239 -0.2341  0.4881
   20MOL    C78 7336   3.352   5.775   6.665  0.3582 -0.2978 -0.4705
   20MOL    C79 7337   3.501   5.785   6.638  0.7311  0.2295 -0.7618
   20MOL    O80 7338   3.445   5.750   6.771 -0.0584  0.0635  0.2082
   20MOL    C81 7339   3.572   5.918   6.642 -1.2021 -0.6422 -0.0279
   20MOL    O82 7340   3.714   5.905   6.628 -0.3180  0.4158 -0.0494
   20MOL    C83 7341   3.786   5.879   6.746 -0.3721 -0.1903  0.6477
   20MOL    C84 7342   3.773   5.756   6.813 -0.3130 -0.3699  0.9582
   20MOL    C85 7343   3.838   5.734   6.936  0.6518 -0.7668 -0.2364
   20MOL    C86 7344   3.920   5.835   6.991  0.0552 -0.3213  0.6091
   20MOL    C87 7345   3.941   5.954   6.922 -0.5468  0.2182  0.1738
   20MOL    C88 7346   3.876   5.978   6.800 -0.2669  0.1239 -0.6128
   20MOL    H89 7347   3.302   5.697   6.608 -1.1197  0.5644 -0.3931
   20MOL    H90 7348   3.555   5.704   6.589  2.2098  0.6465  0.1333
   20MOL    H91 7349   3.552   5.973   6.734 -2.5760 -0.9302 -0.1480
   20MOL    H92 7350   3.537   5.977   6.557 -1.0315 -0.1698  0.2304
   20MOL    H93 7351   3.697   5.688   6.776  0.9521 -0.5169 -1.4945
   20MOL    H94 7352   3.811   5.638   6.979  0.2187 -0.7825 -0.5428
   20MOL    H95 7353   3.996   5.821   7.067  0.2651 -0.8068  0.3088
   20MOL    H96 7354   4.013   6.023   6.962 -0.3480 -0.1220  0.4018
   20MOL    C97 7355   3.881   6.111   6.736 -0.0627 -0.7658  0.0402
   20MOL    C98 7356   3.794   6.224   6.780 -0.1677 -0.6804  0.1659
   20MOL    O99 7357   3.925   6.213   6.828 -0.5182 -0.5753 -0.4628
   20MOL   C100 7358   3.683   6.220   6.889  0.0657  0.4126  0.5705
   20MOL   O101 7359   3.550   6.253   6.840 -0.1157 -0.2046 -0.2196
   20MOL   C102 7360   3.505   6.383   6.818  0.0668 -0.3954 -0.4303
   20MOL   C103 7361   3.531   6.485   6.914 -0.6566 -0.2084 -0.7592
   20MOL   C104 7362   3.482   6.614   6.899 -0.2479 -0.5667 -0.2557
   20MOL   C105 7363   3.418   6.651   6.778  0.2537  0.1859 -0.1665
   20MOL   C106 7364   3.403   6.550   6.679 -0.3275 -0.6276  0.4983
   20MOL   C107 7365   3.442   6.420   6.695  0.0626  0.9952 -0.7420
   20MOL   H108 7366   3.942   6.115   6.646  0.1977 -0.6925  0.2168
   20MOL   H109 7367   3.789   6.313   6.718  1.9673 -0.9322 -0.4260
   20MOL   H110 7368   3.707   6.285   6.972  0.3876 -0.1466  0.9215
   20MOL   H111 7369   3.668   6.117   6.923  1.4305  0.0377  0.0796
   20MOL   H112 7370   3.587   6.459   7.002 -0.0165 -1.5248 -1.5347
   20MOL   H113 7371   3.514   6.680   6.978 -1.2931  1.4681 -1.4970
   20MOL   H114 7372   3.397   6.754   6.751  0.8290 -0.0478 -1.5351
   20MOL   H115 7373   3.359   6.589   6.589 -0.7134  0.0733  0.9845
   20MOL   C116 7374   3.439   6.338   6.573  0.4582  0.2325 -0.3777
   20MOL   C117 7375   3.517   6.378   6.446  0.3170  0.0745 -0.1525
   20MOL   O118 7376   3.567   6.283   6.544  0.9371  0.1563  0.4202
   20MOL   C119 7377   3.596   6.512   6.425  0.6294  0.9390  0.0418
   20MOL   O120 7378   3.663   6.517   6.295  0.1005  0.0955  0.1565
   20MOL   C121 7379   3.781   6.450   6.274 -0.0475  0.0144  0.1404
   20MOL   C122 7380   3.836   6.349   6.361  0.4368  0.5490 -0.6532
   20MOL   C123 7381   3.950   6.282   6.327  0.6197  0.2219 -0.9175
   20MOL   C124 7382   4.023   6.307   6.214  0.6025  0.0901 -0.1201
   20MOL   C125 7383   3.977   6.407   6.130  0.0491  1.0523  0.2435
   20MOL   C126 7384   3.859   6.481   6.157 -0.3621  0.3923 -0.2757
   20MOL   H127 7385   3.359   6.273   6.540 -1.7860  2.4786  0.4703
   20MOL   H128 7386   3.488   6.330   6.353  1.0493  0.1995 -0.4427
   20MOL   H129 7387   3.676   6.528   6.498  1.1116 -0.3989 -0.1689
   20MOL   H130 7388   3.527   6.595   6.413 -0.7640 -0.3268 -0.9083
   20MOL   H131 7389   3.789   6.322   6.454  2.3637 -1.9630 -0.3517
   20MOL   H132 7390   3.988   6.225   6.410 -1.4721 -0.4656 -0.4045
   20MOL   H133 7391   4.113   6.252   6.194  1.0774  1.3723 -1.6432
   20MOL   H134 7392   4.041   6.442   6.051  0.8810  1.4167  1.0753
   20MOL   C135 7393   3.810   6.577   6.061 -0.5037  0.0735  0.5684
   20MOL   C136 7394   3.826   6.724   6.083 -0.1421 -0.4115 -0.1169
   20MOL   O137 7395   3.918   6.651   6.001 -0.2352  0.1324 -0.0771
   20MOL   C138 7396   3.889   6.785   6.211 -0.2208 -0.4197  0.1768
   20MOL   O139 7397   3.799   6.883   6.264  0.0028  0.1599 -0.0484
   20MOL   C140 7398   3.763   6.878   6.396 -0.3096  0.0098 -0.3501
   20MOL   C141 7399   3.831   6.797   6.493  0.0034  0.2994  0.2224
   20MOL   C142 7400   3.792   6.804   6.625 -0.4648 -0.0770  0.2582
   20MOL   C143 7401   3.683   6.883   6.664 -0.4128 -0.0549  0.3702
   20MOL   C144 7402   3.611   6.964   6.569 -0.2632  0.4090 -0.4279
   20MOL   C145 7403   3.650   6.958   6.435 -0.6200  0.9009 -0.2472
   20MOL   H146 7404   3.737   6.545   5.988 -0.5442  1.5117 -0.0422
   20MOL   H147 7405   3.772   6.793   6.017 -0.4999  0.1368  0.7414
   20MOL   H148 7406   3.987   6.830   6.192  0.6481 -2.1606  0.3596
   20MOL   H149 7407   3.910   6.704   6.281  4.1765  0.9806  0.6788
   20MOL   H150 7408   3.921   6.741   6.472 -0.3562 -0.7543  1.4172
   20MOL   H151 7409   3.847   6.741   6.693  0.4053  0.4261  0.0299
   20MOL   H152 7410   3.648   6.878   6.766  0.0006 -1.4443  0.4531
   20MOL   H153 7411   3.539   7.039   6.597 -0.6474 -0.3225  0.5636
   20MOL   C154 7412   3.588   7.047   6.335 -0.6935 -0.5618 -0.0187
   20MOL   C155 7413   3.490   7.005   6.229 -0.2093  0.1117 -0.5475
   20MOL   O156 7414   3.448   7.064   6.352 -0.2039 -0.2868  0.3186
   20MOL   C157 7415   3.448   6.856   6.216  0.1446  0.7373 -0.1739
   20MOL   O158 7416   3.305   6.840   6.214  0.2081 -0.0915  0.0080
   20MOL   C159 7417   3.263   6.708   6.209  0.7146  0.3081  0.0613
   20MOL   C160 7418   3.302   6.618   6.110  0.2072  0.0087  0.2089
   20MOL   C161 7419   3.272   6.482   6.116  0.4439 -0.3163 -0.4872
   20MOL   C162 7420   3.201   6.435   6.231 -0.1608  0.2974  0.0063
   20MOL   C163 7421   3.162   6.525   6.332 -0.4400 -0.2218 -0.1136
   20MOL   C164 7422   3.204   6.660   6.330  0.5572  0.0878 -0.1410
   20MOL   H165 7423   3.632   7.144   6.315 -0.9302 -0.9755 -2.7121
   20MOL   H166 7424   3.492   7.070   6.141  2.0716  2.6307  1.2662
   20MOL   H167 7425   3.473   6.799   6.305 -0.2414  1.4696  0.4098
   20MOL   H168 7426   3.499   6.805   6.134  0.5483  1.6353 -0.4922
   20MOL   H169 7427   3.353   6.661   6.025  0.2327 -0.7476 -0.1611
   20MOL   H170 7428   3.285   6.417   6.031 -0.8849  0.0719 -0.9904
   20MOL   H171 7429   3.178   6.330   6.220  2.8890 -0.3653 -0.7011
   20MOL   H172 7430   3.112   6.479   6.416  1.0886 -4.0318 -1.1957
   20MOL   C173 7431   3.190   6.759   6.444 -0.0184  0.9887 -0.7070
   20MOL   C174 7432   3.060   6.815   6.481 -0.2285  0.9625  0.5049
   20MOL   O175 7433   3.119   6.706   6.554  0.2441 -0.0113 -0.2221
   20MOL   C176 7434   2.937   6.789   6.398 -0.5735  0.3186 -0.1255
   20MOL   O177 7435   2.822   6.848   6.461  0.2054 -0.4134  0.1008
   20MOL   C178 7436   2.701   6.831   6.399 -0.5809 -0.7816  0.1345
   20MOL   C179 7437   2.685   6.802   6.258  0.2500 -0.5117  0.1126
   20MOL   C180 7438   2.552   6.775   6.208  0.4025  0.7857  0.1962
   20MOL   C181 7439   2.442   6.777   6.298 -0.2146  0.4399 -0.1583
   20MOL   C182 7440   2.465   6.810   6.437 -0.8733  1.0659  0.8079
   20MOL   C183 7441   2.594   6.849   6.486  0.6733  0.0351  0.0269
   20MOL   H184 7442   3.280   6.810   6.477 -0.5100  1.7665 -0.5532
   20MOL   H185 7443   3.059   6.916   6.521 -1.3548  0.4470  1.8616
   20MOL   H186 7444   2.923   6.681   6.398  0.7991  0.1239  0.6435
   20MOL   H187 7445   2.957   6.822   6.296  1.6803  0.6148  0.3987
   20MOL   H188 7446   2.764   6.802   6.184 -2.3564  2.4035 -2.8268
   20MOL   H189 7447   2.536   6.735   6.109 -0.0191  2.1508 -0.2957
   20MOL   H190 7448   2.349   6.735   6.264 -0.7475  0.9745  0.6213
   20MOL   H191 7449   2.384   6.804   6.509 -2.2580  0.1345 -0.8013
   20MOL   C192 7450   2.613   6.883   6.633 -0.0318 -0.3383  0.2789
   20MOL   C193 7451   2.645   7.021   6.689 -0.3831  0.2641  0.7536
   20MOL   O194 7452   2.510   6.970   6.688  0.4617 -0.2819 -0.2822
   20MOL   C195 7453   2.687   7.136   6.601 -0.3294  0.6054  0.4457
   20MOL   O196 7454   2.828   7.164   6.632  1.0987  0.4229 -0.1458
   20MOL   C197 7455   2.854   7.252   6.735  0.1427 -0.0369 -0.9771
   20MOL   C198 7456   2.767   7.281   6.836  0.6595  0.2073 -0.7383
   20MOL   C199 7457   2.799   7.373   6.936 -0.3918 -0.1921 -0.5154
   20MOL   C200 7458   2.928   7.436   6.939  0.7184  0.4693 -0.5038
   20MOL   C201 7459   3.021   7.402   6.841  1.1165 -0.0070 -0.0985
   20MOL   C202 7460   2.985   7.309   6.746 -0.2351  0.1208  0.2179
   20MOL   H203 7461   2.649   6.804   6.700  2.0367  0.2609 -0.0999
   20MOL   H204 7462   2.694   7.015   6.786  1.3144 -1.0781 -0.1615
   20MOL   H205 7463   2.615   7.218   6.602 -0.8262  0.1703  0.1375
   20MOL   H206 7464   2.703   7.105   6.497  0.9354 -1.5455  1.2683
   20MOL   H207 7465   2.663   7.250   6.835  0.8188 -0.3373 -0.4931
   20MOL   H208 7466   2.733   7.398   7.018 -0.2505 -0.7391 -0.2294
   20MOL   H209 7467   2.964   7.503   7.017 -2.7574  2.7139 -0.7233
   20MOL   H210 7468   3.115   7.454   6.834 -0.2598  2.4922 -0.9632
   20MOL   C211 7469   3.095   7.276   6.649  0.7140  0.3517 -0.5002
   20MOL   C212 7470   3.219   7.216   6.698  0.8637  0.4273 -0.1869
   20MOL   O213 7471   3.123   7.135   6.637  0.1047  0.5415 -0.2817
   20MOL   C214 7472   3.265   7.160   6.835  0.8368 -0.0439  0.5766
   20MOL   O215 7473   3.406   7.188   6.848  0.2402  0.0155  0.4951
   20MOL   C216 7474   3.483   7.127   6.940 -0.0730  0.2813  0.3175
   20MOL   C217 7475   3.430   7.067   7.058 -0.2126 -0.2123  0.1050
   20MOL   C218 7476   3.507   7.003   7.158 -0.7787 -0.1251  0.0401
   20MOL   C219 7477   3.650   7.007   7.144 -0.0495 -0.4269  0.3105
   20MOL   C220 7478   3.708   7.075   7.039 -0.2043  0.2549 -0.9222
   20MOL   C221 7479   3.625   7.132   6.936 -0.2953  0.1269 -0.3864
   20MOL   H222 7480   3.092   7.335   6.557 -1.1644 -2.8795 -2.6273
   20MOL   H223 7481   3.300   7.214   6.625 -0.4958  1.1712 -1.7551
   20MOL   H224 7482   3.264   7.051   6.836 -0.2488 -0.0505 -0.0166
   20MOL   H225 7483   3.206   7.211   6.911 -0.1157  0.2206 -0.3181
   20MOL   H226 7484   3.323   7.061   7.073 -0.4933 -1.2599 -2.0923
   20MOL   H227 7485   3.468   6.957   7.247 -2.2323  0.5794 -0.2122
   20MOL   H228 7486   3.711   6.966   7.223  2.3583  1.3962 -0.5415
   20MOL   H229 7487   3.816   7.079   7.032  0.1556 -1.6844  2.4223
   20MOL   C230 7488   3.686   7.202   6.814 -0.6231  0.4070  0.2375
   20MOL   C231 7489   3.769   7.327   6.812 -0.3097  0.0900  0.1353
   20MOL   O232 7490   3.824   7.197   6.820  0.4422 -0.3421 -0.0681
   20MOL   C233 7491   3.799   7.411   6.931  0.3716 -0.5180 -0.2113
   20MOL   O234 7492   3.932   7.468   6.917  0.4836  0.5117 -0.1730
   20MOL   C235 7493   4.019   7.459   7.025  1.0657  0.5373 -0.0087
   20MOL   C236 7494   4.015   7.352   7.117 -0.2807  0.4499  0.6469
   20MOL   C237 7495   4.100   7.349   7.230  0.1994 -0.9427 -0.0861
   20MOL   C238 7496   4.189   7.457   7.255 -0.0402 -0.0142 -0.2868
   20MOL   C239 7497   4.196   7.566   7.163 -0.0993  0.2787 -0.9189
   20MOL   C240 7498   4.119   7.562   7.047  0.1829 -0.5506  0.1088
   20MOL   H241 7499   3.640   7.166   6.722  0.1930 -0.8271  0.2958
   20MOL   H242 7500   3.785   7.380   6.719  1.0110  0.5786  0.6396
   20MOL   H243 7501   3.786   7.342   7.015  0.0655 -0.8055 -0.4931
   20MOL   H244 7502   3.732   7.497   6.930  1.3698  0.3161  1.7419
   20MOL   H245 7503   3.959   7.262   7.101 -0.1896  0.5795 -0.4092
   20MOL   H246 7504   4.099   7.264   7.296  2.3128 -2.2356 -1.6581
   20MOL   H247 7505   4.260   7.450   7.337 -0.9409  0.3098  0.5333
   20MOL   H248 7506   4.282   7.632   7.169  1.6356 -1.9734 -0.1298
   20MOL   C249 7507   4.144   7.662   6.942  0.1064 -0.6053 -0.4404
   20MOL   C250 7508   4.101   7.808   6.949  0.1838 -0.4457 -0.0064
   20MOL   O251 7509   4.234   7.765   6.983  0.3434  0.3920 -0.5706
   20MOL   C252 7510   4.016   7.861   7.068  0.1754 -0.4146  0.2929
   20MOL   O253 7511   3.916   7.953   7.015 -0.2707  0.8661  0.2027
   20MOL   C254 7512   3.803   7.986   7.089  0.9926 -0.2981 -0.3116
   20MOL   C255 7513   3.782   7.942   7.223  0.1009  0.4040 -0.1662
   20MOL   C256 7514   3.667   7.979   7.292  0.7705  0.9858 -0.0644
   20MOL   C257 7515   3.572   8.069   7.230 -0.2045  0.8857  0.2998
   20MOL   C258 7516   3.597   8.124   7.105 -1.1539 -0.5730 -0.2584
   20MOL   C259 7517   3.709   8.077   7.035  0.0837 -0.3816  0.4893
   20MOL   H260 7518   4.177   7.612   6.851  1.4082 -0.8803  0.1708
   20MOL   H261 7519   4.089   7.859   6.854  2.5101  1.3875  0.6416
   20MOL   H262 7520   4.071   7.926   7.136  0.1588 -1.2908  1.1498
   20MOL   H263 7521   3.965   7.786   7.128 -1.5815  0.5118 -0.0068
   20MOL   H264 7522   3.854   7.882   7.278 -2.4810 -3.2082 -0.5046
   20MOL   H265 7523   3.652   7.961   7.397  3.2159  1.2695  0.3420
   20MOL   H266 7524   3.500   8.108   7.300  1.2649  0.3134  2.1478
   20MOL   H267 7525   3.511   0.015   7.081 -1.3548  0.4384  2.7979
   20MOL   C268 7526   3.737   8.132   6.907  0.3217 -0.3436 -0.0889
   20MOL   C269 7527   3.727   8.070   6.773 -0.1445 -0.3880 -0.1209
   20MOL   O270 7528   3.619   8.145   6.823  0.1033  0.3843 -0.4689
   20MOL   C271 7529   3.701   7.931   6.739  0.1583  0.4133  0.1606
   20MOL   O272 7530   3.603   7.916   6.629  0.1039  0.0545 -0.0156
   20MOL   C273 7531   3.532   7.799   6.621 -0.2569 -0.2367 -1.0324
   20MOL   C274 7532   3.575   7.684   6.696 -0.9516 -0.0892 -0.0584
   20MOL   C275 7533   3.512   7.557   6.667 -0.9841  0.0648 -0.4366
   20MOL   C276 7534   3.411   7.552   6.570 -0.1100  0.4173 -0.6913
   20MOL   C277 7535   3.369   7.664   6.503  0.5164 -0.5583  0.0266
   20MOL   C278 7536   3.432   7.786   6.526 -0.3503 -0.2908  0.1483
   20MOL   H279 7537   3.789   0.057   6.921  0.9442 -0.3030 -2.4515
   20MOL   H280 7538   3.772   8.127   6.692 -0.2714 -1.2508 -0.8018
   20MOL   H281 7539   3.673   7.875   6.829 -3.8833  2.3958  0.2400
   20MOL   H282 7540   3.798   7.896   6.704 -0.3220 -0.1298 -0.6444
   20MOL   H283 7541   3.657   7.692   6.765  0.9914 -5.2382 -1.5329
   20MOL   H284 7542   3.550   7.471   6.721  0.2747  0.3812 -0.8134
   20MOL   H285 7543   3.365   7.458   6.543  2.6965 -1.1250 -0.2618
   20MOL   H286 7544   3.282   7.659   6.438 -0.0072  0.7817  0.6164
   20MOL   C287 7545   3.382   7.906   6.446 -0.2994 -0.7273 -0.1699
   20MOL   C288 7546   3.450   8.015   6.368  0.4547 -0.2251  0.1514
   20MOL   O289 7547   3.404   7.891   6.307 -0.0703  0.1096 -0.2456
   20MOL   C290 7548   3.594   8.037   6.353 -0.7133 -0.1775  0.0928
   20MOL   O291 7549   3.613   8.075   6.217  0.7566 -0.4054  0.2073
   20MOL   C292 7550   3.597   0.037   6.179 -0.0397  0.0686 -0.4795
   20MOL   C293 7551   3.543   0.141   6.255  0.2678 -0.2833  0.0046
   20MOL   C294 7552   3.525   0.271   6.201  0.0943 -0.5143  0.3002
   20MOL   C295 7553   3.564   0.291   6.068  0.7308 -0.4599  0.2475
   20MOL   C296 7554   3.628   0.191   5.997 -0.1806 -0.2655 -0.0158
   20MOL   C297 7555   3.643   0.064   6.049  0.9028 -0.6554 -0.7801
   20MOL   H298 7556   3.274   7.896   6.454 -0.0796 -1.4686  2.3076
   20MOL   H299 7557   3.381   8.099   6.365  0.2954 -0.3054  1.2508
   20MOL   H300 7558   3.643   7.941   6.370  1.3557  0.8464  0.1653
   20MOL   H301 7559   3.635   8.114   6.419 -2.0142  0.4749  0.1576
   20MOL   H302 7560   3.512   0.122   6.357 -1.7258 -0.0707 -0.5423
   20MOL   H303 7561   3.491   0.353   6.262 -2.7187 -1.0607 -0.4598
   20MOL   H304 7562   3.551   0.383   6.015  1.0926  0.4408  1.6961
   20MOL   H305 7563   3.674   0.217   5.903 -2.0643  1.2332 -0.5415
   20MOL   C306 7564   3.701   8.126   5.961 -0.2345  0.1526  0.0096
   20MOL   C307 7565   3.614   8.017   5.897  0.9812  0.7331  0.5106
   20MOL   O308 7566   3.663   8.134   5.822 -0.0264 -0.2760 -0.3591
   20MOL   C309 7567   3.461   8.001   5.919  0.0768 -0.2036  0.2960
   20MOL   O310 7568   3.393   7.898   5.848  0.4230  0.3215 -0.1204
   20MOL   C311 7569   3.306   7.936   5.746  0.2994  0.4117  1.3579
   20MOL   C312 7570   3.337   8.047   5.665  0.4772  0.1709  0.0986
   20MOL   C313 7571   3.246   8.085   5.563  0.1422 -0.7841 -0.2281
   20MOL   C314 7572   3.133   8.008   5.539  0.3043 -0.5577  0.4460
   20MOL   C315 7573   3.109   7.895   5.611  0.6554  0.2979 -0.1939
   20MOL   C316 7574   3.190   7.857   5.721  0.0337 -0.1962 -0.5499
   20MOL   H317 7575   3.809   8.117   5.975 -0.2914  1.0100  1.1264
   20MOL   H318 7576   3.668   7.928   5.866 -0.2755  0.1438 -0.0520
   20MOL   H319 7577   3.419   8.100   5.897  1.3646  0.7440  1.9333
   20MOL   H320 7578   3.445   7.988   6.026 -1.0769 -0.0821  0.1412
   20MOL   H321 7579   3.429   8.102   5.681  0.7064 -0.3332  0.5164
   20MOL   H322 7580   3.264   0.006   5.508 -1.1179  1.4428  2.8809
   20MOL   H323 7581   3.071   8.031   5.454  0.2769 -0.9582  0.3564
   20MOL   H324 7582   3.026   7.832   5.583  0.5545  0.5956 -0.5712
   20MOL   C325 7583   3.165   7.727   5.791 -0.0156 -0.5834  0.2486
   20MOL   C326 7584   3.108   7.726   5.928 -0.0284 -0.4618 -0.2190
   20MOL   O327 7585   3.021   7.722   5.808 -0.5134  0.5803 -0.5921
   20MOL   C328 7586   3.102   7.850   6.009  0.1230  0.4688 -0.3437
   20MOL   O329 7587   2.992   7.841   6.100  1.2318  0.7152  0.4069
   20MOL   C330 7588   2.874   7.910   6.067 -0.1310 -0.3041  0.6021
   20MOL   C331 7589   2.830   7.941   5.934  0.0600  0.8241  0.2737
   20MOL   C332 7590   2.701   7.989   5.914 -0.7468 -0.4592 -0.7506
   20MOL   C333 7591   2.610   8.000   6.019  0.6716  0.3675 -0.4370
   20MOL   C334 7592   2.649   7.984   6.147 -0.8388 -0.1747  0.3629
   20MOL   C335 7593   2.786   7.932   6.171  0.0463 -0.6318 -0.1034
   20MOL   H336 7594   3.207   7.637   5.745  1.2994  1.1316 -1.9675
   20MOL   H337 7595   3.093   7.633   5.982 -2.5306 -1.1798 -2.0806
   20MOL   H338 7596   3.092   7.935   5.942  0.8035  1.2835  0.5800
   20MOL   H339 7597   3.192   7.855   6.071 -0.0564  3.3758 -0.2669
   20MOL   H340 7598   2.901   7.924   5.855  2.3165  0.0195  2.4247
   20MOL   H341 7599   2.658   8.016   5.819  0.1848  0.6759 -0.8532
   20MOL   H342 7600   2.515   8.033   5.980  2.0950  1.3116 -3.2196
   20MOL   H343 7601   2.575   8.004   6.223 -0.2151  0.4916  0.8084
   20MOL   C344 7602   2.839   7.903   6.315 -0.1833 -0.7298 -0.4810
   20MOL   C345 7603   2.964   7.944   6.379  0.2670  0.2463 -0.0814
   20MOL   O346 7604   2.843   8.011   6.401  1.0290 -0.0261 -0.0499
   20MOL   C347 7605   3.061   8.034   6.317 -0.0902  0.2446  0.5711
   20MOL   O348 7606   3.128   8.105   6.416 -0.2146 -0.5325 -0.1442
   20MOL   C349 7607   3.136   0.072   6.422  0.0123  0.5632  0.0133
   20MOL   C350 7608   3.176   0.143   6.307 -0.6406 -0.2151 -0.0582
   20MOL   C351 7609   3.202   0.279   6.322  0.4708 -0.1671 -0.0014
   20MOL   C352 7610   3.180   0.351   6.445  0.1232 -0.0882 -0.9303
   20MOL   C353 7611   3.118   0.278   6.550 -0.3307  0.2999 -0.2828
   20MOL   C354 7612   3.092   0.137   6.540 -0.1159 -0.3477  0.3388
   20MOL   H355 7613   2.783   7.822   6.361 -0.9632  0.2015  0.2317
   20MOL   H356 7614   3.000   7.892   6.468 -0.1226  1.1718  0.6296
   20MOL   H357 7615   3.014   8.091   6.236 -0.0295 -1.7944 -0.9427
   20MOL   H358 7616   3.138   7.973   6.269 -2.1360 -1.5058 -0.5351
   20MOL   H359 7617   3.204   0.090   6.217  0.5011  0.4918 -0.1266
   20MOL   H360 7618   3.238   0.336   6.238  1.5066  1.6194  1.6033
   20MOL   H361 7619   3.205   0.455   6.462  2.1803 -0.7400  0.1194
   20MOL   H362 7620   3.090   0.332   6.640  0.4184  2.0004 -1.0556
   20MOL   C363 7621   3.017   0.052   6.638 -0.5708 -0.3387 -0.0961
   20MOL   C364 7622   3.077   0.016   6.778  0.1433  0.2444  0.3123
   20MOL   O365 7623   2.982   0.123   6.752  0.0495  0.3532 -0.3184
   20MOL   C366 7624   3.221   0.060   6.819  0.3612 -0.0771  0.2763
   20MOL   O367 7625   3.232   0.018   6.956 -0.2541 -0.7588 -0.2630
   20MOL   C368 7626   3.271   8.064   6.992  0.2722 -0.9848 -0.3704
   20MOL   C369 7627   3.328   7.969   6.908 -0.3913  0.3045  0.5451
   20MOL   C370 7628   3.349   7.833   6.947 -0.3313 -0.6122 -0.0528
   20MOL   C371 7629   3.320   7.799   7.083  0.2187  0.1337 -0.2057
   20MOL   C372 7630   3.259   7.891   7.167  0.2886  0.6911 -0.1683
   20MOL   C373 7631   3.232   8.025   7.125  0.5663  0.1509  0.1326
   20MOL   H374 7632   2.940   8.157   6.597  1.7271 -1.0625 -3.5318
   20MOL   H375 7633   3.038   8.105   6.839  1.6416 -0.7715 -0.0641
   20MOL   H376 7634   3.237   0.168   6.822 -1.7011  0.2050  1.8480
   20MOL   H377 7635   3.290   0.018   6.746 -0.6759 -0.7830 -0.3235
   20MOL   H378 7636   3.353   7.995   6.806 -1.9063 -3.0996 -0.7891
   20MOL   H379 7637   3.396   7.755   6.889  1.1408 -2.1435  3.0615
   20MOL   H380 7638   3.346   7.703   7.125  0.9615 -0.3657 -1.7447
   20MOL   H381 7639   3.227   7.865   7.267 -0.2385  1.4361 -0.1316
   20MOL   H382 7640   3.177   8.094   7.187  2.5510  0.7120  1.2779
   21MOL     C1 7641   4.147   0.693   8.099  0.4717 -0.5153  0.3536
   21MOL     C2 7642   4.293   0.710   8.047 -0.1527  0.3657  0.0788
   21MOL     O3 7643   4.204   0.813   8.090 -0.2619  1.0059  0.0933
   21MOL     C4 7644   4.342   0.725   7.910  0.5070  0.1158  0.7977
   21MOL     O5 7645   4.462   0.805   7.888  0.4111  0.1913  0.1675
   21MOL     C6 7646   4.456   0.941   7.888 -0.5959 -0.6304  0.8592
   21MOL     C7 7647   4.340   1.013   7.909  0.6234  0.1805  0.0466
   21MOL     C8 7648   4.346   1.151   7.915  0.4274 -0.3481 -0.1354
   21MOL     C9 7649   4.466   1.213   7.919  0.6129  0.2084  0.7214
   21MOL    C10 7650   4.583   1.140   7.885  0.1796  0.4433  0.2923
   21MOL    C11 7651   4.578   1.003   7.863  0.4820 -0.2809 -0.2486
   21MOL    H12 7652   4.125   0.662   0.031 -0.3537 -0.8328  0.0855
   21MOL    H13 7653   4.373   0.691   8.118 -0.0137  2.5040  0.5015
   21MOL    H14 7654   4.256   0.761   7.854 -0.1916  0.8983  2.3565
   21MOL    H15 7655   4.369   0.630   7.863 -1.6337 -0.8384  1.4355
   21MOL    H16 7656   4.250   0.960   7.937  0.9552  0.0893  0.9591
   21MOL    H17 7657   4.258   1.212   7.927 -1.0269 -2.4970  0.4110
   21MOL    H18 7658   4.482   1.311   7.961 -0.1220  1.2097 -1.2515
   21MOL    H19 7659   4.677   1.192   7.901  0.5004 -0.6940  2.2247
   21MOL    H20 7660   4.062   0.684   8.031 -0.4306 -0.2091  1.4095
   21MOL    C21 7661   4.698   0.911   7.843  0.5496 -0.1528 -0.3969
   21MOL    C22 7662   4.782   0.913   7.723  0.4042 -0.2209  0.6252
   21MOL    O23 7663   4.818   0.982   7.845 -1.0783 -0.4342  0.4383
   21MOL    C24 7664   4.759   1.014   7.618  0.2179  0.1327  0.4793
   21MOL    O25 7665   4.878   1.013   7.543 -0.2160  0.8948  0.7926
   21MOL    C26 7666   4.873   1.060   7.416 -0.2395  0.1323  0.9763
   21MOL    C27 7667   4.766   1.137   7.359  0.1912 -0.0438 -0.5188
   21MOL    C28 7668   4.764   1.174   7.226  0.0063 -0.2614  0.0371
   21MOL    C29 7669   4.866   1.143   7.139  0.1744 -0.6356 -0.2729
   21MOL    C30 7670   4.981   1.079   7.194  0.5271 -0.1366 -0.2056
   21MOL    C31 7671   4.981   1.035   7.330 -0.7843 -0.1386 -0.3109
   21MOL    H32 7672   4.705   0.846   7.930  0.8793 -0.4053 -0.6085
   21MOL    H33 7673   4.841   0.826   7.696 -0.4765 -0.9248  0.9502
   21MOL    H34 7674   4.735   1.116   7.648  0.7812  1.2268 -2.6430
   21MOL    H35 7675   4.672   0.986   7.558  1.2054  0.6873 -1.2456
   21MOL    H36 7676   4.677   1.158   7.417  0.1699  1.1729 -0.9680
   21MOL    H37 7677   4.683   1.239   7.196  1.4708  1.3889 -0.4250
   21MOL    H38 7678   4.850   1.165   7.035  0.0884 -1.5661 -0.4577
   21MOL    H39 7679   5.066   1.059   7.130  1.8195  1.4718  0.9640
   21MOL    C40 7680   5.097   0.947   7.379 -0.3268 -0.1642 -0.3659
   21MOL    C41 7681   5.078   0.794   7.402  0.3769 -0.0330  0.1416
   21MOL    O42 7682   5.140   0.848   7.286  0.0612 -0.3282  0.3468
   21MOL    C43 7683   4.940   0.726   7.385  0.5868 -0.0693 -0.0347
   21MOL    O44 7684   4.941   0.587   7.398  0.0238  0.0879 -0.3454
   21MOL    C45 7685   4.937   0.520   7.516  0.1384 -0.2826  0.0068
   21MOL    C46 7686   4.976   0.582   7.637  0.6381 -0.3551 -0.7190
   21MOL    C47 7687   4.972   0.500   7.750  0.0761 -0.1268 -0.0750
   21MOL    C48 7688   4.933   0.363   7.745  0.9515 -0.7453  0.1362
   21MOL    C49 7689   4.892   0.302   7.620 -0.5401  0.2060  0.8179
   21MOL    C50 7690   4.894   0.386   7.508 -0.3889  0.1551 -0.4386
   21MOL    H51 7691   5.181   1.003   7.419  1.2892 -0.9639 -2.4971
   21MOL    H52 7692   5.142   0.747   7.476 -0.5395  0.7215  1.4146
   21MOL    H53 7693   4.903   0.757   7.287 -2.4209  1.9542  1.6442
   21MOL    H54 7694   4.879   0.774   7.462  1.1475  0.9615 -0.2235
   21MOL    H55 7695   4.994   0.688   7.648 -1.0867  0.0768 -1.9484
   21MOL    H56 7696   5.005   0.547   7.841 -0.7281  0.9775 -0.3418
   21MOL    H57 7697   4.921   0.297   7.830  1.7059  0.3338  1.1025
   21MOL    H58 7698   4.864   0.198   7.621 -1.0686  0.3240 -0.2983
   21MOL    C59 7699   4.845   0.329   7.379  0.4315 -0.1414 -0.0109
   21MOL    C60 7700   4.907   0.215   7.300  0.6516  0.0295 -0.2891
   21MOL    O61 7701   4.796   0.199   7.389 -0.3061 -0.5864 -0.1311
   21MOL    C62 7702   5.022   0.135   7.357  0.9715  0.0242  0.3372
   21MOL    O63 7703   5.134   0.222   7.350 -0.6406 -0.8005 -0.3663
   21MOL    C64 7704   5.182   0.265   7.228  0.2729  0.8407 -0.4978
   21MOL    C65 7705   5.155   0.202   7.102  0.3873 -0.3879 -0.3377
   21MOL    C66 7706   5.206   0.248   6.981 -0.1543  0.0197  0.3930
   21MOL    C67 7707   5.294   0.358   6.989 -0.2461  0.1968 -0.3245
   21MOL    C68 7708   5.311   0.432   7.104 -0.6192  0.0932  0.1910
   21MOL    C69 7709   5.260   0.382   7.227  0.3710  0.0495 -0.4122
   21MOL    H70 7710   4.773   0.390   7.324 -0.8740  0.9191  2.7582
   21MOL    H71 7711   4.888   0.208   7.193 -2.3902 -1.0150  0.2646
   21MOL    H72 7712   5.039   0.041   7.305  1.6617  1.7887 -2.7218
   21MOL    H73 7713   5.017   0.114   7.464  0.7074 -1.3703  0.0563
   21MOL    H74 7714   5.088   0.118   7.091 -2.3232  2.1013 -4.1376
   21MOL    H75 7715   5.180   0.213   6.882  0.3617  1.0867 -0.1231
   21MOL    H76 7716   5.338   0.394   6.898 -1.1766 -0.0215 -0.8667
   21MOL    H77 7717   5.379   0.514   7.088  2.5900 -2.3543  0.7264
   21MOL    C78 7718   5.268   0.456   7.352 -0.2677 -0.5097  0.7986
   21MOL    C79 7719   5.407   0.483   7.420  0.2485  0.9927 -0.0692
   21MOL    O80 7720   5.341   0.579   7.333 -0.2207 -0.5271 -0.2819
   21MOL    C81 7721   5.534   0.447   7.354 -0.1206  0.3536  0.5345
   21MOL    O82 7722   5.654   0.469   7.430  0.1206  0.2163  0.0055
   21MOL    C83 7723   5.673   0.590   7.496 -0.4174 -0.3639  0.0818
   21MOL    C84 7724   5.609   0.709   7.456  0.9001 -1.0409 -0.0314
   21MOL    C85 7725   5.619   0.825   7.539  0.1842 -0.3183 -0.2517
   21MOL    C86 7726   5.692   0.826   7.660  0.0704 -0.5044  0.0269
   21MOL    C87 7727   5.762   0.710   7.699 -0.4451 -0.2783  1.3914
   21MOL    C88 7728   5.752   0.596   7.619 -0.4308 -0.7006  0.6686
   21MOL    H89 7729   5.169   0.468   7.394  1.1608  2.6946  3.5443
   21MOL    H90 7730   5.392   0.485   7.528 -3.1980  1.4018 -0.4848
   21MOL    H91 7731   5.547   0.500   7.260  1.7710  0.3184  0.7440
   21MOL    H92 7732   5.535   0.340   7.338 -1.3491  0.3872  0.1857
   21MOL    H93 7733   5.555   0.719   7.363 -0.6978  0.1410  1.0016
   21MOL    H94 7734   5.575   0.922   7.523  0.1047 -0.5526 -1.5091
   21MOL    H95 7735   5.698   0.911   7.726 -0.4803  0.0727 -0.6714
   21MOL    H96 7736   5.823   0.699   7.787  1.5182 -3.6332 -0.2838
   21MOL    C97 7737   5.815   0.464   7.656  0.2065  0.0225  0.1382
   21MOL    C98 7738   5.925   0.400   7.569 -0.8940 -0.6254  0.2890
   21MOL    O99 7739   5.955   0.479   7.688  0.0306  0.0720  0.4845
   21MOL   C100 7740   5.978   0.457   7.439 -0.6436 -0.0686  0.9484
   21MOL   O101 7741   6.121   0.445   7.441  0.1739  0.2233  0.1701
   21MOL   C102 7742   6.177   0.560   7.381 -0.2408  0.0273 -0.3454
   21MOL   C103 7743   6.212   0.544   7.247 -0.3703  0.3814 -0.1415
   21MOL   C104 7744   6.268   0.649   7.174  0.5875  0.2173  0.4568
   21MOL   C105 7745   6.290   0.774   7.234  0.2198 -0.2451  0.3895
   21MOL   C106 7746   6.259   0.791   7.373 -0.7532 -0.5222  0.6461
   21MOL   C107 7747   6.198   0.686   7.440 -0.2299  0.3756  0.0918
   21MOL   H108 7748   5.755   0.407   7.726  0.9808 -1.2782 -0.2271
   21MOL   H109 7749   5.937   0.293   7.582  0.8656 -0.5938 -1.0196
   21MOL   H110 7750   5.945   0.560   7.430  0.3677  0.2780  1.1722
   21MOL   H111 7751   5.930   0.403   7.357 -1.6901  1.5322  0.4912
   21MOL   H112 7752   6.195   0.451   7.196  1.6511  0.1373 -0.4229
   21MOL   H113 7753   6.288   0.635   7.068 -1.2379  0.2793  0.0888
   21MOL   H114 7754   6.331   0.848   7.168 -1.1677 -1.9888 -2.5106
   21MOL   H115 7755   6.290   0.877   7.430 -1.5361 -0.0336  0.3529
   21MOL   C116 7756   6.149   0.711   7.575 -0.0390  0.7291  0.0316
   21MOL   C117 7757   6.208   0.637   7.693  0.1222 -0.5837 -0.2686
   21MOL   O118 7758   6.258   0.764   7.652 -0.3857  0.4104 -0.1288
   21MOL   C119 7759   6.322   0.530   7.692  0.0541 -0.3214 -0.6997
   21MOL   O120 7760   6.359   0.520   7.828 -0.5067 -0.3552  0.1941
   21MOL   C121 7761   6.410   0.400   7.870 -0.2681  0.0621 -0.4993
   21MOL   C122 7762   6.471   0.309   7.779  0.0499  0.2152 -0.4334
   21MOL   C123 7763   6.520   0.186   7.810 -0.4287 -0.3557  0.1829
   21MOL   C124 7764   6.509   0.154   7.944  0.0129  1.1478  0.1190
   21MOL   C125 7765   6.451   0.237   8.040 -0.2718  0.1176 -0.4434
   21MOL   C126 7766   6.413   0.365   8.003  0.4855 -0.3256 -0.0608
   21MOL   H127 7767   6.064   0.779   7.580  0.7274  1.8024 -1.2709
   21MOL   H128 7768   6.146   0.638   7.782 -0.8836  0.5217 -0.9625
   21MOL   H129 7769   6.403   0.573   7.634 -0.5664  2.4574  0.4171
   21MOL   H130 7770   6.291   0.438   7.642  0.9218  0.8378 -3.4480
   21MOL   H131 7771   6.485   0.343   7.678 -0.9652  2.2825  0.0799
   21MOL   H132 7772   6.580   0.129   7.741 -0.4453  1.3937 -1.3396
   21MOL   H133 7773   6.560   0.066   7.980  1.1687  1.8677  0.2716
   21MOL   H134 7774   6.445   0.193   8.139  3.0446  0.3920 -0.0399
   21MOL   C135 7775   6.352   0.459   8.104 -0.8524  0.0783  0.0417
   21MOL   C136 7776   6.208   0.484   8.122 -0.2827 -0.5906 -0.0941
   21MOL   O137 7777   6.278   0.376   0.019 -0.3196 -0.2593 -0.1228
   21MOL   C138 7778   6.088   0.431   8.046  0.8887  0.4931 -0.4052
   21MOL   O139 7779   5.951   0.462   8.088 -0.2324 -0.5360  0.1440
   21MOL   C140 7780   5.889   0.583   8.063  0.5781 -0.0124 -0.6622
   21MOL   C141 7781   5.960   0.697   8.019  0.1454 -0.1627 -0.5524
   21MOL   C142 7782   5.886   0.819   8.015  0.0453 -0.7679  0.4573
   21MOL   C143 7783   5.749   0.815   8.046 -0.2655  0.0590 -0.0134
   21MOL   C144 7784   5.684   0.704   8.081 -0.5948  0.2377 -0.8860
   21MOL   C145 7785   5.752   0.586   8.091 -0.5865 -0.5673  0.1623
   21MOL   H146 7786   6.430   0.504   8.166 -0.2998 -0.1985 -0.4462
   21MOL   H147 7787   6.181   0.561   0.025 -0.8823 -2.6354  1.9280
   21MOL   H148 7788   6.093   0.324   8.022  2.1307  0.4621 -0.0562
   21MOL   H149 7789   6.103   0.468   7.944  3.0358  2.1210  0.4500
   21MOL   H150 7790   6.066   0.698   7.999  0.5807  0.0411  1.6350
   21MOL   H151 7791   5.946   0.908   7.998 -0.1035 -0.9481 -1.0413
   21MOL   H152 7792   5.683   0.899   8.029 -0.0702  0.0534 -0.8111
   21MOL   H153 7793   5.579   0.702   8.105 -1.1652 -0.6820 -3.3110
   21MOL   C154 7794   5.677   0.468   8.133 -0.3621  0.7173  0.6238
   21MOL   C155 7795   5.697   0.406   0.096 -0.1754  0.6096  0.4175
   21MOL   O156 7796   5.580   0.477   0.068  0.5822  0.4820  0.1348
   21MOL   C157 7797   5.782   0.472   0.201 -0.4068 -0.2687  0.0284
   21MOL   O158 7798   5.709   0.475   0.325  0.2786 -0.2771  0.7196
   21MOL   C159 7799   5.692   0.356   0.387 -0.3878 -0.0255  0.5941
   21MOL   C160 7800   5.797   0.262   0.403  0.6908  0.4328  0.9713
   21MOL   C161 7801   5.777   0.143   0.475  0.3483 -0.2360  0.4260
   21MOL   C162 7802   5.648   0.118   0.533  1.0146  0.4561 -0.3675
   21MOL   C163 7803   5.541   0.205   0.519 -0.4758  0.0544 -0.0456
   21MOL   C164 7804   5.564   0.322   0.443 -0.5604 -0.4416  0.2688
   21MOL   H165 7805   5.643   0.401   8.054  1.2454  0.7238 -0.0879
   21MOL   H166 7806   5.683   0.298   0.098  0.1220  0.5241 -1.2545
   21MOL   H167 7807   5.810   0.574   0.174  1.5408 -0.4897  1.1043
   21MOL   H168 7808   5.877   0.422   0.219 -1.0732 -0.6812  2.6228
   21MOL   H169 7809   5.889   0.279   0.349 -0.6224 -1.9763 -2.2276
   21MOL   H170 7810   5.857   0.072   0.461 -1.5134 -2.2444 -0.2394
   21MOL   H171 7811   5.637   0.022   0.582 -0.6962  1.6941  1.7553
   21MOL   H172 7812   5.446   0.179   0.563 -0.7971  0.0067 -0.7589
   21MOL   C173 7813   5.447   0.413   0.414  0.0404 -0.1650 -0.0611
   21MOL   C174 7814   5.335   0.383   0.311 -0.1025  0.6567  0.2048
   21MOL   O175 7815   5.322   0.348   0.450  0.1677  0.0511 -0.3161
   21MOL   C176 7816   5.357   0.280   0.202 -0.0317 -0.1804 -0.0513
   21MOL   O177 7817   5.236   0.221   0.169  0.3193 -0.3377 -1.2379
   21MOL   C178 7818   5.243   0.099   0.114  0.3126  0.5322  0.2054
   21MOL   C179 7819   5.248   0.082   8.142  0.1640  0.9950 -0.6088
   21MOL   C180 7820   5.255   8.121   8.086 -0.0804 -0.3815 -0.5127
   21MOL   C181 7821   5.251   8.004   8.167 -0.0629 -0.0938 -0.4151
   21MOL   C182 7822   5.244   8.023   0.133 -0.2146 -0.3105  0.1587
   21MOL   C183 7823   5.228   8.150   0.190 -1.0187 -0.3183  0.3276
   21MOL   H184 7824   5.458   0.514   0.453  0.9696 -0.3084  0.0604
   21MOL   H185 7825   5.258   0.457   0.287 -1.6631 -0.6197  1.1765
   21MOL   H186 7826   5.429   0.203   0.231  1.1126  0.5854 -0.8271
   21MOL   H187 7827   5.388   0.337   0.115  1.4523 -2.3762 -0.9950
   21MOL   H188 7828   5.266   0.174   8.088  0.5245  1.2075 -0.1359
   21MOL   H189 7829   5.265   8.107   7.980 -0.3155  0.3252 -0.6293
   21MOL   H190 7830   5.259   7.904   8.127 -0.1839 -0.2403 -0.0777
   21MOL   H191 7831   5.254   7.943   0.204  1.0008 -1.5499 -1.3745
   21MOL   C192 7832   5.210   0.009   0.338  1.0479  0.5518  0.4532
   21MOL   C193 7833   5.083   8.150   0.423  0.3466 -0.4041  0.6820
   21MOL   O194 7834   5.191   8.062   0.407  0.4198  0.4149  0.1391
   21MOL   C195 7835   4.951   8.097   0.365 -0.0846  0.4359 -0.0512
   21MOL   O196 7836   4.883   8.015   0.453  0.8347 -0.5935 -0.2582
   21MOL   C197 7837   4.845   8.063   0.578  0.0936  0.3486  0.4480
   21MOL   C198 7838   4.825   0.031   0.601 -0.9213 -0.6635 -0.2362
   21MOL   C199 7839   4.796   0.083   0.733  0.8119  0.1643 -0.0348
   21MOL   C200 7840   4.785   8.162   0.836 -0.1539 -0.3120 -0.8310
   21MOL   C201 7841   4.808   8.026   0.814  0.2374  0.2273  0.2094
   21MOL   C202 7842   4.833   7.973   0.685 -0.5953  0.5167  0.0345
   21MOL   H203 7843   5.291   0.067   0.383  0.6264  0.1100  1.7707
   21MOL   H204 7844   5.074   0.031   0.519 -0.7690 -1.6143  1.2401
   21MOL   H205 7845   4.971   8.040   0.275  1.5711 -0.3283  0.7953
   21MOL   H206 7846   4.885   0.014   0.350  0.0791  0.8527  1.5230
   21MOL   H207 7847   4.834   0.109   0.527  3.2623  0.3493  1.2202
   21MOL   H208 7848   4.773   0.186   0.753 -0.9102  0.1090 -1.6014
   21MOL   H209 7849   4.776   0.031   0.936 -0.7095 -1.6832 -0.3435
   21MOL   H210 7850   4.802   7.953   0.894  2.2979 -1.1437 -0.8501
   21MOL   C211 7851   4.854   7.830   0.653  0.1862 -0.7425 -0.5140
   21MOL   C212 7852   4.988   7.757   0.679  0.4936 -0.1470  0.6164
   21MOL   O213 7853   4.882   7.763   0.775  0.1091  0.7839 -0.3647
   21MOL   C214 7854   5.117   7.829   0.712  0.3605 -0.2842  0.5155
   21MOL   O215 7855   5.211   7.726   0.726  0.9482 -0.6836  0.4178
   21MOL   C216 7856   5.345   7.759   0.725 -0.1112 -0.0492 -0.2783
   21MOL   C217 7857   5.400   7.876   0.670 -0.7367 -0.1104  0.7259
   21MOL   C218 7858   5.541   7.905   0.680  0.3471  0.0419 -0.9786
   21MOL   C219 7859   5.627   7.809   0.742  0.1428 -0.5468  0.1804
   21MOL   C220 7860   5.568   7.687   0.782  0.4073  0.1283 -0.6049
   21MOL   C221 7861   5.430   7.658   0.774 -0.4182 -0.6024  0.3006
   21MOL   H222 7862   4.775   7.778   0.597  1.2192 -2.0054 -0.8327
   21MOL   H223 7863   4.997   7.663   0.624  0.1845 -0.4576  1.0988
   21MOL   H224 7864   5.118   7.896   0.798  1.5395  0.8418 -0.3597
   21MOL   H225 7865   5.142   7.889   0.625  3.0618 -0.8757  0.8295
   21MOL   H226 7866   5.336   7.948   0.621  1.4522  0.4907 -1.3542
   21MOL   H227 7867   5.573   7.998   0.636  1.2716 -0.1121 -0.6436
   21MOL   H228 7868   5.734   7.824   0.746  0.0144  1.1176 -1.6166
   21MOL   H229 7869   5.639   7.611   0.811 -1.6505 -0.6672  2.6176
   21MOL   C230 7870   5.378   7.519   0.803  0.0952  0.4245  0.4502
   21MOL   C231 7871   5.429   7.388   0.741 -0.4753 -0.8851  0.1618
   21MOL   O232 7872   5.476   7.437   0.861 -0.3785 -0.0793  0.1693
   21MOL   C233 7873   5.531   7.379   0.626  0.5303  0.4641 -0.3888
   21MOL   O234 7874   5.595   7.251   0.625 -0.6200 -0.7555 -0.7263
   21MOL   C235 7875   5.536   7.142   0.564 -0.2121 -0.6345  1.0655
   21MOL   C236 7876   5.409   7.141   0.495 -0.4409 -0.7797  0.0320
   21MOL   C237 7877   5.355   7.020   0.441  0.1287  0.0302  0.1199
   21MOL   C238 7878   5.416   6.897   0.473  0.5437 -0.1428 -0.2668
   21MOL   C239 7879   5.547   6.903   0.523 -0.2834  0.5146 -0.0051
   21MOL   C240 7880   5.601   7.020   0.572  0.1055 -0.6455  0.6721
   21MOL   H241 7881   5.294   7.510   0.872 -0.3354 -1.6163 -0.3101
   21MOL   H242 7882   5.353   7.311   0.738  0.3487 -1.8127  2.1143
   21MOL   H243 7883   5.608   7.456   0.637  0.7574  0.0637  0.8097
   21MOL   H244 7884   5.487   7.401   0.529 -0.0643 -0.5895 -0.3667
   21MOL   H245 7885   5.360   7.237   0.482 -0.6542 -0.5408  2.4394
   21MOL   H246 7886   5.264   7.028   0.383  0.2431  2.1364  0.1820
   21MOL   H247 7887   5.379   6.802   0.437  2.4705 -1.3026  0.7301
   21MOL   H248 7888   5.593   6.807   0.539 -2.3398 -0.4171  0.4954
   21MOL   C249 7889   5.735   7.007   0.632 -0.2949  0.0378 -0.1813
   21MOL   C250 7890   5.760   7.046   0.780  0.7143 -1.2602 -0.6434
   21MOL   O251 7891   5.747   6.916   0.744  0.0093  0.6969 -0.0058
   21MOL   C252 7892   5.651   7.091   0.873 -0.3039  0.6044 -0.4072
   21MOL   O253 7893   5.693   7.074   1.006 -0.5895  0.3496 -0.0159
   21MOL   C254 7894   5.680   7.172   1.103 -0.0812 -0.1264 -0.8086
   21MOL   C255 7895   5.668   7.312   1.069  0.5616  0.4527 -0.1435
   21MOL   C256 7896   5.645   7.405   1.176 -0.7349  0.2057 -0.1877
   21MOL   C257 7897   5.636   7.361   1.312  0.2966 -0.2445  0.4633
   21MOL   C258 7898   5.646   7.225   1.343  0.1079  0.0306 -0.0171
   21MOL   C259 7899   5.672   7.130   1.237  0.8887 -0.1972  0.1588
   21MOL   H260 7900   5.813   6.988   0.558  1.3678  2.5576  0.8301
   21MOL   H261 7901   5.860   7.075   0.810  0.2556 -0.7969  0.4477
   21MOL   H262 7902   5.573   7.015   0.868 -1.1237  1.4112  0.0202
   21MOL   H263 7903   5.600   7.183   0.847 -0.7406  0.5954  0.4050
   21MOL   H264 7904   5.667   7.347   0.967 -0.5628  0.8874  0.0083
   21MOL   H265 7905   5.630   7.506   1.139  0.3631  0.9492  1.3458
   21MOL   H266 7906   5.617   7.432   1.391 -1.4622 -0.9687  0.7007
   21MOL   H267 7907   5.637   7.198   1.447  0.6406 -1.2064 -0.2804
   21MOL   C268 7908   5.677   6.976   1.262  0.4782  1.4650  0.0126
   21MOL   C269 7909   5.782   6.913   1.347 -0.4966  0.4969 -0.1010
   21MOL   O270 7910   5.656   6.958   1.406  0.2339 -0.0061  0.9369
   21MOL   C271 7911   5.909   6.973   1.393 -0.0220 -0.2536  0.3887
   21MOL   O272 7912   5.996   7.000   1.282  0.2211 -0.2057  0.1661
   21MOL   C273 7913   6.070   6.895   1.230 -0.7068 -0.6828 -0.3075
   21MOL   C274 7914   6.086   6.768   1.295 -0.1737 -0.5617 -0.3602
   21MOL   C275 7915   6.162   6.670   1.231 -0.0715  0.7769  0.4106
   21MOL   C276 7916   6.214   6.684   1.101  0.1740 -0.6675 -1.3019
   21MOL   C277 7917   6.194   6.809   1.036 -0.0784  0.3225 -0.6986
   21MOL   C278 7918   6.130   6.921   1.104  0.3693 -0.0848 -0.6087
   21MOL   H279 7919   5.631   6.909   1.190  2.1865 -0.0448  0.2792
   21MOL   H280 7920   5.783   6.805   1.344  0.3400  0.5039 -0.3522
   21MOL   H281 7921   5.947   6.925   1.483  1.5317 -0.9067 -0.6008
   21MOL   H282 7922   5.863   7.067   1.423  1.0626  1.1589 -2.1731
   21MOL   H283 7923   6.051   6.755   1.397  0.6376  1.0914  0.1372
   21MOL   H284 7924   6.181   6.577   1.282  0.7960  0.6805 -0.0722
   21MOL   H285 7925   6.268   6.600   1.058  0.6407 -0.8855 -0.2975
   21MOL   H286 7926   6.225   6.828   0.935 -1.2757 -0.4689 -1.2245
   21MOL   C287 7927   6.106   7.053   1.032 -0.3982  0.4194  0.5897
   21MOL   C288 7928   6.187   7.177   1.060 -0.7750  0.2830  0.7928
   21MOL   O289 7929   6.229   7.095   0.953 -0.1024 -0.6217  0.2638
   21MOL   C290 7930   6.272   7.202   1.183 -0.5792  0.4738 -0.0495
   21MOL   O291 7931   6.352   7.321   1.178 -0.8808 -0.0387 -0.1206
   21MOL   C292 7932   6.435   7.358   1.082 -0.1968  0.1509  0.4008
   21MOL   C293 7933   6.486   7.266   0.982  0.3333 -0.0051  0.4304
   21MOL   C294 7934   6.569   7.308   0.876  0.1881 -0.7693 -0.0062
   21MOL   C295 7935   6.615   7.444   0.871  0.2466 -0.3120 -0.3098
   21MOL   C296 7936   6.568   7.534   0.973 -0.1180  0.7978 -0.1906
   21MOL   C297 7937   6.480   7.493   1.075 -0.2236 -0.4284  0.1520
   21MOL   H298 7938   6.012   7.071   0.981  0.8748 -1.7517 -2.7467
   21MOL   H299 7939   6.147   7.273   1.031 -0.2875 -0.3130 -2.0242
   21MOL   H300 7940   6.340   7.118   1.193 -2.8633 -1.2313  1.5414
   21MOL   H301 7941   6.209   7.201   1.272  0.3085 -1.1935  0.5827
   21MOL   H302 7942   6.463   7.161   0.983  1.4941 -0.3241 -2.1202
   21MOL   H303 7943   6.592   7.235   0.800 -0.4962 -0.6959 -0.2865
   21MOL   H304 7944   6.680   7.479   0.792  0.1767  0.8337  0.1310
   21MOL   H305 7945   6.601   7.637   0.975  0.1581  0.7017  0.3737
   21MOL   C306 7946   6.440   7.595   1.171  0.7025 -0.0499 -0.0551
   21MOL   C307 7947   6.532   7.627   1.294 -0.3144  0.0922 -0.1908
   21MOL   O308 7948   6.519   7.712   1.180 -0.6039 -0.5487  0.0163
   21MOL   C309 7949   6.672   7.584   1.329 -0.4818  0.4136  0.0677
   21MOL   O310 7950   6.730   7.673   1.430  0.3358  0.0703 -0.2345
   21MOL   C311 7951   6.858   7.637   1.478 -0.1983  0.2924 -0.2670
   21MOL   C312 7952   6.906   7.509   1.476 -0.7586  0.0663  0.3137
   21MOL   C313 7953   7.042   7.481   1.518 -0.6199  0.8587  0.1398
   21MOL   C314 7954   7.123   7.582   1.570  0.1531 -0.4444 -0.0434
   21MOL   C315 7955   7.067   7.711   1.585 -0.4239  0.0357  0.5619
   21MOL   C316 7956   6.938   7.737   1.538  0.1647 -0.3753  0.4747
   21MOL   H317 7957   6.333   7.611   1.175  0.8715  0.7525  3.0942
   21MOL   H318 7958   6.479   7.652   1.386 -1.4923  1.5532 -1.2352
   21MOL   H319 7959   6.726   7.612   1.239 -1.5517  1.3975 -0.2771
   21MOL   H320 7960   6.666   7.477   1.348 -2.0154  0.6775  1.1709
   21MOL   H321 7961   6.851   7.420   1.449  1.6109 -0.8906 -1.5966
   21MOL   H322 7962   7.080   7.379   1.517 -1.6524  0.4595  0.5191
   21MOL   H323 7963   7.224   7.559   1.599  0.0530 -2.1666 -1.0106
   21MOL   H324 7964   7.123   7.790   1.633 -1.3007  1.5761 -0.8565
   21MOL   C325 7965   6.893   7.880   1.548  0.2923 -0.3747 -1.1642
   21MOL   C326 7966   6.787   7.937   1.640 -0.1264  0.8871 -0.7627
   21MOL   O327 7967   6.932   7.941   1.674 -0.4334  0.4531  0.3873
   21MOL   C328 7968   6.698   7.847   1.724  0.2948  0.1199 -0.6140
   21MOL   O329 7969   6.664   7.907   1.854  0.3247 -0.0855 -0.2359
   21MOL   C330 7970   6.763   7.929   1.945  0.1438  0.3060  0.1751
   21MOL   C331 7971   6.879   7.853   1.950  0.1645 -0.2259 -0.5266
   21MOL   C332 7972   6.979   7.884   2.040  0.3974 -0.5461  0.3448
   21MOL   C333 7973   6.973   7.997   2.125  0.4780 -0.2959  0.2412
   21MOL   C334 7974   6.848   8.069   2.130 -0.0040 -0.4862  0.1401
   21MOL   C335 7975   6.748   8.037   2.037 -0.0778 -0.0359 -0.9012
   21MOL   H336 7976   6.922   7.944   1.464  0.8257 -0.0600 -0.7446
   21MOL   H337 7977   6.756   8.039   1.620 -3.9035 -0.0615 -0.1222
   21MOL   H338 7978   6.737   7.746   1.734  1.9978  0.8218 -0.0818
   21MOL   H339 7979   6.603   7.832   1.673 -0.0842  1.0727 -0.2063
   21MOL   H340 7980   6.903   7.773   1.882  2.7745 -1.3082  1.5930
   21MOL   H341 7981   7.079   7.843   2.034  2.2333  3.3491  2.4933
   21MOL   H342 7982   7.053   8.021   2.194  0.8805 -2.5998  0.6172
   21MOL   H343 7983   6.834   8.150   2.200  1.4335 -0.5487  0.5341
   21MOL   C344 7984   6.620   8.121   2.045 -0.7723  0.1379 -0.1272
   21MOL   C345 7985   6.523   8.107   2.163  0.6724 -0.1737 -0.0496
   21MOL   O346 7986   6.607   0.050   2.150 -0.1390 -0.5255  0.3756
   21MOL   C347 7987   6.554   8.028   2.285 -0.0430 -0.9377 -0.0840
   21MOL   O348 7988   6.481   8.098   2.395 -0.2389  0.3690 -0.0353
   21MOL   C349 7989   6.539   8.095   2.520 -0.3595  0.2674 -0.0060
   21MOL   C350 7990   6.634   8.001   2.555 -0.4592 -0.8543 -0.5196
   21MOL   C351 7991   6.689   7.999   2.688  0.3658 -1.1582  0.8212
   21MOL   C352 7992   6.647   8.097   2.781  0.6626 -0.2233  0.6641
   21MOL   C353 7993   6.547   0.020   2.740 -0.0867 -0.7953 -0.1799
   21MOL   C354 7994   6.490   0.026   2.614  0.0945  0.2063 -0.4975
   21MOL   H355 7995   6.595   8.154   1.945  1.7405  1.7783 -0.2323
   21MOL   H356 7996   6.417   8.110   2.139 -0.8379 -1.6340  5.6681
   21MOL   H357 7997   6.662   8.031   2.304  0.1044  1.4142 -1.1389
   21MOL   H358 7998   6.499   7.934   2.288 -1.8393  0.1444  1.9889
   21MOL   H359 7999   6.669   7.928   2.483 -0.5140 -2.0912  0.6981
   21MOL   H360 8000   6.757   7.918   2.710 -0.8499 -2.1456  1.0000
   21MOL   H361 8001   6.682   8.094   2.883  0.7448 -3.2025  0.6121
   21MOL   H362 8002   6.513   0.091   2.815  2.0176 -0.0215  0.0954
   21MOL   C363 8003   6.384   0.125   2.586 -0.7427  0.4378 -0.2229
   21MOL   C364 8004   6.237   0.096   2.590 -0.3138 -0.4220 -0.2989
   21MOL   O365 8005   6.306   0.167   2.698 -0.0345 -0.3617 -0.2944
   21MOL   C366 8006   6.173   8.134   2.636 -0.4705  0.3904 -0.7121
   21MOL   O367 8007   6.047   8.108   2.584  0.1645  0.2131 -0.3801
   21MOL   C368 8008   6.033   8.054   2.457  1.2558  0.1694 -0.5737
   21MOL   C369 8009   5.902   8.018   2.414  1.2927 -0.4587 -0.4952
   21MOL   C370 8010   5.874   7.953   2.293 -0.2418  0.0586  0.3095
   21MOL   C371 8011   5.984   7.954   2.201 -0.4031 -0.7031  0.9175
   21MOL   C372 8012   6.116   7.985   2.236  0.8600  0.0410  0.1452
   21MOL   C373 8013   6.135   8.037   2.366  0.0910 -0.9070 -0.0050
   21MOL   H374 8014   6.421   0.210   2.529 -1.4534  1.1027  0.2927
   21MOL   H375 8015   6.168   0.156   2.531 -0.4537 -0.6324 -0.3497
   21MOL   H376 8016   6.176   8.157   2.743  1.7372  2.7587 -1.2402
   21MOL   H377 8017   6.242   8.050   2.628 -1.0075  0.0065 -1.3667
   21MOL   H378 8018   5.822   8.033   2.485  0.6889 -0.6877 -1.1245
   21MOL   H379 8019   5.775   7.923   2.262  1.4043 -3.5493 -1.7889
   21MOL   H380 8020   5.963   7.925   2.099  0.1177  1.5516  0.1437
   21MOL   H381 8021   6.196   7.972   2.164  2.5590  0.6774  1.8977
   21MOL   H382 8022   6.235   8.071   2.389 -0.4637  0.8264 -0.0773
   22MOL     C1 8023   6.988   3.567   5.305  0.0164 -1.0059 -0.6682
   22MOL     C2 8024   6.955   3.701   5.360 -0.0285 -0.0914 -0.4893
   22MOL     O3 8025   6.910   3.581   5.428 -0.3797  0.0065  0.4527
   22MOL     C4 8026   6.868   3.796   5.285 -0.3463 -0.3461 -0.0628
   22MOL     O5 8027   6.858   3.929   5.347 -0.4112 -0.4579 -0.1214
   22MOL     C6 8028   6.968   4.015   5.344 -0.5180  1.3170  0.4917
   22MOL     C7 8029   7.092   3.986   5.281  0.2691 -0.3472  0.1137
   22MOL     C8 8030   7.196   4.084   5.267  0.0614  0.7005  0.0730
   22MOL     C9 8031   7.172   4.212   5.320  0.0947  0.2044 -0.4209
   22MOL    C10 8032   7.051   4.242   5.385  0.9745 -0.9197  0.2028
   22MOL    C11 8033   6.951   4.147   5.390 -0.1859 -0.0658 -0.2916
   22MOL    H12 8034   7.085   3.517   5.316  2.7683  4.3015  1.1096
   22MOL    H13 8035   7.043   3.748   5.405  0.5300 -1.6152  0.0596
   22MOL    H14 8036   6.768   3.755   5.293 -0.0546 -0.6614  2.5998
   22MOL    H15 8037   6.904   3.813   5.184 -1.0058  2.8133  0.1555
   22MOL    H16 8038   7.121   3.896   5.229  0.7400 -0.6552  0.9090
   22MOL    H17 8039   7.277   4.053   5.202 -1.7771 -2.5132 -0.8112
   22MOL    H18 8040   7.244   4.292   5.313  0.8762 -0.4540 -0.0294
   22MOL    H19 8041   7.022   4.341   5.417 -1.3099 -1.8278  1.0335
   22MOL    H20 8042   6.931   3.516   5.228 -2.4256 -0.7788  0.9339
   22MOL    C21 8043   6.825   4.185   5.463  0.0613  0.2096 -0.1746
   22MOL    C22 8044   6.783   4.125   5.598  0.2232  0.3770  0.1912
   22MOL    O23 8045   6.866   4.244   5.587 -0.1283  0.3188  0.2510
   22MOL    C24 8046   6.854   4.011   5.665 -0.1019  0.0520  0.3777
   22MOL    O25 8047   6.844   4.000   5.807  0.4292  0.4896 -0.3900
   22MOL    C26 8048   6.941   3.920   5.868 -0.2384 -1.0411 -0.2644
   22MOL    C27 8049   7.003   3.813   5.801 -0.1665 -0.5668  0.7133
   22MOL    C28 8050   7.107   3.740   5.865 -0.5997 -0.6582 -0.1497
   22MOL    C29 8051   7.153   3.785   5.987 -0.0059  0.3651  0.4391
   22MOL    C30 8052   7.090   3.888   6.057  0.6773 -0.5416 -0.6054
   22MOL    C31 8053   6.979   3.953   6.003 -0.5367 -0.4417  0.1104
   22MOL    H32 8054   6.759   4.244   5.401  0.4970  0.3162 -0.5387
   22MOL    H33 8055   6.680   4.146   5.625  0.1596  0.0378  0.2118
   22MOL    H34 8056   6.958   4.016   5.632 -0.9972 -1.0305 -2.7995
   22MOL    H35 8057   6.810   3.922   5.619  1.4485 -0.1176 -0.8386
   22MOL    H36 8058   6.976   3.778   5.702 -1.0869 -0.8238  1.0527
   22MOL    H37 8059   7.149   3.664   5.801 -0.7969  0.3459 -1.4919
   22MOL    H38 8060   7.243   3.739   6.026  1.2377  1.3372 -1.2105
   22MOL    H39 8061   7.114   3.902   6.162 -0.3765  1.9182 -0.6850
   22MOL    C40 8062   6.908   4.065   6.081  0.2908  0.3035  0.1339
   22MOL    C41 8063   6.778   4.065   6.156 -0.1509 -0.5092  0.7022
   22MOL    O42 8064   6.912   4.053   6.223 -0.3672  0.2297 -0.0722
   22MOL    C43 8065   6.687   3.951   6.174  0.1571  0.1940 -0.2828
   22MOL    O44 8066   6.625   3.971   6.300  0.2385  0.1804 -0.4306
   22MOL    C45 8067   6.549   3.865   6.346  0.0972  0.2729 -0.5603
   22MOL    C46 8068   6.453   3.812   6.259 -0.4622  0.7441  0.0844
   22MOL    C47 8069   6.371   3.704   6.302 -0.5529  0.5698 -0.0237
   22MOL    C48 8070   6.386   3.653   6.431  0.3493 -0.2362 -0.6802
   22MOL    C49 8071   6.472   3.711   6.522 -0.0567  0.6232 -0.6057
   22MOL    C50 8072   6.563   3.809   6.476 -0.1709 -0.1968  0.0232
   22MOL    H51 8073   6.943   4.157   6.035  0.1637 -0.9624 -2.5927
   22MOL    H52 8074   6.736   4.165   6.171 -0.8659 -0.6781 -0.1846
   22MOL    H53 8075   6.749   3.862   6.189  0.2699  0.5496  1.5200
   22MOL    H54 8076   6.627   3.943   6.084  0.5901  2.7223 -0.8455
   22MOL    H55 8077   6.440   3.838   6.155 -0.2040  0.2626 -0.0737
   22MOL    H56 8078   6.302   3.657   6.234 -0.8491 -0.4114  0.9589
   22MOL    H57 8079   6.324   3.566   6.442  1.5858 -1.0770 -0.2116
   22MOL    H58 8080   6.482   3.684   6.626 -1.4024  1.7510 -0.1622
   22MOL    C59 8081   6.666   3.869   6.573 -0.1608 -0.0605  0.6535
   22MOL    C60 8082   6.635   3.994   6.651 -0.9304 -0.4891 -0.2525
   22MOL    O61 8083   6.619   3.861   6.709  0.6532  0.3609 -0.2645
   22MOL    C62 8084   6.507   4.070   6.641  0.2282 -0.6182  0.9146
   22MOL    O63 8085   6.516   4.201   6.582  0.1004  0.1743 -0.0098
   22MOL    C64 8086   6.399   4.276   6.579 -0.2901 -0.2604  0.1303
   22MOL    C65 8087   6.301   4.270   6.680  0.1108 -0.5454  0.1536
   22MOL    C66 8088   6.191   4.356   6.685 -0.0899  0.2927 -0.1298
   22MOL    C67 8089   6.169   4.444   6.574 -0.0157  0.2309  0.5243
   22MOL    C68 8090   6.255   4.427   6.464  0.0924 -0.6261  0.7603
   22MOL    C69 8091   6.371   4.348   6.467  0.5989 -0.1537  0.4728
   22MOL    H70 8092   6.768   3.834   6.560  0.6124  2.8466 -1.6260
   22MOL    H71 8093   6.715   4.057   6.690 -1.7725 -0.7693  1.9909
   22MOL    H72 8094   6.465   4.072   6.741 -0.5324 -0.0689  0.5955
   22MOL    H73 8095   6.442   4.006   6.580 -2.7208  1.0138  2.2368
   22MOL    H74 8096   6.315   4.221   6.775  2.1595 -0.9281 -0.3366
   22MOL    H75 8097   6.123   4.358   6.769 -0.3996 -2.2031 -0.2969
   22MOL    H76 8098   6.086   4.512   6.561  0.4986  0.1860 -3.6924
   22MOL    H77 8099   6.231   4.477   6.372  4.4749  0.0052 -0.1714
   22MOL    C78 8100   6.464   4.332   6.357 -0.1950  0.0349  0.0214
   22MOL    C79 8101   6.435   4.238   6.243  1.0457 -0.1505  0.3802
   22MOL    O80 8102   6.398   4.373   6.232 -0.0877  0.1435 -0.5129
   22MOL    C81 8103   6.313   4.153   6.211 -0.2020  0.5830  0.1802
   22MOL    O82 8104   6.327   4.079   6.089  0.1918 -0.8974  0.6292
   22MOL    C83 8105   6.291   4.139   5.972  0.2101  0.7786  0.1470
   22MOL    C84 8106   6.240   4.267   5.956 -0.6171  0.4100  0.3465
   22MOL    C85 8107   6.202   4.308   5.826  0.0944 -0.1747  0.3180
   22MOL    C86 8108   6.217   4.222   5.713  0.7387  0.0107  0.6507
   22MOL    C87 8109   6.280   4.097   5.725  0.3880 -0.0951  0.3819
   22MOL    C88 8110   6.314   4.056   5.859 -0.3789 -0.1053  0.3373
   22MOL    H89 8111   6.566   4.366   6.372 -0.9752  2.1144  0.7457
   22MOL    H90 8112   6.525   4.205   6.192  0.8191 -0.5751  0.2452
   22MOL    H91 8113   6.213   4.198   6.211 -1.0011 -1.1706  1.8363
   22MOL    H92 8114   6.319   4.085   6.295  0.9915  0.0563 -0.3235
   22MOL    H93 8115   6.225   4.340   6.034  2.0270 -1.2933  2.5361
   22MOL    H94 8116   6.148   4.398   5.799  1.0921 -0.3519 -2.5188
   22MOL    H95 8117   6.190   4.260   5.616  1.0898  1.6846  1.1939
   22MOL    H96 8118   6.327   4.049   5.640  2.1738 -0.1228  1.3668
   22MOL    C97 8119   6.397   3.930   5.855  0.1098 -1.1119  0.4425
   22MOL    C98 8120   6.343   3.801   5.915  1.0637 -1.2741  1.0557
   22MOL    O99 8121   6.346   3.828   5.770  0.2250 -0.5342 -0.2604
   22MOL   C100 8122   6.217   3.807   5.991 -0.3517  0.3114 -0.0608
   22MOL   O101 8123   6.160   3.682   6.019 -0.0761 -0.6341  0.4300
   22MOL   C102 8124   6.101   3.605   5.917  0.4465 -0.7042  0.3079
   22MOL   C103 8125   6.080   3.642   5.781 -0.1301  0.3588  0.6841
   22MOL   C104 8126   6.033   3.547   5.693 -0.4350  0.0372  1.1569
   22MOL   C105 8127   5.971   3.426   5.738 -0.6375 -0.4944  0.7684
   22MOL   C106 8128   5.978   3.391   5.870  0.1850  0.6946 -0.6157
   22MOL   C107 8129   6.052   3.471   5.961  0.6331  0.0646  0.4440
   22MOL   H108 8130   6.503   3.947   5.838 -0.3030  1.1486 -0.0354
   22MOL   H109 8131   6.416   3.727   5.950  0.4541 -1.1584  2.6163
   22MOL   H110 8132   6.132   3.861   5.948 -0.3811 -0.2593 -0.7344
   22MOL   H111 8133   6.226   3.866   6.082  0.3304  0.3942 -0.1773
   22MOL   H112 8134   6.109   3.739   5.745  0.5850  0.1758  0.7551
   22MOL   H113 8135   6.038   3.579   5.591 -0.2613 -0.8866  0.8705
   22MOL   H114 8136   5.933   3.352   5.669  1.5037 -1.0579  0.1584
   22MOL   H115 8137   5.928   3.299   5.896  1.3689  0.7128  1.8761
   22MOL   C116 8138   6.081   3.426   6.101 -0.4301 -0.3550 -0.0675
   22MOL   C117 8139   5.974   3.385   6.202  0.4528 -0.3102 -0.2343
   22MOL   O118 8140   6.056   3.287   6.125 -0.3535 -0.1248 -0.0078
   22MOL   C119 8141   5.829   3.387   6.167 -0.3000 -0.0456 -0.8689
   22MOL   O120 8142   5.786   3.510   6.129 -0.1769 -0.6511  0.1314
   22MOL   C121 8143   5.649   3.534   6.117  0.5462 -0.0591 -0.1357
   22MOL   C122 8144   5.550   3.436   6.150  0.6531 -0.6944  0.5534
   22MOL   C123 8145   5.414   3.472   6.129 -0.7147  0.2120 -0.2504
   22MOL   C124 8146   5.378   3.603   6.088  0.4093  0.8272 -0.2303
   22MOL   C125 8147   5.478   3.695   6.057  0.1365  0.6345  0.1365
   22MOL   C126 8148   5.614   3.661   6.062 -0.4904  0.6717  1.1187
   22MOL   H127 8149   6.175   3.470   6.133 -0.6042  0.3225 -0.4680
   22MOL   H128 8150   5.998   3.373   6.307 -0.3098  1.2001  0.1221
   22MOL   H129 8151   5.786   3.354   6.262  2.6851  1.4525  1.0802
   22MOL   H130 8152   5.815   3.305   6.096  4.9563 -1.0376 -0.9788
   22MOL   H131 8153   5.572   3.330   6.156  0.9296 -0.7664 -1.5429
   22MOL   H132 8154   5.341   3.399   6.161 -0.6699  0.7268  1.0453
   22MOL   H133 8155   5.278   3.644   6.086 -0.4268 -1.0266  1.2197
   22MOL   H134 8156   5.442   3.787   6.014  1.0640  0.7669 -0.3618
   22MOL   C135 8157   5.723   3.750   6.006 -0.4503 -1.2982  0.7705
   22MOL   C136 8158   5.762   3.765   5.856 -0.3678  0.3152  0.9160
   22MOL   O137 8159   5.667   3.843   5.919  0.2451  0.1242  0.3697
   22MOL   C138 8160   5.717   3.662   5.757  0.1478 -0.2789 -0.1887
   22MOL   O139 8161   5.763   3.685   5.617 -0.0175  0.3844  0.2733
   22MOL   C140 8162   5.703   3.776   5.534  1.1629  0.2534 -0.4813
   22MOL   C141 8163   5.610   3.870   5.583 -0.5078  0.3579 -0.0532
   22MOL   C142 8164   5.542   3.953   5.496  0.3863 -0.7158  0.6828
   22MOL   C143 8165   5.573   3.954   5.361  0.0030  0.0212 -0.6061
   22MOL   C144 8166   5.667   3.859   5.312  0.3075 -0.0716 -0.6339
   22MOL   C145 8167   5.734   3.773   5.397  0.4525 -0.3306  0.5855
   22MOL   H146 8168   5.783   3.803   6.080  2.0395 -1.5347 -1.0355
   22MOL   H147 8169   5.852   3.823   5.836 -0.5666  0.0760 -0.7350
   22MOL   H148 8170   5.609   3.677   5.763  0.4790  2.0888  0.1751
   22MOL   H149 8171   5.716   3.556   5.785 -1.6263 -0.3785 -0.5486
   22MOL   H150 8172   5.585   3.874   5.688 -3.9677 -0.9337 -0.7485
   22MOL   H151 8173   5.485   4.041   5.523  0.5630 -0.2981 -0.2861
   22MOL   H152 8174   5.524   4.027   5.298 -0.3335  1.3529  1.1491
   22MOL   H153 8175   5.692   3.857   5.208 -0.6426 -0.1675 -0.8667
   22MOL   C154 8176   5.849   3.696   5.338  0.4827 -0.8721  0.4588
   22MOL   C155 8177   5.832   3.548   5.302 -0.2190  0.3633 -0.1981
   22MOL   O156 8178   5.820   3.647   5.205  0.1283  0.3599  0.3401
   22MOL   C157 8179   5.704   3.472   5.331  0.1834  0.0421 -0.5844
   22MOL   O158 8180   5.663   3.382   5.235 -0.1658 -0.0765 -0.4839
   22MOL   C159 8181   5.751   3.282   5.215  0.7718  0.3706 -0.3083
   22MOL   C160 8182   5.826   3.221   5.323  0.2976  0.1667  0.1014
   22MOL   C161 8183   5.938   3.134   5.297  0.2433 -0.0827  1.1575
   22MOL   C162 8184   5.958   3.092   5.160  0.4350 -0.2043 -0.4656
   22MOL   C163 8185   5.877   3.142   5.054 -0.3698 -0.4077 -0.2328
   22MOL   C164 8186   5.780   3.244   5.080  0.4290 -0.3645 -0.2291
   22MOL   H165 8187   5.947   3.740   5.351  0.0756  0.2489 -0.2398
   22MOL   H166 8188   5.915   3.478   5.304 -0.2847  0.2712 -0.6427
   22MOL   H167 8189   5.619   3.539   5.338 -0.8970 -1.1894 -1.6029
   22MOL   H168 8190   5.701   3.424   5.429  0.6845 -2.5600 -1.8001
   22MOL   H169 8191   5.796   3.233   5.426 -1.0610 -0.7144 -0.1849
   22MOL   H170 8192   6.003   3.096   5.374  1.6852 -0.3906 -0.1858
   22MOL   H171 8193   6.032   3.016   5.143  3.0681  2.3253 -0.7322
   22MOL   H172 8194   5.888   3.101   4.955  0.3265 -0.8176  0.0105
   22MOL   C173 8195   5.698   3.286   4.962  0.2133 -0.2356 -0.7007
   22MOL   C174 8196   5.717   3.414   4.889  0.0248 -0.0585  1.1518
   22MOL   O175 8197   5.773   3.290   4.839  0.2696 -0.7548 -0.5743
   22MOL   C176 8198   5.831   3.518   4.918  0.0914 -0.0517  0.0253
   22MOL   O177 8199   5.880   3.576   4.799 -0.2779  0.1804  0.2232
   22MOL   C178 8200   6.002   3.640   4.814 -0.0044  0.5113  0.3763
   22MOL   C179 8201   6.022   3.740   4.913 -0.0198  0.1621 -0.1252
   22MOL   C180 8202   6.147   3.792   4.944 -0.0999  0.1712  0.1168
   22MOL   C181 8203   6.260   3.745   4.878  0.0197  0.5190 -0.0824
   22MOL   C182 8204   6.238   3.660   4.765  0.0623  0.5139 -0.1024
   22MOL   C183 8205   6.112   3.610   4.734 -0.0541  0.4007  0.3943
   22MOL   H184 8206   5.598   3.244   4.962  0.1163 -0.0018 -1.5340
   22MOL   H185 8207   5.631   3.445   4.831  0.9212  1.1016  0.4223
   22MOL   H186 8208   5.913   3.467   4.970  0.7429  0.4226 -0.5192
   22MOL   H187 8209   5.780   3.594   4.977 -0.7357 -0.6488  0.0919
   22MOL   H188 8210   5.938   3.756   4.980  0.3509 -1.7359  0.8160
   22MOL   H189 8211   6.163   3.854   5.031  1.2308  0.9269 -0.6515
   22MOL   H190 8212   6.354   3.776   4.919  0.8959 -2.0379 -0.0836
   22MOL   H191 8213   6.326   3.624   4.714  1.2512  1.9141  0.9387
   22MOL   C192 8214   6.093   3.523   4.613 -0.6169  0.0739  0.4054
   22MOL   C193 8215   6.091   3.567   4.464  0.2482 -0.6976  0.0561
   22MOL   O194 8216   6.207   3.528   4.533 -0.9761 -0.5355 -0.1042
   22MOL   C195 8217   6.086   3.712   4.421 -0.3079  0.0564 -0.9319
   22MOL   O196 8218   6.101   3.739   4.277 -0.1100  0.4691  0.3290
   22MOL   C197 8219   6.225   3.729   4.219 -0.1480  0.8677  0.2812
   22MOL   C198 8220   6.345   3.725   4.298  0.6783  0.0683 -0.3955
   22MOL   C199 8221   6.467   3.738   4.237 -0.6723 -0.5614 -0.4950
   22MOL   C200 8222   6.479   3.758   4.097  0.1177  0.4551  0.5961
   22MOL   C201 8223   6.363   3.763   4.022  0.2396 -0.2073  1.2180
   22MOL   C202 8224   6.238   3.748   4.080  0.1585 -1.0209  0.4902
   22MOL   H203 8225   6.059   3.423   4.639  0.0683 -0.0535  0.8516
   22MOL   H204 8226   6.058   3.489   4.395 -0.4722 -2.5753  2.4365
   22MOL   H205 8227   6.138   3.781   4.487 -0.4987 -0.7883  0.1118
   22MOL   H206 8228   5.983   3.738   4.446  0.1676  1.3702 -0.2747
   22MOL   H207 8229   6.344   3.714   4.406 -2.9941 -0.3511 -0.3944
   22MOL   H208 8230   6.560   3.730   4.290 -1.5534  0.6843  1.3150
   22MOL   H209 8231   6.575   3.775   4.052 -0.0361 -0.0369  0.0746
   22MOL   H210 8232   6.373   3.779   3.916  0.6867  1.4354  1.5022
   22MOL   C211 8233   6.113   3.756   3.995 -0.2391 -0.5128 -0.3906
   22MOL   C212 8234   6.044   3.883   3.957 -0.6946 -0.0476  0.7588
   22MOL   O213 8235   6.122   3.812   3.864  0.1584 -0.8815 -0.2768
   22MOL   C214 8236   6.103   4.024   4.000 -0.0247 -0.0848  0.1627
   22MOL   O215 8237   5.999   4.122   4.023  0.4320 -0.1017 -0.4951
   22MOL   C216 8238   5.935   4.119   4.143  0.2947 -0.5662 -0.0818
   22MOL   C217 8239   5.966   4.038   4.251  0.3676  0.6393 -0.2191
   22MOL   C218 8240   5.876   4.031   4.362 -0.1775 -0.2769 -0.6390
   22MOL   C219 8241   5.758   4.111   4.366 -0.1466 -0.1895  0.5811
   22MOL   C220 8242   5.730   4.201   4.259 -0.3507 -0.4456 -0.2779
   22MOL   C221 8243   5.821   4.207   4.150  0.1114  0.0282  0.0774
   22MOL   H222 8244   6.058   3.663   4.005  0.2466 -0.7557  0.0274
   22MOL   H223 8245   5.936   3.875   3.942 -0.9863  3.0429  0.9107
   22MOL   H224 8246   6.156   4.071   3.917  0.9684 -1.0106  0.2670
   22MOL   H225 8247   6.180   4.026   4.078  1.4141  0.5618 -1.2380
   22MOL   H226 8248   6.049   3.970   4.247  1.8322  2.3845  0.2091
   22MOL   H227 8249   5.893   3.968   4.448 -1.1000  1.4967  0.8764
   22MOL   H228 8250   5.697   4.110   4.455 -0.5488  0.1753  0.3093
   22MOL   H229 8251   5.636   4.253   4.259  0.3653  0.9989  4.0621
   22MOL   C230 8252   5.800   4.296   4.027 -0.0289  0.6380  0.0593
   22MOL   C231 8253   5.720   4.264   3.904  0.1580  0.4602 -0.5533
   22MOL   O232 8254   5.663   4.337   4.018  0.0967  0.2088 -0.1638
   22MOL   C233 8255   5.676   4.124   3.885  0.6143 -0.4891  0.2732
   22MOL   O234 8256   5.540   4.140   3.843  0.6679 -0.5537 -0.2481
   22MOL   C235 8257   5.434   4.115   3.927 -1.0681 -0.1667  0.2744
   22MOL   C236 8258   5.449   4.079   4.064  1.0490  0.1929  0.2760
   22MOL   C237 8259   5.339   4.059   4.149 -0.3293  0.1560  0.5456
   22MOL   C238 8260   5.206   4.077   4.103  0.2970  0.2426 -0.0096
   22MOL   C239 8261   5.190   4.111   3.966 -0.4947  0.9646 -0.5977
   22MOL   C240 8262   5.303   4.134   3.883 -0.3858  0.0605 -0.0494
   22MOL   H241 8263   5.867   4.382   4.022  2.0375 -0.9588 -0.2576
   22MOL   H242 8264   5.726   4.313   3.808 -1.7701  0.2794 -0.7892
   22MOL   H243 8265   5.690   4.069   3.978  0.4062 -0.4375  0.3354
   22MOL   H244 8266   5.735   4.081   3.804 -0.8307  0.2663 -1.2217
   22MOL   H245 8267   5.541   4.059   4.116 -0.0187 -3.0056  1.0317
   22MOL   H246 8268   5.355   4.038   4.253 -0.3368 -0.7372  0.3726
   22MOL   H247 8269   5.113   4.070   4.157  0.0185 -2.7119 -0.7739
   22MOL   H248 8270   5.092   4.123   3.923 -0.6271 -0.4110 -0.7293
   22MOL   C249 8271   5.278   4.176   3.741 -0.5690  0.2447 -0.5311
   22MOL   C250 8272   5.296   4.084   3.621  0.4157 -0.0490  0.7395
   22MOL   O251 8273   5.164   4.111   3.675 -0.6468 -0.1255 -0.2185
   22MOL   C252 8274   5.348   3.943   3.636  0.2615  0.9625 -0.0235
   22MOL   O253 8275   5.333   3.870   3.511  0.3499 -0.0182  0.2679
   22MOL   C254 8276   5.354   3.737   3.524  0.1235  0.2088  0.3496
   22MOL   C255 8277   5.433   3.674   3.624 -0.0572 -0.2648  0.4178
   22MOL   C256 8278   5.443   3.537   3.637 -0.7439  0.0753 -0.5107
   22MOL   C257 8279   5.383   3.456   3.540 -0.5322 -0.9605 -0.7125
   22MOL   C258 8280   5.308   3.518   3.434  0.2294 -0.0821  0.1910
   22MOL   C259 8281   5.285   3.655   3.427 -0.3306  1.2696  0.5066
   22MOL   H260 8282   5.281   4.285   3.739 -0.7307  0.2853  1.0395
   22MOL   H261 8283   5.334   4.133   3.532  1.6139 -0.7123  0.8693
   22MOL   H262 8284   5.300   3.887   3.716  0.9693  0.0378 -0.2428
   22MOL   H263 8285   5.450   3.939   3.675  0.2719  0.1183 -0.1288
   22MOL   H264 8286   5.494   3.733   3.692  2.2904 -0.0254 -1.8366
   22MOL   H265 8287   5.512   3.498   3.711 -0.8580 -2.1394 -1.5350
   22MOL   H266 8288   5.399   3.351   3.522 -0.3121 -1.1436  0.5734
   22MOL   H267 8289   5.271   3.451   3.358  1.7559  0.6146 -1.1760
   22MOL   C268 8290   5.181   3.722   3.325  0.0906 -0.5402  0.7032
   22MOL   C269 8291   5.225   3.787   3.193  0.3637  0.7953  0.8011
   22MOL   O270 8292   5.192   3.647   3.205  0.8065 -0.4913  0.6814
   22MOL   C271 8293   5.367   3.818   3.168 -0.3025  0.8301  0.4634
   22MOL   O272 8294   5.392   3.847   3.024  0.7010 -0.0085  0.1544
   22MOL   C273 8295   5.520   3.863   2.983 -0.7199  0.6090  0.2166
   22MOL   C274 8296   5.634   3.888   3.066  0.0042  0.3592  0.1944
   22MOL   C275 8297   5.762   3.895   3.016 -0.2789  0.5283  0.2541
   22MOL   C276 8298   5.781   3.888   2.875 -0.0509 -0.1104 -0.9913
   22MOL   C277 8299   5.675   3.876   2.790  0.2365 -0.1013  0.0692
   22MOL   C278 8300   5.542   3.849   2.842 -0.3499 -0.2385 -0.8389
   22MOL   H279 8301   5.083   3.743   3.366  0.2160  1.7430 -0.1249
   22MOL   H280 8302   5.154   3.840   3.131 -0.2810 -1.8395 -0.7830
   22MOL   H281 8303   5.431   3.741   3.211 -0.3080  0.7511  0.3247
   22MOL   H282 8304   5.402   3.903   3.227  5.1402 -0.5968 -0.3771
   22MOL   H283 8305   5.612   3.888   3.171 -1.0382  0.6264 -0.0109
   22MOL   H284 8306   5.843   3.920   3.083 -0.4173  3.2024 -0.5386
   22MOL   H285 8307   5.884   3.877   2.845  1.0305  1.8482  1.7597
   22MOL   H286 8308   5.691   3.884   2.684 -0.4938  0.0722 -0.0277
   22MOL   C287 8309   5.415   3.834   2.754 -0.0424  0.0095 -0.4148
   22MOL   C288 8310   5.348   3.958   2.700 -0.0320  0.0826 -0.5225
   22MOL   O289 8311   5.430   3.875   2.621  0.6160 -0.1909  0.9401
   22MOL   C290 8312   5.410   4.096   2.719 -0.0144 -0.3410  0.4590
   22MOL   O291 8313   5.381   4.185   2.610  0.4007  0.4473  0.3202
   22MOL   C292 8314   5.269   4.268   2.626  0.1453 -0.1538  0.2891
   22MOL   C293 8315   5.159   4.253   2.709  0.3605  0.1111 -0.6375
   22MOL   C294 8316   5.059   4.344   2.726  0.3024 -0.3060 -0.1787
   22MOL   C295 8317   5.069   4.466   2.656 -0.1507 -0.0205 -0.1571
   22MOL   C296 8318   5.180   4.486   2.576  0.7132 -0.3507 -0.0671
   22MOL   C297 8319   5.278   4.392   2.559 -0.1216  0.4975 -0.2957
   22MOL   H298 8320   5.375   3.733   2.758 -1.7978  0.6446 -1.3250
   22MOL   H299 8321   5.243   3.957   2.673 -0.6981  2.2125  1.8478
   22MOL   H300 8322   5.518   4.090   2.734 -0.0864  1.0821  1.6715
   22MOL   H301 8323   5.377   4.138   2.814  0.8301  0.2039  0.5180
   22MOL   H302 8324   5.141   4.159   2.759 -0.1434 -0.9185 -2.6810
   22MOL   H303 8325   4.970   4.336   2.786  0.4975  0.6764  0.2616
   22MOL   H304 8326   4.995   4.544   2.661 -0.6888 -0.4830 -0.8402
   22MOL   H305 8327   5.174   4.579   2.521  0.2658  0.5668  1.5057
   22MOL   C306 8328   5.392   4.411   2.457  0.2428 -0.0889 -0.8263
   22MOL   C307 8329   5.363   4.380   2.310  0.6920  0.1049 -0.5607
   22MOL   O308 8330   5.378   4.512   2.365  0.1463 -0.0156 -0.2907
   22MOL   C309 8331   5.232   4.356   2.240 -0.2501 -0.0171  0.2840
   22MOL   O310 8332   5.233   4.276   2.126 -0.0378  0.3074 -0.5310
   22MOL   C311 8333   5.304   4.151   2.137 -0.2084 -0.0174  0.0000
   22MOL   C312 8334   5.316   4.075   2.254  0.2043 -0.1015 -0.1546
   22MOL   C313 8335   5.403   3.967   2.259  0.3929  0.3137  0.6502
   22MOL   C314 8336   5.464   3.922   2.139  0.3960 -0.0722 -0.0416
   22MOL   C315 8337   5.447   3.989   2.018 -0.0988  0.1791 -0.1048
   22MOL   C316 8338   5.369   4.109   2.018 -0.4890 -0.0503  0.0232
   22MOL   H317 8339   5.495   4.394   2.490 -0.2402 -0.3571  0.5511
   22MOL   H318 8340   5.441   4.363   2.236  1.3040 -1.2257  0.3741
   22MOL   H319 8341   5.184   4.448   2.205 -2.0305 -2.3703 -3.8342
   22MOL   H320 8342   5.164   4.306   2.309 -2.3696  0.3807 -1.4559
   22MOL   H321 8343   5.267   4.103   2.346  1.5825 -0.1485  0.6098
   22MOL   H322 8344   5.419   3.908   2.348  0.6385 -1.7904 -0.7445
   22MOL   H323 8345   5.521   3.830   2.131 -0.7446 -0.8805  0.9536
   22MOL   H324 8346   5.503   3.950   1.935  1.9565  0.1473  1.2577
   22MOL   C325 8347   5.353   4.187   1.885  0.0368 -0.2916  0.6741
   22MOL   C326 8348   5.428   4.321   1.855  0.0786  0.5534 -0.0056
   22MOL   O327 8349   5.471   4.194   1.799  0.3534  0.4309 -0.2660
   22MOL   C328 8350   5.517   4.397   1.946  0.8228 -0.2325 -0.4335
   22MOL   O329 8351   5.624   4.462   1.865 -0.2268  0.0339 -0.0701
   22MOL   C330 8352   5.757   4.409   1.865  0.0172 -0.1535  0.0192
   22MOL   C331 8353   5.783   4.276   1.909  0.1895 -0.3267 -0.7461
   22MOL   C332 8354   5.913   4.226   1.903 -0.3556 -0.5150  0.0230
   22MOL   C333 8355   6.020   4.309   1.851 -1.1588 -0.1315  0.1149
   22MOL   C334 8356   5.996   4.443   1.821  0.3436 -0.3657 -0.4533
   22MOL   C335 8357   5.866   4.495   1.843 -0.5174  0.6228  0.8310
   22MOL   H336 8358   5.256   4.175   1.839 -1.3762  0.5559  3.3221
   22MOL   H337 8359   5.392   4.388   1.777 -0.2915 -1.1992 -1.3849
   22MOL   H338 8360   5.558   4.344   2.032  4.1283  3.4179  0.4239
   22MOL   H339 8361   5.455   4.480   1.980 -1.9368 -0.6805 -4.0122
   22MOL   H340 8362   5.708   4.203   1.936  0.2010  0.1162  0.4929
   22MOL   H341 8363   5.931   4.122   1.923  0.6767  0.2218  3.1639
   22MOL   H342 8364   6.121   4.271   1.844 -0.8582  0.7035 -0.1242
   22MOL   H343 8365   6.076   4.508   1.789  0.7512 -1.0702 -0.8789
   22MOL   C344 8366   5.844   4.641   1.818 -0.5075 -0.5333  0.0549
   22MOL   C345 8367   5.842   4.740   1.920  0.2097  0.2830 -0.2626
   22MOL   O346 8368   5.958   4.717   1.845  0.6255 -0.1568 -0.4953
   22MOL   C347 8369   5.873   4.711   2.064 -0.8612  0.3190 -0.6760
   22MOL   O348 8370   5.947   4.816   2.123 -0.0114  0.2869 -0.8306
   22MOL   C349 8371   5.889   4.940   2.124 -0.6327 -0.6979  0.2670
   22MOL   C350 8372   5.750   4.960   2.134 -0.0880 -0.1011  0.3835
   22MOL   C351 8373   5.698   5.091   2.139  0.4768  1.0617 -0.0191
   22MOL   C352 8374   5.778   5.202   2.135  0.5504  0.6392 -0.3831
   22MOL   C353 8375   5.921   5.179   2.132 -0.1048 -0.2351  0.1513
   22MOL   C354 8376   5.973   5.051   2.131  0.1968 -0.6453 -0.3987
   22MOL   H355 8377   5.802   4.665   1.721  0.6278 -2.0130 -0.8319
   22MOL   H356 8378   5.780   4.827   1.900 -0.4220 -0.5339 -1.9520
   22MOL   H357 8379   5.947   4.632   2.063  0.1558  1.2603 -1.2473
   22MOL   H358 8380   5.782   4.685   2.119 -0.8180 -1.6661 -1.5120
   22MOL   H359 8381   5.680   4.878   2.135 -0.5411  0.2993  1.5918
   22MOL   H360 8382   5.590   5.102   2.138  0.3929  0.2857  0.1030
   22MOL   H361 8383   5.727   5.297   2.143 -1.3227 -0.3707 -0.1531
   22MOL   H362 8384   5.992   5.260   2.129  0.0031 -0.3259  0.2583
   22MOL   C363 8385   6.120   5.017   2.139 -0.0736  0.2965  0.5058
   22MOL   C364 8386   6.222   5.064   2.034 -0.2007 -0.1044 -0.4032
   22MOL   O365 8387   6.204   5.130   2.163  0.1361  0.5960 -0.4980
   22MOL   C366 8388   6.189   5.150   1.909  0.0073 -0.4813 -0.4372
   22MOL   O367 8389   6.304   5.175   1.821 -0.2838  0.6678 -0.3248
   22MOL   C368 8390   6.381   5.287   1.841  0.0627  0.4909 -0.0559
   22MOL   C369 8391   6.505   5.292   1.774 -0.8113  0.3820  0.2697
   22MOL   C370 8392   6.599   5.391   1.807 -0.5695  0.0258 -0.1305
   22MOL   C371 8393   6.571   5.488   1.905  0.1638 -0.2153 -0.4196
   22MOL   C372 8394   6.438   5.488   1.956 -0.5686  0.4596  0.4283
   22MOL   C373 8395   6.344   5.391   1.925 -0.9724 -0.3005 -0.2253
   22MOL   H374 8396   6.139   4.941   2.215 -2.0043  0.1070  0.8284
   22MOL   H375 8397   6.307   4.997   2.021  2.0118  2.9852 -2.5960
   22MOL   H376 8398   6.129   5.238   1.933  0.6229 -0.3348  0.5845
   22MOL   H377 8399   6.118   5.096   1.848 -2.6348  0.1696  1.9423
   22MOL   H378 8400   6.538   5.205   1.718 -0.5259  0.2254  0.6762
   22MOL   H379 8401   6.699   5.381   1.767 -1.2495 -2.3793 -1.3150
   22MOL   H380 8402   6.647   5.561   1.928  0.1909 -0.3224 -0.1660
   22MOL   H381 8403   6.411   5.569   2.023 -1.8247  0.0134  0.4767
   22MOL   H382 8404   6.244   5.397   1.966 -2.3207 -2.9722 -2.8789
   23MOL     C1 8405   8.144   5.400   0.417 -0.4578 -0.3277 -0.9141
   23MOL     C2 8406   8.149   5.301   0.532  0.0674  0.3157  1.0705
   23MOL     O3 8407   0.055   5.282   0.413  0.3876 -0.0051 -0.1389
   23MOL     C4 8408   8.037   5.205   0.564  0.4897  0.2922  0.2340
   23MOL     O5 8409   8.072   5.110   0.660  1.0307  0.7852  0.1252
   23MOL     C6 8410   8.060   5.124   0.794 -0.8617 -0.0320 -0.2040
   23MOL     C7 8411   8.040   5.252   0.857 -0.3779 -0.1712 -0.7927
   23MOL     C8 8412   8.027   5.263   0.998  1.0008  0.0267  0.0860
   23MOL     C9 8413   8.043   5.146   1.074  0.1713  0.3043 -0.3554
   23MOL    C10 8414   8.063   5.020   1.013  0.0625  0.0072  0.6389
   23MOL    C11 8415   8.076   5.010   0.872  0.2194  0.4564 -0.7749
   23MOL    H12 8416   0.030   5.493   0.424 -4.1083  1.8218  0.5340
   23MOL    H13 8417   0.034   5.336   0.618  0.4821 -0.2533  1.0441
   23MOL    H14 8418   8.020   5.162   0.466  1.8974  3.4601 -1.4878
   23MOL    H15 8419   7.952   5.257   0.607 -0.9822  0.7858 -3.1001
   23MOL    H16 8420   8.037   5.345   0.802 -0.6962 -0.6716 -1.6343
   23MOL    H17 8421   8.011   5.363   1.034  2.4847 -0.3924  1.9183
   23MOL    H18 8422   8.026   5.163   1.180 -1.2842  0.4109 -0.6072
   23MOL    H19 8423   8.061   4.935   1.079  0.1541  0.1436  0.8154
   23MOL    H20 8424   8.059   5.394   0.350 -0.2641  1.1498 -1.3092
   23MOL    C21 8425   8.080   4.869   0.814  0.6147 -0.4600  0.2450
   23MOL    C22 8426   0.035   4.786   0.788  0.3821 -0.8875  0.6321
   23MOL    O23 8427   8.138   4.772   0.906  0.0010  0.1056 -0.4632
   23MOL    C24 8428   0.174   4.849   0.795 -0.5470 -0.6450 -0.0515
   23MOL    O25 8429   0.268   4.746   0.823 -0.3155  0.2151 -0.8404
   23MOL    C26 8430   0.303   4.662   0.716  0.0262  0.2596  0.0853
   23MOL    C27 8431   0.325   4.703   0.586  0.1805  1.1505 -0.0369
   23MOL    C28 8432   0.364   4.605   0.487  0.1744  0.1770  0.2623
   23MOL    C29 8433   0.378   4.468   0.519  0.5719  0.2332  0.1496
   23MOL    C30 8434   0.356   4.430   0.650 -0.7436 -0.0502 -0.0297
   23MOL    C31 8435   0.330   4.524   0.751  0.1917 -0.4088  1.4644
   23MOL    H32 8436   7.983   4.834   0.778  0.1430 -0.6125  1.6102
   23MOL    H33 8437   0.024   4.703   0.718 -0.8948 -0.9729  0.9403
   23MOL    H34 8438   0.171   4.911   0.885  0.1058  0.6056 -0.8891
   23MOL    H35 8439   0.193   4.908   0.706 -1.1980  0.6130  0.6284
   23MOL    H36 8440   0.317   4.810   0.571 -0.2694  0.9424 -1.3696
   23MOL    H37 8441   0.398   4.630   0.387 -0.0123  0.0177  0.1593
   23MOL    H38 8442   0.402   4.394   0.445 -0.3832  0.2210 -0.1636
   23MOL    H39 8443   0.356   4.327   0.682  1.6673 -0.0164  0.1695
   23MOL    C40 8444   0.320   4.482   0.897  0.0954  0.0602 -0.3277
   23MOL    C41 8445   0.199   4.411   0.958  0.0452 -0.7070 -0.2996
   23MOL    O42 8446   0.321   4.338   0.927 -0.4278 -0.0963 -0.7854
   23MOL    C43 8447   0.077   4.362   0.885 -0.0674  0.1571  0.1929
   23MOL    O44 8448   0.076   4.223   0.915  0.6411 -0.3445  0.0893
   23MOL    C45 8449   0.136   4.140   0.824 -1.0085  0.5309 -0.0491
   23MOL    C46 8450   0.145   4.167   0.682 -0.9973  0.6002  0.2550
   23MOL    C47 8451   0.211   4.080   0.594 -0.4533  0.6058 -0.4975
   23MOL    C48 8452   0.274   3.968   0.647  0.4072  0.0946  0.4103
   23MOL    C49 8453   0.271   3.936   0.784  0.0088 -0.1323 -0.4945
   23MOL    C50 8454   0.200   4.017   0.873  0.1278 -0.2883 -0.4847
   23MOL    H51 8455   0.376   4.545   0.966 -0.4568  2.3065 -1.8793
   23MOL    H52 8456   0.189   4.423   1.066 -1.3442  2.3554 -0.7255
   23MOL    H53 8457   0.078   4.389   0.779  0.1520 -2.5013 -0.5120
   23MOL    H54 8458   8.156   4.408   0.925 -0.7961 -1.7114  0.7269
   23MOL    H55 8459   0.101   4.253   0.634 -1.1115  0.3815 -0.0341
   23MOL    H56 8460   0.224   4.104   0.490 -1.8935  0.7064 -0.6578
   23MOL    H57 8461   0.324   3.905   0.574 -1.3419 -0.1881 -0.5715
   23MOL    H58 8462   0.323   3.849   0.822  2.1294  1.1524 -0.3665
   23MOL    C59 8463   0.200   3.986   1.017  0.9074  0.0455  0.5178
   23MOL    C60 8464   0.103   3.890   1.090 -0.0421 -0.2545 -0.6645
   23MOL    O61 8465   0.235   3.845   1.053  0.4012 -0.0228 -0.1308
   23MOL    C62 8466   8.153   3.828   1.028  0.0565  0.4088 -0.1397
   23MOL    O63 8467   8.058   3.760   1.114 -0.2167  0.4351 -0.1512
   23MOL    C64 8468   8.077   3.621   1.123  0.1605 -0.5217  0.9174
   23MOL    C65 8469   0.031   3.559   1.104 -0.0146 -0.4988  0.1966
   23MOL    C66 8470   0.042   3.421   1.118 -0.7242  0.0676  0.1289
   23MOL    C67 8471   8.100   3.338   1.147  0.9547 -0.5822 -0.4755
   23MOL    C68 8472   7.982   3.397   1.181 -0.5131  0.1266 -0.1781
   23MOL    C69 8473   7.969   3.533   1.161  0.0678 -0.7440 -0.1362
   23MOL    H70 8474   0.240   4.064   1.082 -1.2359  0.4604  1.3777
   23MOL    H71 8475   0.096   3.911   1.197  2.1812 -0.4021 -0.4696
   23MOL    H72 8476   0.018   3.773   0.941  0.3844 -1.2400  1.0204
   23MOL    H73 8477   8.085   3.903   0.988 -2.8428 -0.7830  2.3368
   23MOL    H74 8478   0.117   3.622   1.087 -2.0614  2.7189  1.2105
   23MOL    H75 8479   0.141   3.377   1.119 -1.4147 -1.7974 -4.3630
   23MOL    H76 8480   8.123   3.233   1.160 -1.1009 -0.8042  1.5472
   23MOL    H77 8481   7.900   3.333   1.210  0.9816 -0.8540  2.0442
   23MOL    C78 8482   7.837   3.602   1.188 -0.1234 -0.5894  0.0847
   23MOL    C79 8483   7.727   3.622   1.089  1.2011 -0.1556 -0.3951
   23MOL    O80 8484   7.722   3.515   1.186  0.3712  0.5531 -0.0249
   23MOL    C81 8485   7.749   3.581   0.944 -0.1280  0.3070 -0.2438
   23MOL    O82 8486   7.634   3.537   0.868  0.3428  0.0257  0.2650
   23MOL    C83 8487   7.655   3.483   0.744  0.1828 -0.5165  0.1181
   23MOL    C84 8488   7.776   3.485   0.677 -0.1841  0.5598 -0.0851
   23MOL    C85 8489   7.789   3.418   0.556 -0.2273 -0.0543  0.0799
   23MOL    C86 8490   7.677   3.355   0.494 -0.1356 -0.9691  0.8642
   23MOL    C87 8491   7.555   3.351   0.564  0.4417 -0.8122 -0.3198
   23MOL    C88 8492   7.542   3.412   0.689 -0.0057  1.1418 -0.0253
   23MOL    H89 8493   7.843   3.669   1.273  1.4927 -2.0383  1.1473
   23MOL    H90 8494   7.660   3.705   1.109 -0.8353 -2.3192  2.1421
   23MOL    H91 8495   7.838   3.517   0.948 -0.1543  0.2338 -0.9306
   23MOL    H92 8496   7.783   3.673   0.898  1.3897 -0.9709 -1.7394
   23MOL    H93 8497   7.861   3.525   0.731  0.4553  1.0609 -1.4388
   23MOL    H94 8498   7.884   3.422   0.505 -0.3785  0.9611 -0.1322
   23MOL    H95 8499   7.668   3.322   0.391  0.8186  0.2983  0.3624
   23MOL    H96 8500   7.471   3.310   0.510  0.8369 -1.1553 -0.6768
   23MOL    C97 8501   7.411   3.419   0.759 -0.3090  0.2612  0.2442
   23MOL    C98 8502   7.305   3.522   0.739 -0.1278 -0.7018  0.1082
   23MOL    O99 8503   7.295   3.392   0.678 -0.5685 -0.1562 -0.2058
   23MOL   C100 8504   7.311   3.636   0.646  0.6158  0.3418  0.1003
   23MOL   O101 8505   7.180   3.622   0.596 -0.4345  0.0083  0.1913
   23MOL   C102 8506   7.175   3.685   0.474 -0.3961 -0.0423 -0.2786
   23MOL   C103 8507   7.162   3.826   0.467 -0.0980 -0.1730  0.1068
   23MOL   C104 8508   7.157   3.888   0.342  0.1276  0.1224 -0.6759
   23MOL   C105 8509   7.149   3.808   0.225 -0.0153  0.4456 -0.0682
   23MOL   C106 8510   7.151   3.668   0.231 -0.2075  0.2805 -0.2041
   23MOL   C107 8511   7.164   3.605   0.353 -0.6114 -0.2736 -0.6117
   23MOL   H108 8512   7.414   3.359   0.849  1.3202  1.0269  0.7250
   23MOL   H109 8513   7.253   3.544   0.831 -0.5108  1.8632 -0.6791
   23MOL   H110 8514   7.386   3.622   0.569 -0.4855  2.3359 -1.3626
   23MOL   H111 8515   7.316   3.730   0.701  0.9146  1.0418 -1.1195
   23MOL   H112 8516   7.159   3.886   0.557  1.9124 -0.2138  0.2254
   23MOL   H113 8517   7.142   3.995   0.343 -3.1475 -0.2862  2.2562
   23MOL   H114 8518   7.134   3.858   0.130  0.4304  0.3511 -0.1894
   23MOL   H115 8519   7.133   3.602   0.147 -1.5589 -0.6268  0.7694
   23MOL   C116 8520   7.168   3.456   0.356  0.2369 -0.3233 -0.2045
   23MOL   C117 8521   7.054   3.360   0.389  0.9296 -0.7811 -0.0943
   23MOL   O118 8522   7.084   3.403   0.251 -0.0307  0.6590 -0.2836
   23MOL   C119 8523   6.915   3.409   0.434 -0.1041  0.4818  0.5824
   23MOL   O120 8524   6.846   3.305   0.509 -0.4562  0.3781  0.3079
   23MOL   C121 8525   6.889   3.269   0.638 -0.7873 -1.1944 -0.6094
   23MOL   C122 8526   6.989   3.339   0.706 -0.2472  0.8393  0.3413
   23MOL   C123 8527   7.028   3.292   0.837  0.1792 -0.7588  0.0409
   23MOL   C124 8528   6.952   3.194   0.906 -0.3520  0.0904  0.3737
   23MOL   C125 8529   6.851   3.129   0.836  0.5129  0.3578  0.1111
   23MOL   C126 8530   6.821   3.167   0.706 -0.7113  0.3397 -0.8695
   23MOL   H127 8531   7.271   3.422   0.351  0.3262 -0.1481  0.3733
   23MOL   H128 8532   7.068   3.252   0.395  1.1827 -0.9326 -2.7005
   23MOL   H129 8533   6.855   3.424   0.344 -0.1789 -1.4555  0.2758
   23MOL   H130 8534   6.923   3.499   0.495 -0.8374  0.1950  1.1103
   23MOL   H131 8535   7.044   3.421   0.661 -0.3390  0.3484 -0.6741
   23MOL   H132 8536   7.114   3.345   0.874  0.5814 -1.3668 -0.0249
   23MOL   H133 8537   6.982   3.172   1.007 -0.3939  0.1324  0.3953
   23MOL   H134 8538   6.808   3.043   0.884 -1.0849  1.7207  1.1708
   23MOL   C135 8539   6.709   3.100   0.640 -0.7720  0.0838  0.2714
   23MOL   C136 8540   6.714   3.011   0.521  0.4735 -0.1285 -0.6761
   23MOL   O137 8541   6.715   2.957   0.654 -0.0560  0.3421  0.4122
   23MOL   C138 8542   6.847   2.998   0.440 -0.4257  0.8108  1.1134
   23MOL   O139 8543   6.837   2.878   0.360  0.4440 -0.3237  0.2228
   23MOL   C140 8544   6.953   2.820   0.311 -0.2691  0.1280 -0.1739
   23MOL   C141 8545   7.088   2.861   0.336 -0.1721  0.2919 -0.2801
   23MOL   C142 8546   7.200   2.792   0.280 -0.4059  0.1146 -0.3016
   23MOL   C143 8547   7.173   2.677   0.213 -0.1426 -0.2959 -0.7322
   23MOL   C144 8548   7.048   2.635   0.184  0.6662  0.3530 -0.0381
   23MOL   C145 8549   6.935   2.707   0.226 -0.3710  0.2059 -0.2171
   23MOL   H146 8550   6.617   3.143   0.677 -1.2327  0.0486 -0.8148
   23MOL   H147 8551   6.623   2.992   0.465 -0.3748  1.7084  0.0477
   23MOL   H148 8552   6.927   2.974   0.511 -0.8836 -0.1416  1.3141
   23MOL   H149 8553   6.866   3.090   0.385  0.2568 -1.8558 -3.2646
   23MOL   H150 8554   7.109   2.943   0.403  0.1349 -0.5132  0.6052
   23MOL   H151 8555   7.298   2.814   0.319 -0.8817 -0.3516  1.1942
   23MOL   H152 8556   7.249   2.625   0.157  1.0867  0.5519  0.0929
   23MOL   H153 8557   7.026   2.553   0.117  1.5539  1.3590 -1.6056
   23MOL   C154 8558   6.799   2.663   0.176 -0.4576  0.4894  0.3221
   23MOL   C155 8559   6.751   2.668   0.033 -0.2230 -0.1666  0.7110
   23MOL   O156 8560   6.803   2.551   0.094 -0.9486  0.2958 -0.0652
   23MOL   C157 8561   6.824   2.742   8.095 -0.7110  0.2163  0.4475
   23MOL   O158 8562   6.738   2.748   7.982  0.0240  0.0889  0.1313
   23MOL   C159 8563   6.774   2.826   7.872  0.0132  0.0224  0.0472
   23MOL   C160 8564   6.878   2.915   7.865  0.6920  0.4714 -0.0218
   23MOL   C161 8565   6.898   2.982   7.743  0.2621 -0.7779  0.1640
   23MOL   C162 8566   6.810   2.974   7.637  0.7989 -0.2014 -0.0832
   23MOL   C163 8567   6.706   2.884   7.643 -0.2481  0.4314  0.5359
   23MOL   C164 8568   6.684   2.808   7.759 -0.0236  0.0973 -0.3586
   23MOL   H165 8569   6.730   2.647   0.259 -0.9726 -2.6178 -0.6504
   23MOL   H166 8570   6.642   2.672   0.032 -0.2787 -1.3729 -0.4096
   23MOL   H167 8571   6.924   2.702   8.081 -0.6333  1.2827 -2.5232
   23MOL   H168 8572   6.841   2.843   8.133 -0.3621 -0.6340  2.5922
   23MOL   H169 8573   6.950   2.922   7.945  0.8717 -2.1087  0.0781
   23MOL   H170 8574   6.978   3.054   7.734  0.3800 -1.1820 -2.2223
   23MOL   H171 8575   6.826   3.034   7.549 -0.3850  2.4909  1.4847
   23MOL   H172 8576   6.641   2.868   7.558  1.0073  2.2430 -0.7924
   23MOL   C173 8577   6.580   2.700   7.754 -1.1498 -0.5650 -0.1312
   23MOL   C174 8578   6.453   2.725   7.827 -0.4932  0.1157 -1.0587
   23MOL   O175 8579   6.458   2.743   7.688 -0.3782  0.1844  0.6129
   23MOL   C176 8580   6.434   2.848   7.915 -0.3252  0.1496  0.4582
   23MOL   O177 8581   6.293   2.853   7.960  0.5376  1.2854 -0.5858
   23MOL   C178 8582   6.214   2.961   7.923  0.2757  0.8792 -0.3799
   23MOL   C179 8583   6.227   3.028   7.800  0.5602  0.5754 -0.0215
   23MOL   C180 8584   6.150   3.138   7.766  0.7719 -0.4453  0.3811
   23MOL   C181 8585   6.052   3.183   7.854  0.4172  0.1886 -0.0011
   23MOL   C182 8586   6.029   3.112   7.975  0.0347 -0.1198 -0.0899
   23MOL   C183 8587   6.108   2.998   8.010  0.3480  0.9564 -0.0691
   23MOL   H184 8588   6.608   2.598   7.730 -2.6025 -0.9535 -0.1825
   23MOL   H185 8589   6.402   2.637   7.866  2.9691 -1.6485 -0.2847
   23MOL   H186 8590   6.455   2.941   7.861 -2.4572  0.0324 -0.6399
   23MOL   H187 8591   6.493   2.837   8.006 -0.9832 -1.2582  0.7268
   23MOL   H188 8592   6.285   2.988   7.719 -2.1474 -1.8146 -0.8503
   23MOL   H189 8593   6.170   3.185   7.671  2.4190  0.2535  1.0495
   23MOL   H190 8594   5.991   3.269   7.830 -0.2044  0.1643  1.4787
   23MOL   H191 8595   5.943   3.137   8.035 -0.3782 -0.1226 -0.6812
   23MOL   C192 8596   6.077   2.920   8.132 -0.0509  0.7218  0.3441
   23MOL   C193 8597   6.169   2.896   0.081  0.5315  0.1594 -0.7416
   23MOL   O194 8598   6.074   3.006   0.078 -0.2500  0.1653  0.2941
   23MOL   C195 8599   6.323   2.913   0.069  0.1607 -0.4912 -0.2927
   23MOL   O196 8600   6.363   2.943   0.199  0.5708  0.5825  0.1819
   23MOL   C197 8601   6.472   3.023   0.200  0.9117  0.5811  0.5586
   23MOL   C198 8602   6.596   2.968   0.173  0.2543  0.2869  0.4785
   23MOL   C199 8603   6.713   3.054   0.162 -0.2982 -0.2350  0.0346
   23MOL   C200 8604   6.696   3.193   0.176 -0.2690  0.2669 -0.5905
   23MOL   C201 8605   6.574   3.246   0.214 -0.0596  0.2594  0.4849
   23MOL   C202 8606   6.459   3.168   0.222  1.2318 -0.1851  0.3651
   23MOL   H203 8607   5.995   2.849   8.122  0.0467  0.5694  0.6185
   23MOL   H204 8608   6.135   2.824   0.155  0.2809 -0.5955 -1.5776
   23MOL   H205 8609   6.354   2.974   8.153 -0.0476  0.8503  0.5689
   23MOL   H206 8610   6.372   2.816   0.059  2.7634  0.8195 -0.7607
   23MOL   H207 8611   6.611   2.863   0.157 -3.3862  0.1358 -2.7496
   23MOL   H208 8612   6.810   3.016   0.132 -0.3241  0.8190 -1.4635
   23MOL   H209 8613   6.779   3.262   0.170  0.4674 -0.7146 -1.7723
   23MOL   H210 8614   6.558   3.353   0.221 -0.7735  0.1992 -0.1248
   23MOL   C211 8615   6.323   3.218   0.243  0.1517  0.8107  0.0270
   23MOL   C212 8616   6.268   3.241   0.382 -0.8345  0.8557 -0.1008
   23MOL   O213 8617   6.319   3.350   0.305 -0.5328  0.4344 -0.1126
   23MOL   C214 8618   6.344   3.219   0.512 -0.2361  0.1292  1.0531
   23MOL   O215 8619   6.299   3.309   0.609  0.4049 -0.2630 -0.0224
   23MOL   C216 8620   6.166   3.308   0.652  0.4896  0.6459 -0.5788
   23MOL   C217 8621   6.094   3.187   0.675  0.1731 -0.0856  0.0957
   23MOL   C218 8622   5.961   3.192   0.713  0.3547 -0.6715 -0.1086
   23MOL   C219 8623   5.898   3.318   0.728  0.1472  0.5673 -0.1121
   23MOL   C220 8624   5.970   3.436   0.700  0.0726 -1.2229 -0.0187
   23MOL   C221 8625   6.105   3.432   0.667 -0.9114 -0.7599 -0.1007
   23MOL   H222 8626   6.250   3.206   0.163 -1.0052  0.1780  1.1560
   23MOL   H223 8627   6.162   3.221   0.385 -0.7096  0.0486 -0.9392
   23MOL   H224 8628   6.450   3.244   0.498 -0.5680  0.6680 -0.6161
   23MOL   H225 8629   6.322   3.118   0.544  1.4669 -0.2724  0.9929
   23MOL   H226 8630   6.136   3.088   0.660 -0.9151 -0.5440  0.0580
   23MOL   H227 8631   5.889   3.111   0.716  0.6995 -0.9908 -0.3304
   23MOL   H228 8632   5.795   3.332   0.756 -0.5765 -0.5224 -2.1253
   23MOL   H229 8633   5.912   3.527   0.700 -0.2773 -1.4341  1.1378
   23MOL   C230 8634   6.172   3.568   0.635  0.5563  0.1311  0.6304
   23MOL   C231 8635   6.163   3.635   0.512 -0.4007  0.2509  0.2984
   23MOL   O232 8636   6.088   3.681   0.630  0.4187  0.1040  0.3193
   23MOL   C233 8637   6.089   3.593   0.389 -0.4103 -0.0336  0.7525
   23MOL   O234 8638   6.135   3.665   0.271 -0.1822  0.2438 -0.5513
   23MOL   C235 8639   6.132   3.601   0.152  0.6347  0.2575  0.8061
   23MOL   C236 8640   6.071   3.477   0.126  0.3792 -0.2861  0.8946
   23MOL   C237 8641   6.061   3.417   8.168 -0.3746 -0.1852 -0.7640
   23MOL   C238 8642   6.132   3.480   8.063 -0.1967  0.0883  0.3677
   23MOL   C239 8643   6.191   3.607   8.081 -0.3205  0.9944  0.0001
   23MOL   C240 8644   6.187   3.665   0.039 -0.6898  0.9265  0.0281
   23MOL   H241 8645   6.263   3.577   0.694  0.3721  0.6962  0.8305
   23MOL   H242 8646   6.243   3.706   0.488 -0.7548  0.6706  0.3493
   23MOL   H243 8647   5.983   3.608   0.406 -0.3504  1.1753  0.1437
   23MOL   H244 8648   6.102   3.486   0.378 -0.8344 -0.0889  0.7910
   23MOL   H245 8649   6.016   3.427   0.205 -0.0191  0.4774  1.1067
   23MOL   H246 8650   6.003   3.328   8.148  0.9488 -1.1416 -0.4389
   23MOL   H247 8651   6.147   3.433   7.967  2.9238 -2.9878  2.2501
   23MOL   H248 8652   6.249   3.655   8.003 -1.3673  0.3828 -1.1858
   23MOL   C249 8653   6.274   3.782   0.062 -0.0864 -0.2855 -0.3860
   23MOL   C250 8654   6.390   3.776   0.166  0.3795  0.0477 -0.8409
   23MOL   O251 8655   6.415   3.767   0.024 -0.1189 -0.1543 -0.4705
   23MOL   C252 8656   6.447   3.667   0.238  0.7397 -0.0846  0.2414
   23MOL   O253 8657   6.573   3.702   0.301  0.1396 -0.5494  0.1899
   23MOL   C254 8658   6.677   3.708   0.206 -0.3485 -0.4336 -0.1798
   23MOL   C255 8659   6.732   3.597   0.142  0.0743  0.0503 -0.4441
   23MOL   C256 8660   6.838   3.615   0.040 -0.3953 -0.0632 -0.8490
   23MOL   C257 8661   6.894   3.739   0.015 -0.4343 -0.7734 -0.2451
   23MOL   C258 8662   6.851   3.847   0.094 -0.2758  0.1037  0.5640
   23MOL   C259 8663   6.739   3.831   0.179  0.3233 -0.0295  1.3029
   23MOL   H260 8664   6.227   3.875   0.030 -2.5861 -0.8797  1.3792
   23MOL   H261 8665   6.404   3.871   0.218  1.9722 -0.5978 -0.0622
   23MOL   H262 8666   6.450   3.576   0.179 -0.1096  0.9546 -1.4587
   23MOL   H263 8667   6.381   3.641   0.321 -0.5072  0.0115 -0.7012
   23MOL   H264 8668   6.709   3.498   0.177  1.2569 -0.1753 -0.2980
   23MOL   H265 8669   6.887   3.529   8.166  0.2917  0.8101 -1.7963
   23MOL   H266 8670   6.976   3.752   8.116 -1.5684 -0.7716 -1.6163
   23MOL   H267 8671   6.894   3.942   0.065  1.4141 -0.6106  0.6902
   23MOL   C268 8672   6.680   3.960   0.240  0.0491  0.6193  0.3409
   23MOL   C269 8673   6.706   4.007   0.384  0.2523  0.3466  0.0608
   23MOL   O270 8674   6.775   4.062   0.268  0.0707  0.1813  0.3268
   23MOL   C271 8675   6.793   3.932   0.474 -0.2217  0.4855  0.0021
   23MOL   O272 8676   6.836   4.016   0.572  0.0068  0.0434 -0.2447
   23MOL   C273 8677   6.914   3.963   0.674  0.3947 -0.3988 -0.0037
   23MOL   C274 8678   6.904   3.830   0.723 -0.2590  0.5599 -0.0823
   23MOL   C275 8679   6.964   3.783   0.844 -0.0220  0.0477  0.1568
   23MOL   C276 8680   7.032   3.878   0.923  0.2852 -0.4626 -0.9632
   23MOL   C277 8681   7.045   4.011   0.875  0.2675  0.5852  0.1880
   23MOL   C278 8682   6.990   4.056   0.748 -1.1015  0.5010  0.4938
   23MOL   H279 8683   6.591   4.001   0.194 -0.7803  0.1016  1.4486
   23MOL   H280 8684   6.630   4.073   0.423 -1.0720 -0.7588 -0.5949
   23MOL   H281 8685   6.874   3.887   0.416 -0.2477 -0.8395  0.9600
   23MOL   H282 8686   6.732   3.852   0.516  1.3535 -0.8999 -0.2738
   23MOL   H283 8687   6.842   3.760   0.669 -2.0943  0.8447  1.6224
   23MOL   H284 8688   6.958   3.680   0.878  1.8890  0.3026  1.3817
   23MOL   H285 8689   7.060   3.855   1.024 -0.9041  1.8514 -0.0695
   23MOL   H286 8690   7.097   4.082   0.937 -1.4099  1.5000  0.5768
   23MOL   C287 8691   6.990   4.197   0.707  0.1330 -0.5702  0.3314
   23MOL   C288 8692   6.880   4.296   0.745  0.1963  0.1481 -0.0244
   23MOL   O289 8693   7.008   4.288   0.816 -0.2554  0.6435  0.0536
   23MOL   C290 8694   6.764   4.281   0.844  0.2211  0.0157  0.2227
   23MOL   O291 8695   6.659   4.359   0.802  0.1108  0.1096 -0.1173
   23MOL   C292 8696   6.635   4.486   0.845 -0.2539  1.2374 -0.3227
   23MOL   C293 8697   6.733   4.584   0.871 -0.3466  0.9690 -0.0950
   23MOL   C294 8698   6.699   4.713   0.916 -0.6072  0.4362  0.4405
   23MOL   C295 8699   6.569   4.742   0.936  0.8484 -0.4661  0.4011
   23MOL   C296 8700   6.462   4.642   0.927  0.3642  0.2319  0.8719
   23MOL   C297 8701   6.497   4.516   0.873  0.0082 -0.3952 -0.1225
   23MOL   H298 8702   7.053   4.207   0.619  0.0199 -0.7287  0.2315
   23MOL   H299 8703   6.869   4.385   0.683 -0.7841  0.0760  0.0513
   23MOL   H300 8704   6.803   4.310   0.942  1.4273  1.2331 -0.5858
   23MOL   H301 8705   6.739   4.176   0.858 -0.0237  0.0655  0.1625
   23MOL   H302 8706   6.838   4.568   0.847 -0.8866 -2.1147 -0.5345
   23MOL   H303 8707   6.776   4.786   0.935  1.5076 -0.7976 -3.0007
   23MOL   H304 8708   6.542   4.840   0.971  0.7852 -0.1702 -0.4718
   23MOL   H305 8709   6.357   4.663   0.938  0.1080 -0.6254  0.0523
   23MOL   C306 8710   6.382   4.419   0.863  0.2298  0.1973  1.1180
   23MOL   C307 8711   6.354   4.321   0.970  0.2134 -0.4150  0.4887
   23MOL   O308 8712   6.276   4.438   0.961  0.2466 -0.3408 -0.2627
   23MOL   C309 8713   6.454   4.300   1.086 -0.4176  0.2986  0.0523
   23MOL   O310 8714   6.383   4.242   1.193 -0.0776  0.1282 -0.0059
   23MOL   C311 8715   6.307   4.323   1.273 -0.1414 -1.0693  0.3202
   23MOL   C312 8716   6.299   4.469   1.271  0.6291 -0.2970  0.0007
   23MOL   C313 8717   6.226   4.540   1.366 -0.0938 -0.6929  0.2139
   23MOL   C314 8718   6.153   4.473   1.472  0.3103 -0.1137  0.3767
   23MOL   C315 8719   6.154   4.329   1.468  0.1009  0.2165  0.1423
   23MOL   C316 8720   6.218   4.257   1.363  0.1031 -0.0167  0.5514
   23MOL   H317 8721   6.347   4.410   0.761 -2.1404 -1.1017  1.9974
   23MOL   H318 8722   6.292   4.236   0.944 -0.5201 -0.8208  3.3411
   23MOL   H319 8723   6.523   4.380   1.114  0.7291 -0.7485  0.2114
   23MOL   H320 8724   6.518   4.216   1.061  1.1064  1.1434  1.0454
   23MOL   H321 8725   6.351   4.525   1.195 -2.3868  0.7221 -1.4207
   23MOL   H322 8726   6.223   4.647   1.361 -0.3657 -0.7780 -3.6573
   23MOL   H323 8727   6.095   4.527   1.545 -0.4623 -1.0011  0.4355
   23MOL   H324 8728   6.105   4.274   1.547  1.4707 -0.6874  0.3887
   23MOL   C325 8729   6.212   4.106   1.354 -0.2546  0.1365 -0.7232
   23MOL   C326 8730   6.265   4.016   1.466  0.4495  0.5124 -0.0953
   23MOL   O327 8731   6.127   4.042   1.452 -0.6335 -0.0531 -0.6349
   23MOL   C328 8732   6.325   4.067   1.594 -0.2163  0.1172  0.4103
   23MOL   O329 8733   6.362   3.954   1.672  0.2024 -0.2008 -0.1339
   23MOL   C330 8734   6.431   3.968   1.793 -0.2672 -0.2675  0.8517
   23MOL   C331 8735   6.443   4.091   1.856  0.0773  0.1411  0.1985
   23MOL   C332 8736   6.496   4.106   1.985 -0.5135 -0.6270 -0.3426
   23MOL   C333 8737   6.547   3.991   2.050 -0.2081  0.0269  0.1972
   23MOL   C334 8738   6.527   3.866   1.991 -0.2531 -0.2756  0.1073
   23MOL   C335 8739   6.469   3.851   1.868  0.1148  1.5525  0.4496
   23MOL   H336 8740   6.184   4.070   1.256 -0.7649 -1.0963 -0.1328
   23MOL   H337 8741   6.304   3.922   1.429 -0.1092 -0.3009  1.3517
   23MOL   H338 8742   6.254   4.132   1.646 -1.7901 -1.3952  0.2023
   23MOL   H339 8743   6.416   4.118   1.563  0.6813 -1.1437  0.9249
   23MOL   H340 8744   6.394   4.177   1.812  0.5121 -0.0217 -0.6088
   23MOL   H341 8745   6.498   4.203   2.032  2.0025 -0.4548 -0.7471
   23MOL   H342 8746   6.592   3.993   2.148 -0.8679  2.6226  0.4747
   23MOL   H343 8747   6.562   3.779   2.045  2.1040 -0.5934 -1.8532
   23MOL   C344 8748   6.433   3.708   1.825 -0.6321  0.9042  0.9641
   23MOL   C345 8749   6.498   3.640   1.712  0.6213 -0.2729 -0.3129
   23MOL   O346 8750   6.541   3.618   1.847  0.2508  0.0207  0.5038
   23MOL   C347 8751   6.613   3.695   1.624  0.6310  0.2006  0.0355
   23MOL   O348 8752   6.663   3.600   1.533  0.6588  0.5339  0.4294
   23MOL   C349 8753   6.766   3.517   1.561  0.3132 -0.5728  0.0973
   23MOL   C350 8754   6.830   3.520   1.691  0.5668  0.4005 -0.0509
   23MOL   C351 8755   6.927   3.425   1.714 -0.2669  0.1976 -0.2687
   23MOL   C352 8756   6.977   3.340   1.617 -0.1400  0.3000 -0.2552
   23MOL   C353 8757   6.929   3.347   1.489  0.3963  0.3222 -0.2783
   23MOL   C354 8758   6.824   3.435   1.454  0.3563 -0.7195 -0.4520
   23MOL   H355 8759   6.333   3.680   1.858 -0.4101 -1.4776 -0.2558
   23MOL   H356 8760   6.428   3.569   1.670 -0.0846 -0.4559  1.1489
   23MOL   H357 8761   6.680   3.764   1.677  1.2994  0.7672 -1.5168
   23MOL   H358 8762   6.557   3.758   1.555  0.6536  1.5650  1.2323
   23MOL   H359 8763   6.789   3.575   1.775 -0.6916  2.1178 -1.7225
   23MOL   H360 8764   6.975   3.419   1.810  0.8652  0.9261 -0.7774
   23MOL   H361 8765   7.060   3.274   1.636  0.0840  0.2570 -1.4040
   23MOL   H362 8766   6.973   3.277   1.420  1.6022 -0.7272  1.5262
   23MOL   C363 8767   6.787   3.460   1.314 -0.3674 -0.5261  0.3076
   23MOL   C364 8768   6.854   3.562   1.233  0.3741 -0.7496 -0.5680
   23MOL   O365 8769   6.910   3.436   1.242 -0.3812 -0.4909 -0.5521
   23MOL   C366 8770   6.957   3.665   1.289 -0.0790 -0.0059 -0.5492
   23MOL   O367 8771   6.955   3.788   1.220  0.4785 -0.1450 -0.1755
   23MOL   C368 8772   6.859   3.888   1.257 -0.0572 -0.3234 -0.3757
   23MOL   C369 8773   6.760   3.870   1.352 -0.3719  0.3152  1.3573
   23MOL   C370 8774   6.668   3.969   1.378  0.3424  0.0417 -0.4586
   23MOL   C371 8775   6.669   4.091   1.310  0.4510 -0.8311 -0.2948
   23MOL   C372 8776   6.770   4.113   1.218  0.0896 -0.2834 -0.6771
   23MOL   C373 8777   6.872   4.019   1.195 -0.8100  0.3209  0.3804
   23MOL   H374 8778   6.698   3.404   1.287 -2.3035  2.0794  1.1013
   23MOL   H375 8779   6.832   3.587   1.129  2.1424 -0.9127 -0.9966
   23MOL   H376 8780   7.060   3.631   1.275 -0.7286 -1.5628 -1.6922
   23MOL   H377 8781   6.953   3.683   1.397  0.8623 -1.5200 -0.2544
   23MOL   H378 8782   6.755   3.779   1.410  0.9113 -1.2247 -0.8467
   23MOL   H379 8783   6.591   3.961   1.453 -1.4863  2.1659 -2.0379
   23MOL   H380 8784   6.599   4.171   1.329  1.1752 -0.1689 -0.4037
   23MOL   H381 8785   6.781   4.206   1.164 -0.0563 -1.2380 -2.3868
   23MOL   H382 8786   6.945   4.036   1.118 -0.1524  0.0363  0.9406
   24MOL     C1 8787   3.318   6.589   0.431  0.4783  0.4779  0.7988
   24MOL     C2 8788   3.404   6.572   0.553  0.2429  0.4709 -0.2647
   24MOL     O3 8789   3.266   6.538   0.552 -0.4001 -0.1835 -0.1578
   24MOL     C4 8790   3.457   6.700   0.614 -0.1409  0.0475  0.0611
   24MOL     O5 8791   3.476   6.687   0.747  0.2848  0.2669 -0.4843
   24MOL     C6 8792   3.554   6.779   0.805  0.0455 -0.4286  0.3354
   24MOL     C7 8793   3.561   6.909   0.757 -0.0228 -0.4346  0.3987
   24MOL     C8 8794   3.621   7.010   0.838  0.2807  0.4727  0.1997
   24MOL     C9 8795   3.676   6.976   0.965 -0.7937  0.3683  0.1155
   24MOL    C10 8796   3.690   6.842   1.002  0.3293 -0.3197  0.4602
   24MOL    C11 8797   3.617   6.745   0.928 -0.7426  0.1386 -0.4116
   24MOL    H12 8798   3.298   6.508   0.362  0.6263  1.1356 -0.0230
   24MOL    H13 8799   3.473   6.488   0.544 -2.5047 -1.9348  0.6121
   24MOL    H14 8800   3.384   6.777   0.592 -0.5448 -0.8167 -1.7169
   24MOL    H15 8801   3.552   6.722   0.566 -0.2773  1.8744  0.6038
   24MOL    H16 8802   3.500   6.945   0.675 -0.7900 -0.3042  1.0157
   24MOL    H17 8803   3.616   7.114   0.809 -1.5382  0.9536  2.1243
   24MOL    H18 8804   3.708   7.054   1.033 -1.6078  0.1504  0.7534
   24MOL    H19 8805   3.730   6.812   1.098 -0.8667  0.8932  1.3701
   24MOL    H20 8806   3.277   6.687   0.404 -0.6975  0.1926  1.5064
   24MOL    C21 8807   3.593   6.612   0.999 -0.3606 -0.0412  0.0552
   24MOL    C22 8808   3.623   6.476   0.943 -0.3124 -0.8152  0.0997
   24MOL    O23 8809   3.721   6.550   1.025 -0.1160  0.0633  0.0871
   24MOL    C24 8810   3.675   6.445   0.804  0.2309 -0.0151  0.6379
   24MOL    O25 8811   3.770   6.337   0.803 -0.1769 -0.0854  0.1130
   24MOL    C26 8812   3.727   6.206   0.831 -0.6557 -0.7975  0.3142
   24MOL    C27 8813   3.592   6.160   0.827  0.1691 -0.2036  0.0853
   24MOL    C28 8814   3.564   6.023   0.855 -1.1540  0.0148  0.7404
   24MOL    C29 8815   3.668   5.935   0.880 -0.4138  0.0885  0.0460
   24MOL    C30 8816   3.799   5.978   0.891  0.0111  0.0532  0.4321
   24MOL    C31 8817   3.831   6.111   0.856 -0.0381 -0.6308 -0.2245
   24MOL    H32 8818   3.546   6.626   1.096 -1.1532 -2.0095 -0.0206
   24MOL    H33 8819   3.578   6.386   0.983 -2.2500  0.4760  0.8864
   24MOL    H34 8820   3.721   6.533   0.759  0.0358 -0.0809  0.3100
   24MOL    H35 8821   3.591   6.424   0.738  0.4645 -0.4286  0.4698
   24MOL    H36 8822   3.505   6.224   0.820 -0.8471 -1.3523  1.8350
   24MOL    H37 8823   3.465   5.980   0.854 -0.9013 -0.5699 -0.6109
   24MOL    H38 8824   3.658   5.829   0.897  1.4753 -0.4172 -1.7884
   24MOL    H39 8825   3.873   5.907   0.923 -0.5817 -0.0036  1.7232
   24MOL    C40 8826   3.975   6.155   0.858  0.0543 -0.5551 -0.1576
   24MOL    C41 8827   4.037   6.225   0.976  0.0306 -0.0699 -0.0631
   24MOL    O42 8828   4.038   6.081   0.963  0.0877 -0.3392 -0.9642
   24MOL    C43 8829   3.973   6.286   1.099 -0.5529 -0.0599 -0.5984
   24MOL    O44 8830   4.035   6.244   1.223 -0.1490  0.3565 -0.2560
   24MOL    C45 8831   3.979   6.288   1.345  0.5439 -0.2143  1.0107
   24MOL    C46 8832   3.882   6.394   1.348 -0.7009  0.1004  0.5199
   24MOL    C47 8833   3.812   6.428   1.468 -0.9921 -0.3542 -0.0619
   24MOL    C48 8834   3.847   6.362   1.588 -0.1489  0.6282  0.2251
   24MOL    C49 8835   3.942   6.256   1.584 -0.3472  0.5182 -0.5434
   24MOL    C50 8836   4.007   6.221   1.463 -0.1333  0.1639 -0.5189
   24MOL    H51 8837   4.025   6.142   0.763 -0.1199 -0.1052 -0.3134
   24MOL    H52 8838   4.130   6.276   0.951 -0.1186  0.0891 -0.2937
   24MOL    H53 8839   3.867   6.260   1.098 -0.5368 -0.4925  2.8479
   24MOL    H54 8840   3.973   6.393   1.081 -0.8659  0.1772  0.6993
   24MOL    H55 8841   3.846   6.437   1.256 -0.4065 -2.3135 -0.7652
   24MOL    H56 8842   3.744   6.511   1.458 -1.0147 -0.4435 -0.6900
   24MOL    H57 8843   3.803   6.389   1.682  0.6029 -0.1278  0.7989
   24MOL    H58 8844   3.961   6.201   1.675 -1.0619  0.0934 -0.6527
   24MOL    C59 8845   4.107   6.115   1.460  0.2125 -0.0271  0.4418
   24MOL    C60 8846   4.255   6.137   1.491 -0.4140  0.7219  0.7919
   24MOL    O61 8847   4.162   6.096   1.590 -0.4217  0.2048 -0.5188
   24MOL    C62 8848   4.329   6.273   1.495  0.1473  0.3300 -0.3057
   24MOL    O63 8849   4.461   6.260   1.535 -0.4296 -0.5586  0.0881
   24MOL    C64 8850   4.540   6.373   1.541 -0.1377 -0.2524  0.3893
   24MOL    C65 8851   4.482   6.501   1.536  0.1540  0.2374  0.1296
   24MOL    C66 8852   4.563   6.612   1.554  0.0114 -0.6653  0.1359
   24MOL    C67 8853   4.701   6.602   1.583  0.3922  0.1685  0.6220
   24MOL    C68 8854   4.761   6.474   1.584 -0.0844  0.1123  0.1352
   24MOL    C69 8855   4.681   6.363   1.559  0.4185 -0.5825 -0.7332
   24MOL    H70 8856   4.063   6.026   1.417 -2.0526  1.9206 -1.3867
   24MOL    H71 8857   4.309   6.066   1.428 -0.9682 -0.2259  1.3806
   24MOL    H72 8858   4.263   6.337   1.555 -1.4127 -1.4584 -0.0631
   24MOL    H73 8859   4.334   6.316   1.395 -2.1951  1.7731  0.1567
   24MOL    H74 8860   4.377   6.511   1.512  0.7647  0.6674 -2.5392
   24MOL    H75 8861   4.524   6.712   1.560 -1.3742 -1.2564  1.2330
   24MOL    H76 8862   4.760   6.691   1.601  1.8679 -0.5952 -0.2908
   24MOL    H77 8863   4.869   6.469   1.585  0.1101  2.1914 -3.0713
   24MOL    C78 8864   4.738   6.224   1.566  0.3949  0.9548  0.5918
   24MOL    C79 8865   4.796   6.134   1.467  0.3812 -0.3864  0.5439
   24MOL    O80 8866   4.877   6.224   1.543  0.2489 -0.0504  0.0574
   24MOL    C81 8867   4.784   6.173   1.313  0.4579 -0.3417  0.5124
   24MOL    O82 8868   4.649   6.164   1.265  0.6087  0.0329  0.3484
   24MOL    C83 8869   4.616   6.067   1.176  1.0917 -0.3361  0.0333
   24MOL    C84 8870   4.670   5.936   1.179 -0.5167 -1.2868 -0.4454
   24MOL    C85 8871   4.633   5.833   1.085 -0.2171 -0.4590  0.0907
   24MOL    C86 8872   4.518   5.861   1.004  0.2336 -0.8400 -0.1670
   24MOL    C87 8873   4.451   5.986   1.014  0.0893 -0.5593 -0.0453
   24MOL    C88 8874   4.497   6.090   1.098 -0.5625  0.2968  0.3399
   24MOL    H89 8875   4.713   6.188   1.666  0.2381  0.5495  0.4082
   24MOL    H90 8876   4.801   6.027   1.487 -1.3858 -0.8076 -1.0833
   24MOL    H91 8877   4.861   6.117   1.259  1.0439 -1.6631  2.6588
   24MOL    H92 8878   4.809   6.279   1.308 -0.7942 -0.0707 -0.2016
   24MOL    H93 8879   4.763   5.919   1.230 -0.2151  1.7771  0.0996
   24MOL    H94 8880   4.694   5.743   1.084 -0.4247 -0.6652  2.0714
   24MOL    H95 8881   4.474   5.789   0.936 -2.2273  0.7494 -0.3037
   24MOL    H96 8882   4.359   5.999   0.958 -0.7648 -4.0681  0.4172
   24MOL    C97 8883   4.413   6.222   1.110 -0.7872 -0.6089  0.0125
   24MOL    C98 8884   4.470   6.358   1.088 -0.5734 -0.6118 -0.2567
   24MOL    O99 8885   4.399   6.294   0.988  0.4489  0.6975 -0.2813
   24MOL   C100 8886   4.616   6.389   1.049  0.2024  0.3152  0.2546
   24MOL   O101 8887   4.621   6.507   0.975 -0.2622 -0.6534 -0.5033
   24MOL   C102 8888   4.686   6.619   1.029  0.5923 -0.5094  0.5180
   24MOL   C103 8889   4.704   6.647   1.167  0.0676 -0.5451 -0.1746
   24MOL   C104 8890   4.782   6.757   1.209  0.8116 -0.1425  0.9265
   24MOL   C105 8891   4.830   6.848   1.117  0.5440 -0.3063  0.3222
   24MOL   C106 8892   4.808   6.829   0.979 -0.2022  0.0721 -0.5207
   24MOL   C107 8893   4.735   6.713   0.934  0.4669  0.3927  0.3313
   24MOL   H108 8894   4.317   6.210   1.160 -0.1638 -0.3917  1.2768
   24MOL   H109 8895   4.409   6.441   1.124  0.6399 -0.1599  0.7986
   24MOL   H110 8896   4.653   6.302   0.994 -1.5270  0.0490 -0.5575
   24MOL   H111 8897   4.681   6.396   1.136  1.4999  1.4288 -0.7896
   24MOL   H112 8898   4.653   6.589   1.243  1.5112 -0.0745  1.1980
   24MOL   H113 8899   4.790   6.789   1.312 -3.2414  1.0983  0.9205
   24MOL   H114 8900   4.887   6.935   1.146 -1.0230  1.1772 -0.9243
   24MOL   H115 8901   4.839   6.904   0.908  2.1669 -0.6081 -0.2128
   24MOL   C116 8902   4.728   6.680   0.785 -0.7805  0.3314 -0.2398
   24MOL   C117 8903   4.599   6.652   0.705  0.1459  0.4756 -0.8255
   24MOL   O118 8904   4.669   6.778   0.698 -0.4420  0.2966 -0.1877
   24MOL   C119 8905   4.462   6.649   0.768  0.3184 -0.4396 -0.1020
   24MOL   O120 8906   4.449   6.748   0.874 -1.0804  0.2997 -0.6600
   24MOL   C121 8907   4.324   6.802   0.904  0.1328  0.6500 -0.4275
   24MOL   C122 8908   4.209   6.727   0.879  0.7993  0.1577 -0.3280
   24MOL   C123 8909   4.083   6.786   0.893  0.3445  0.0424 -0.2488
   24MOL   C124 8910   4.076   6.924   0.933  0.0633  0.9228 -0.4488
   24MOL   C125 8911   4.194   6.995   0.966  0.5820 -0.3396  0.4497
   24MOL   C126 8912   4.320   6.936   0.943 -0.7971 -0.0167 -0.3645
   24MOL   H127 8913   4.827   6.649   0.753 -1.6814 -2.3334 -0.5671
   24MOL   H128 8914   4.599   6.605   0.607  1.3434 -0.2313 -0.4929
   24MOL   H129 8915   4.441   6.545   0.793 -0.5499 -0.3587 -0.4487
   24MOL   H130 8916   4.398   6.683   0.687  2.2418  1.5001 -0.8571
   24MOL   H131 8917   4.215   6.622   0.854  0.1341  0.2991 -1.1057
   24MOL   H132 8918   3.988   6.734   0.896 -0.3934  1.3887  1.8382
   24MOL   H133 8919   3.977   6.966   0.939 -0.4377 -0.1022 -1.3683
   24MOL   H134 8920   4.178   7.099   0.991  2.0474 -0.3091  1.3048
   24MOL   C135 8921   4.441   7.021   0.971  0.0099 -0.2899 -0.1752
   24MOL   C136 8922   4.508   7.093   0.862 -0.2032  0.4261  0.0480
   24MOL   O137 8923   4.422   7.162   0.958 -0.8223 -0.1061  0.6151
   24MOL   C138 8924   4.467   7.082   0.716 -0.2636 -0.1543  0.0435
   24MOL   O139 8925   4.530   7.181   0.636  0.3002  0.1415  0.3429
   24MOL   C140 8926   4.534   7.173   0.498 -0.5522 -0.1731 -0.4862
   24MOL   C141 8927   4.608   7.282   0.443 -0.2847  0.1471 -0.5044
   24MOL   C142 8928   4.623   7.295   0.302  0.5539  0.1943 -0.5050
   24MOL   C143 8929   4.575   7.201   0.213  0.2165 -0.1502 -0.4596
   24MOL   C144 8930   4.502   7.091   0.266 -0.0175 -0.1664  0.8451
   24MOL   C145 8931   4.464   7.088   0.403  0.0811 -0.8965  0.8005
   24MOL   H146 8932   4.493   6.976   1.055  0.5702 -1.5214 -1.1583
   24MOL   H147 8933   4.615   7.107   0.876 -0.0593  0.9783 -1.4897
   24MOL   H148 8934   4.359   7.085   0.702 -0.7053  0.5673  3.3709
   24MOL   H149 8935   4.504   6.986   0.679 -1.2779 -0.1384 -1.0689
   24MOL   H150 8936   4.647   7.359   0.507  0.3115  2.5869 -3.6575
   24MOL   H151 8937   4.683   7.377   0.266  0.4379  0.7528  0.5306
   24MOL   H152 8938   4.597   7.211   0.108  4.8750  1.2954  0.5324
   24MOL   H153 8939   4.465   7.018   0.195  2.0163 -0.7596  0.3527
   24MOL   C154 8940   4.362   6.997   0.453 -0.1031  0.4566  0.0300
   24MOL   C155 8941   4.214   7.015   0.455 -0.1293  0.2113  0.3333
   24MOL   O156 8942   4.281   6.952   0.344  0.5469 -0.0149 -0.1957
   24MOL   C157 8943   4.159   7.155   0.430  0.2060 -0.7497 -0.7466
   24MOL   O158 8944   4.203   7.251   0.526  0.5658 -0.0543  0.1534
   24MOL   C159 8945   4.133   7.268   0.645 -0.1316  0.5024  0.3321
   24MOL   C160 8946   4.009   7.196   0.664 -0.2053  0.4650  0.3349
   24MOL   C161 8947   3.931   7.226   0.779  0.3713  1.0471  0.0029
   24MOL   C162 8948   3.984   7.309   0.883  0.3079  0.6603 -0.0595
   24MOL   C163 8949   4.112   7.362   0.866  0.0948  0.1934  0.0334
   24MOL   C164 8950   4.183   7.352   0.743  0.4295 -0.6381 -0.0709
   24MOL   H165 8951   4.394   6.912   0.513 -2.6574 -0.6244 -0.1009
   24MOL   H166 8952   4.156   6.942   0.511  0.3791 -0.1275  0.4181
   24MOL   H167 8953   4.053   7.149   0.405 -0.0807 -1.2623  0.5812
   24MOL   H168 8954   4.216   7.180   0.340  0.1277  2.1858 -0.0259
   24MOL   H169 8955   3.970   7.123   0.595 -1.8547 -0.2915  2.0273
   24MOL   H170 8956   3.846   7.162   0.797  1.0032  0.8067  2.2647
   24MOL   H171 8957   3.938   7.311   0.981  0.9201 -0.5245  0.2668
   24MOL   H172 8958   4.160   7.408   0.951 -1.3150 -0.2675  1.0934
   24MOL   C173 8959   4.314   7.414   0.723 -0.5428  0.0846  0.2513
   24MOL   C174 8960   4.354   7.513   0.614 -0.0006 -0.8727 -0.3558
   24MOL   O175 8961   4.311   7.553   0.745  0.5678  0.1136 -0.4506
   24MOL   C176 8962   4.262   7.546   0.492 -0.2712  0.0686  0.3417
   24MOL   O177 8963   4.277   7.687   0.452  0.0761  0.1193 -0.0578
   24MOL   C178 8964   4.400   7.729   0.409  0.0811  0.6067 -0.0108
   24MOL   C179 8965   4.490   7.642   0.350 -0.6728 -0.3664 -0.0570
   24MOL   C180 8966   4.618   7.689   0.316  0.4323 -0.8730  1.2147
   24MOL   C181 8967   4.656   7.823   0.342 -0.2972  0.1488 -0.5197
   24MOL   C182 8968   4.561   7.908   0.396 -0.5500  0.1339 -0.3151
   24MOL   C183 8969   4.431   7.864   0.426  0.2722  0.1886  0.2297
   24MOL   H184 8970   4.396   7.356   0.765  2.7527  2.4316 -2.6126
   24MOL   H185 8971   4.462   7.515   0.600  0.0411 -2.8295 -0.4851
   24MOL   H186 8972   4.163   7.532   0.536 -0.8143  0.1019 -0.8453
   24MOL   H187 8973   4.264   7.471   0.413 -1.4803  0.1060  0.2627
   24MOL   H188 8974   4.459   7.541   0.329  1.8992 -1.1651 -0.1216
   24MOL   H189 8975   4.684   7.614   0.275 -1.7413 -1.8082 -0.7367
   24MOL   H190 8976   4.758   7.847   0.318  0.4811 -2.3806  0.0760
   24MOL   H191 8977   4.590   8.008   0.422 -2.6172  0.2964  1.5324
   24MOL   C192 8978   4.337   7.960   0.495 -0.1281  0.2230 -0.5579
   24MOL   C193 8979   4.339   7.993   0.643 -0.0887 -0.0876  0.3275
   24MOL   O194 8980   4.407   8.076   0.549  0.3162  0.2397 -0.4096
   24MOL   C195 8981   4.428   7.914   0.734 -0.0807 -0.1740 -0.3549
   24MOL   O196 8982   4.382   7.894   0.868 -0.2870  0.4395  0.0179
   24MOL   C197 8983   4.467   7.827   0.960 -0.2526  0.3943 -0.0078
   24MOL   C198 8984   4.591   7.764   0.917  0.2735 -0.1219  0.5461
   24MOL   C199 8985   4.679   7.712   1.003 -1.3635  0.8455  0.4547
   24MOL   C200 8986   4.654   7.715   1.140  0.7468 -0.1952  0.5151
   24MOL   C201 8987   4.534   7.776   1.188  0.1370 -0.8191 -0.1432
   24MOL   C202 8988   4.438   7.827   1.095 -0.2226  0.6877 -0.0843
   24MOL   H203 8989   4.257   7.989   0.427 -1.6625  1.5899  1.7561
   24MOL   H204 8990   4.267   8.052   0.699 -0.4753 -0.0888 -0.1671
   24MOL   H205 8991   4.525   7.963   0.737 -0.6643  0.8866  1.8459
   24MOL   H206 8992   4.441   7.820   0.681  1.8055  0.3200 -0.7938
   24MOL   H207 8993   4.618   7.747   0.814  2.5978 -0.9899  1.2673
   24MOL   H208 8994   4.780   7.684   0.974 -1.9651 -2.3984  1.2805
   24MOL   H209 8995   4.726   7.677   1.211 -0.5134  0.9977  2.4916
   24MOL   H210 8996   4.515   7.778   1.294 -0.6437  1.5945 -0.2999
   24MOL   C211 8997   4.319   7.897   1.151  0.7375 -0.4035 -0.3290
   24MOL   C212 8998   4.204   7.821   1.214  0.2806 -0.2686  0.5105
   24MOL   O213 8999   4.313   7.867   1.296 -0.2119 -0.2868  0.4170
   24MOL   C214 9000   4.182   7.673   1.201 -0.2953  0.9963 -0.4067
   24MOL   O215 9001   4.129   7.602   1.320  0.3535 -0.1544 -0.0363
   24MOL   C216 9002   4.000   7.617   1.348  0.1533 -0.2340  0.2622
   24MOL   C217 9003   3.910   7.697   1.270 -0.4370  0.3063  0.1003
   24MOL   C218 9004   3.772   7.693   1.299  0.5708  0.1522 -0.0586
   24MOL   C219 9005   3.720   7.623   1.401 -0.2958 -0.1688  0.3814
   24MOL   C220 9006   3.809   7.549   1.479 -0.6529  0.0786 -0.1926
   24MOL   C221 9007   3.945   7.549   1.452  0.1320 -0.3317 -0.2395
   24MOL   H222 9008   4.307   7.998   1.113 -2.1175 -1.0553 -1.2800
   24MOL   H223 9009   4.115   7.884   1.222  1.3868  1.6684 -1.7640
   24MOL   H224 9010   4.272   7.624   1.163  0.4505  1.6061  0.5731
   24MOL   H225 9011   4.112   7.654   1.119  0.2084 -0.1050 -0.5907
   24MOL   H226 9012   3.934   7.762   1.188 -0.5304  3.5559  2.5641
   24MOL   H227 9013   3.700   7.755   1.248 -0.8507 -1.4502 -0.0301
   24MOL   H228 9014   3.615   7.636   1.424 -0.4106  0.4036 -0.4639
   24MOL   H229 9015   3.777   7.504   1.572 -0.8036  2.2052  0.8132
   24MOL   C230 9016   4.037   7.475   1.545 -0.1163  0.2749 -0.0348
   24MOL   C231 9017   4.135   7.546   1.631  0.6435  0.1187  0.2823
   24MOL   O232 9018   4.012   7.492   1.682 -0.3577  0.6289 -0.4767
   24MOL   C233 9019   4.154   7.699   1.633  0.5354  0.7050 -0.4893
   24MOL   O234 9020   4.217   7.738   1.761  0.4464  0.2639 -0.5957
   24MOL   C235 9021   4.357   7.718   1.767  0.2897  0.5932 -0.0227
   24MOL   C236 9022   4.444   7.659   1.670  0.3683  0.0331 -0.0875
   24MOL   C237 9023   4.581   7.634   1.701 -0.3323  0.0269 -0.2395
   24MOL   C238 9024   4.636   7.668   1.828 -0.1564 -0.4451 -0.4216
   24MOL   C239 9025   4.547   7.721   1.925 -1.1171  0.2054 -0.3378
   24MOL   C240 9026   4.414   7.748   1.895 -0.1318  0.1606  0.6190
   24MOL   H241 9027   4.061   7.375   1.512 -0.3187  0.8519 -2.0504
   24MOL   H242 9028   4.219   7.488   1.668  1.7362  0.6590 -1.2984
   24MOL   H243 9029   4.052   7.737   1.624  0.2880  0.3923  0.9568
   24MOL   H244 9030   4.213   7.734   1.548 -1.7247  1.6715 -1.7114
   24MOL   H245 9031   4.401   7.630   1.575  1.9616  1.9502 -1.4483
   24MOL   H246 9032   4.630   7.589   1.616 -0.2779 -0.3351 -0.0177
   24MOL   H247 9033   4.738   7.651   1.856  0.7062  1.7779 -2.0494
   24MOL   H248 9034   4.590   7.737   2.023 -2.6845 -0.8388  0.5542
   24MOL   C249 9035   4.332   7.817   1.996  0.5185  0.1027 -0.4048
   24MOL   C250 9036   4.218   7.742   2.066 -0.2957  0.1672 -0.6915
   24MOL   O251 9037   4.343   7.762   2.126  0.0964 -0.1912 -0.0122
   24MOL   C252 9038   4.182   7.593   2.049 -0.0166 -0.6009  0.4544
   24MOL   O253 9039   4.086   7.542   2.139  0.6590 -0.4421  0.4756
   24MOL   C254 9040   4.116   7.512   2.269 -0.0408  0.3974  0.7415
   24MOL   C255 9041   4.242   7.546   2.327  0.2206  0.1478 -0.5479
   24MOL   C256 9042   4.263   7.524   2.460  0.0797 -0.5620  0.1195
   24MOL   C257 9043   4.164   7.463   2.540  0.1600  0.5715  0.0995
   24MOL   C258 9044   4.042   7.421   2.480 -0.1708  0.1360 -0.3658
   24MOL   C259 9045   4.014   7.448   2.343 -0.0959 -0.0129  0.4935
   24MOL   H260 9046   4.324   7.925   1.989 -1.8801 -0.0235 -0.0686
   24MOL   H261 9047   4.140   7.806   2.108  0.2587 -0.2181  0.9847
   24MOL   H262 9048   4.274   7.535   2.043  1.2518  1.4227  0.0732
   24MOL   H263 9049   4.138   7.584   1.950 -1.4894  1.4689  0.8864
   24MOL   H264 9050   4.323   7.587   2.269  0.0860  0.9431 -0.1877
   24MOL   H265 9051   4.358   7.542   2.509  0.2175  0.8938 -0.6695
   24MOL   H266 9052   4.173   7.449   2.646  0.6069 -0.5657 -0.0707
   24MOL   H267 9053   3.969   7.379   2.547  1.1513 -2.3532 -0.4263
   24MOL   C268 9054   3.879   7.425   2.281  0.5033 -0.6432 -0.7370
   24MOL   C269 9055   3.817   7.290   2.270 -0.0572 -0.0801 -0.5262
   24MOL   O270 9056   3.775   7.382   2.375 -0.2043  0.3216 -0.6701
   24MOL   C271 9057   3.868   7.160   2.322 -0.1755  0.0691  0.2405
   24MOL   O272 9058   3.780   7.064   2.274 -0.4480 -0.5546  0.1958
   24MOL   C273 9059   3.729   6.971   2.358  0.5999  0.6461  0.0464
   24MOL   C274 9060   3.812   6.891   2.443 -0.3374 -0.2676 -0.5439
   24MOL   C275 9061   3.759   6.803   2.540  0.6740 -0.1415  0.4942
   24MOL   C276 9062   3.619   6.783   2.544  0.3210 -0.4741 -0.4079
   24MOL   C277 9063   3.537   6.859   2.462  0.5628  0.8148  0.2287
   24MOL   C278 9064   3.587   6.951   2.371 -0.6357 -0.5273  0.2795
   24MOL   H279 9065   3.849   7.494   2.202 -0.0369  0.0710  0.0859
   24MOL   H280 9066   3.745   7.274   2.190  0.0893  1.3585 -0.9540
   24MOL   H281 9067   3.867   7.148   2.430  1.7845 -2.4371  0.0132
   24MOL   H282 9068   3.970   7.136   2.293 -0.3482  2.8461 -3.1001
   24MOL   H283 9069   3.918   6.901   2.421 -0.4659  0.7455 -0.7440
   24MOL   H284 9070   3.829   6.749   2.602  1.4191  0.1036 -0.1305
   24MOL   H285 9071   3.575   6.707   2.607  0.7402 -1.1220 -0.8877
   24MOL   H286 9072   3.432   6.835   2.468  0.5807  0.5605 -0.4936
   24MOL   C287 9073   3.492   7.029   2.280  0.6073  0.0295  0.6517
   24MOL   C288 9074   3.473   7.005   2.133 -0.0022 -0.8998 -0.6858
   24MOL   O289 9075   3.381   6.949   2.230  0.3468 -0.1420  0.1836
   24MOL   C290 9076   3.560   6.917   2.051  0.1794  0.5138 -0.6459
   24MOL   O291 9077   3.525   6.943   1.915  0.3443  0.5684  0.3533
   24MOL   C292 9078   3.615   6.883   1.823 -0.3269  0.0232  0.3095
   24MOL   C293 9079   3.674   6.757   1.842  1.2776  0.1012 -0.5604
   24MOL   C294 9080   3.752   6.697   1.743 -0.1341 -0.3351  0.1311
   24MOL   C295 9081   3.778   6.773   1.628  0.0020  0.0903 -0.3972
   24MOL   C296 9082   3.722   6.898   1.609  0.1631  0.0708  0.5019
   24MOL   C297 9083   3.634   6.952   1.703  0.1755  0.8993  0.0234
   24MOL   H298 9084   3.477   7.128   2.324  1.6674  0.2295  0.5698
   24MOL   H299 9085   3.454   7.102   2.088 -0.0686 -0.9734 -0.8179
   24MOL   H300 9086   3.518   6.821   2.082 -0.3455  0.3126 -1.9480
   24MOL   H301 9087   3.665   6.932   2.074 -0.6195  1.4309  2.6368
   24MOL   H302 9088   3.663   6.705   1.936 -1.5466  2.4311  0.4893
   24MOL   H303 9089   3.802   6.602   1.757  1.0275  0.4228  1.2887
   24MOL   H304 9090   3.844   6.733   1.552 -0.6751 -1.6070 -0.1190
   24MOL   H305 9091   3.742   6.947   1.515 -0.2059 -0.5181  0.1139
   24MOL   C306 9092   3.555   7.071   1.685  0.4305 -0.3029 -0.4353
   24MOL   C307 9093   3.569   7.209   1.756 -0.1672  0.8046  0.2383
   24MOL   O308 9094   3.646   7.178   1.638  0.0381 -0.3093 -0.1357
   24MOL   C309 9095   3.653   7.242   1.878 -0.6142  0.4316  0.2207
   24MOL   O310 9096   3.598   7.349   1.954 -0.3407 -0.2939 -0.2085
   24MOL   C311 9097   3.613   7.482   1.926 -0.3163 -0.3528 -0.3762
   24MOL   C312 9098   3.733   7.530   1.872  0.0293  0.8354 -0.4016
   24MOL   C313 9099   3.756   7.667   1.839 -0.2377  0.2956  0.2303
   24MOL   C314 9100   3.654   7.757   1.868 -0.3224  0.1585 -0.5087
   24MOL   C315 9101   3.532   7.712   1.923  0.7951  0.5689  0.1241
   24MOL   C316 9102   3.509   7.574   1.949 -0.1329 -0.7521  0.1507
   24MOL   H317 9103   3.467   7.053   1.624 -0.4243 -0.3506  0.7977
   24MOL   H318 9104   3.488   7.281   1.740  0.2266  0.8811 -1.5207
   24MOL   H319 9105   3.749   7.277   1.841 -0.6468  0.7235  0.4114
   24MOL   H320 9106   3.673   7.161   1.948  3.7114  1.5586  0.3993
   24MOL   H321 9107   3.822   7.469   1.871  0.0794  0.7751  2.5396
   24MOL   H322 9108   3.855   7.685   1.801 -0.3255 -1.0062 -0.6797
   24MOL   H323 9109   3.661   7.862   1.846 -1.4015  0.2893 -0.2435
   24MOL   H324 9110   3.459   7.790   1.939  0.3624 -0.0873  1.3931
   24MOL   C325 9111   3.372   7.529   1.989 -0.1321  0.1937  0.2426
   24MOL   C326 9112   3.332   7.478   2.122 -0.2462 -0.2967 -0.4245
   24MOL   O327 9113   3.315   7.614   2.087 -0.1364  0.4346 -0.0845
   24MOL   C328 9114   3.439   7.436   2.224 -0.3400  0.0371  0.2451
   24MOL   O329 9115   3.383   7.409   2.351  0.0141 -0.3060  0.2472
   24MOL   C330 9116   3.334   7.512   2.427  0.0107 -0.6352  0.3251
   24MOL   C331 9117   3.329   7.648   2.381 -0.1610 -0.3986 -0.3641
   24MOL   C332 9118   3.264   7.742   2.462 -0.2298  0.0932 -0.3325
   24MOL   C333 9119   3.189   7.700   2.572  0.4188  0.5553 -0.1130
   24MOL   C334 9120   3.181   7.570   2.607  0.7694 -0.2064 -0.7386
   24MOL   C335 9121   3.257   7.471   2.537 -0.0425  0.8568  0.2296
   24MOL   H336 9122   3.317   7.497   1.901  0.0527  1.9302 -0.5177
   24MOL   H337 9123   3.236   7.427   2.113 -0.4749  0.1991 -0.8130
   24MOL   H338 9124   3.519   7.511   2.223  0.0904 -0.4060 -1.8185
   24MOL   H339 9125   3.494   7.348   2.192  0.3859 -0.7193  3.4959
   24MOL   H340 9126   3.387   7.686   2.298 -0.9217  0.0911 -0.6845
   24MOL   H341 9127   3.255   7.846   2.433  1.8582  0.1525 -0.8724
   24MOL   H342 9128   3.141   7.783   2.621  2.0267  0.7217  1.2143
   24MOL   H343 9129   3.127   7.548   2.697  0.1437  0.3074 -0.9870
   24MOL   C344 9130   3.235   7.329   2.572  0.0708 -0.6396 -0.0128
   24MOL   C345 9131   3.331   7.240   2.653 -0.5629  0.6832 -0.0029
   24MOL   O346 9132   3.223   7.304   2.714 -0.3412  0.3398  0.6042
   24MOL   C347 9133   3.474   7.291   2.686 -0.2436 -0.2254 -0.1884
   24MOL   O348 9134   3.538   7.191   2.766 -0.2735  0.1462 -0.8858
   24MOL   C349 9135   3.532   7.209   2.905  0.6219  0.2005 -0.4816
   24MOL   C350 9136   3.461   7.313   2.974  0.4538 -0.3983 -0.0338
   24MOL   C351 9137   3.461   7.332   3.118 -0.4575  0.5872 -0.1181
   24MOL   C352 9138   3.529   7.231   3.200 -0.1698 -0.1697  0.7635
   24MOL   C353 9139   3.603   7.131   3.135 -0.5847 -0.0649 -0.0942
   24MOL   C354 9140   3.605   7.120   2.990 -0.2858  0.2299  0.4875
   24MOL   H355 9141   3.153   7.281   2.519  0.2207  1.8996 -2.6769
   24MOL   H356 9142   3.322   7.132   2.640  0.7135  0.6492 -0.7870
   24MOL   H357 9143   3.477   7.389   2.735  0.6574  0.3431 -1.3748
   24MOL   H358 9144   3.529   7.309   2.594  0.1235 -1.8638 -0.3061
   24MOL   H359 9145   3.393   7.380   2.923  1.1198 -0.5726 -1.1830
   24MOL   H360 9146   3.397   7.405   3.164 -2.2732 -0.5644 -0.7446
   24MOL   H361 9147   3.521   7.221   3.307  1.8664 -2.3746  0.7608
   24MOL   H362 9148   3.658   7.058   3.192  0.2229  0.5346 -0.0888
   24MOL   C363 9149   3.679   7.008   2.934 -0.6524  0.5444 -0.0808
   24MOL   C364 9150   3.813   7.025   2.858  1.0756  0.2406  0.7732
   24MOL   O365 9151   3.807   6.992   2.997 -0.0436  0.1430 -0.3617
   24MOL   C366 9152   3.846   7.164   2.802  0.3100  0.1840 -0.0692
   24MOL   O367 9153   3.968   7.176   2.722 -0.5940 -0.8868  0.1785
   24MOL   C368 9154   4.096   7.163   2.777  0.7458 -0.7560  0.5000
   24MOL   C369 9155   4.127   7.194   2.910  0.6384 -0.5876 -0.0626
   24MOL   C370 9156   4.264   7.187   2.950  0.5333 -0.1342 -0.6578
   24MOL   C371 9157   4.362   7.133   2.865 -0.8389  0.0067  0.5853
   24MOL   C372 9158   4.332   7.079   2.738  1.2280 -0.2096  0.0451
   24MOL   C373 9159   4.199   7.100   2.695 -0.0163  0.1722 -0.5016
   24MOL   H374 9160   3.623   6.916   2.946  0.4457 -0.4656 -2.4178
   24MOL   H375 9161   3.843   6.948   2.787 -0.3255  1.8659 -1.6822
   24MOL   H376 9162   3.841   7.242   2.877  2.1776  0.3882 -0.1282
   24MOL   H377 9163   3.765   7.182   2.732 -2.3058 -1.3721  2.4094
   24MOL   H378 9164   4.051   7.221   2.982 -0.7535  0.9887 -2.0291
   24MOL   H379 9165   4.286   7.210   3.053 -0.0469 -1.2041 -0.2847
   24MOL   H380 9166   4.467   7.128   2.891 -0.4740 -0.3886 -0.9113
   24MOL   H381 9167   4.406   7.023   2.682  1.3739  2.0612 -2.0971
   24MOL   H382 9168   4.157   7.063   2.603  0.7024  0.5772 -0.9954
   25MOL     C1 9169   2.767   3.844   1.575  0.3600  0.2934 -0.1757
   25MOL     C2 9170   2.807   3.924   1.697 -0.6455  0.3682 -0.0113
   25MOL     O3 9171   2.728   3.816   1.709  0.0204  0.4338  0.2186
   25MOL     C4 9172   2.735   4.043   1.763 -0.5549  0.0338  0.3761
   25MOL     O5 9173   2.623   4.089   1.685  0.0931  0.2046  0.2559
   25MOL     C6 9174   2.646   4.146   1.563  0.9429 -0.2480 -0.1276
   25MOL     C7 9175   2.769   4.204   1.519  0.1842  0.1470  0.8118
   25MOL     C8 9176   2.778   4.261   1.390  0.6084 -0.3820  0.7220
   25MOL     C9 9177   2.663   4.272   1.309 -0.3902 -0.7256  0.1409
   25MOL    C10 9178   2.542   4.222   1.359  0.3797 -0.3479  0.3607
   25MOL    C11 9179   2.532   4.160   1.480 -0.0339  0.1601  0.1532
   25MOL    H12 9180   2.838   3.774   1.531 -0.8390 -0.3428 -1.1433
   25MOL    H13 9181   2.901   3.903   1.749 -0.8004  1.1263  0.5796
   25MOL    H14 9182   2.802   4.124   1.790  1.0268 -0.6363 -1.4416
   25MOL    H15 9183   2.694   3.999   1.855  1.9453 -0.1240  1.4427
   25MOL    H16 9184   2.864   4.208   1.572 -0.2151 -1.4892  1.6725
   25MOL    H17 9185   2.872   4.309   1.366  0.9209 -0.3949  1.8465
   25MOL    H18 9186   2.672   4.303   1.206  2.5565 -2.9305 -0.3235
   25MOL    H19 9187   2.453   4.229   1.298  0.3576  0.6263  0.4955
   25MOL    H20 9188   2.678   3.862   1.514  0.0998 -2.6123 -0.7441
   25MOL    C21 9189   2.396   4.114   1.525  0.1108  0.8108  0.6512
   25MOL    C22 9190   2.317   4.207   1.619  0.1350 -0.3270  0.6911
   25MOL    O23 9191   2.300   4.209   1.474 -0.5904  0.3796  0.0923
   25MOL    C24 9192   2.379   4.342   1.661  0.6312  0.1845 -0.1920
   25MOL    O25 9193   2.293   4.416   1.747 -0.1227  0.4965  0.5466
   25MOL    C26 9194   2.285   4.373   1.880 -0.1175  0.1750 -0.5120
   25MOL    C27 9195   2.361   4.265   1.933  0.6842 -0.0213 -0.2282
   25MOL    C28 9196   2.332   4.210   2.058  0.0441  0.4435 -0.5861
   25MOL    C29 9197   2.232   4.265   2.128  0.0417  0.2325  0.1184
   25MOL    C30 9198   2.165   4.383   2.086 -0.5306 -0.2311 -0.2856
   25MOL    C31 9199   2.194   4.445   1.962  0.1613  0.6042  0.4883
   25MOL    H32 9200   2.370   4.011   1.505 -0.2660  0.9330  0.5245
   25MOL    H33 9201   2.224   4.169   1.659 -0.9850 -0.4524 -1.9354
   25MOL    H34 9202   2.397   4.403   1.573  1.3797  0.6845  0.2988
   25MOL    H35 9203   2.477   4.345   1.710  1.1316  1.1886 -1.2361
   25MOL    H36 9204   2.444   4.218   1.883  1.7395  0.2789  1.1907
   25MOL    H37 9205   2.373   4.113   2.083 -0.0207  0.5055 -0.2486
   25MOL    H38 9206   2.192   4.218   2.217 -1.2287 -1.5159 -1.3495
   25MOL    H39 9207   2.078   4.418   2.139 -1.3342 -2.5850  0.0067
   25MOL    C40 9208   2.108   4.548   1.895  0.1547 -0.3607  0.2683
   25MOL    C41 9209   1.990   4.526   1.798  0.0787 -0.0478 -0.3305
   25MOL    O42 9210   1.977   4.559   1.942 -0.1976 -0.2682  0.6943
   25MOL    C43 9211   1.959   4.386   1.742  0.1951 -0.1694  0.0445
   25MOL    O44 9212   1.840   4.394   1.652 -0.5365  0.0058 -1.0533
   25MOL    C45 9213   1.712   4.399   1.709  0.7250 -0.0053 -0.9124
   25MOL    C46 9214   1.687   4.399   1.851 -0.0482 -0.0274 -0.1783
   25MOL    C47 9215   1.554   4.374   1.897 -0.4339 -0.4478  0.3631
   25MOL    C48 9216   1.452   4.344   1.809 -0.5675  0.4765 -0.0414
   25MOL    C49 9217   1.481   4.349   1.672  0.1925 -0.7079  0.0589
   25MOL    C50 9218   1.608   4.382   1.620  0.4665  0.6348 -0.1213
   25MOL    H51 9219   2.175   4.634   1.884 -0.4736  0.1129  0.0993
   25MOL    H52 9220   1.959   4.607   1.731 -0.8072  1.0784  1.4087
   25MOL    H53 9221   1.933   4.319   1.823 -1.5778 -1.0466 -1.2098
   25MOL    H54 9222   2.053   4.355   1.696  0.2535  0.4794 -0.2814
   25MOL    H55 9223   1.768   4.408   1.923  0.4571 -0.1263 -0.7348
   25MOL    H56 9224   1.537   4.385   2.003  2.9143 -0.3608  0.9494
   25MOL    H57 9225   1.355   4.319   1.849  0.1398 -2.0522  0.2019
   25MOL    H58 9226   1.399   4.311   1.613 -0.6448  0.6671  0.2897
   25MOL    C59 9227   1.635   4.393   1.470  0.0635 -0.8884 -0.1780
   25MOL    C60 9228   1.685   4.273   1.387 -0.1931  0.0807 -0.1332
   25MOL    O61 9229   1.544   4.303   1.398 -0.3790 -0.1288 -1.3151
   25MOL    C62 9230   1.743   4.150   1.453  0.0168  0.8507  0.2261
   25MOL    O63 9231   1.712   4.019   1.393 -0.7882 -0.0966  0.4457
   25MOL    C64 9232   1.604   3.949   1.438 -0.4626  0.5549 -0.3310
   25MOL    C65 9233   1.513   3.995   1.530 -0.3410  0.3531 -0.9268
   25MOL    C66 9234   1.409   3.916   1.577  0.4684 -0.1843 -0.1923
   25MOL    C67 9235   1.384   3.788   1.529 -0.0081 -0.2224  0.1010
   25MOL    C68 9236   1.469   3.741   1.427  0.6168  0.2072 -0.6593
   25MOL    C69 9237   1.584   3.814   1.388 -0.1386 -0.2874 -0.0760
   25MOL    H70 9238   1.648   4.493   1.430 -0.9202  0.2506  2.2301
   25MOL    H71 9239   1.729   4.300   1.290  0.8966 -1.0965  0.0247
   25MOL    H72 9240   1.713   4.151   1.557 -1.0017 -0.6258 -0.0469
   25MOL    H73 9241   1.850   4.171   1.454  0.4086 -1.1559  0.9264
   25MOL    H74 9242   1.524   4.092   1.576  1.2893 -0.0929 -0.3550
   25MOL    H75 9243   1.345   3.955   1.654 -0.4381 -1.2641 -0.3895
   25MOL    H76 9244   1.293   3.739   1.558 -1.2950  0.4503 -2.6313
   25MOL    H77 9245   1.445   3.646   1.384 -0.7002  0.6347 -0.8804
   25MOL    C78 9246   1.680   3.761   1.284 -0.4085  0.1555 -0.0558
   25MOL    C79 9247   1.814   3.703   1.324  0.1340  0.0608 -0.0501
   25MOL    O80 9248   1.698   3.620   1.290  0.2129 -0.6215 -0.1409
   25MOL    C81 9249   1.857   3.679   1.467  0.2525 -0.6094  0.1744
   25MOL    O82 9250   1.971   3.585   1.478  0.2745  0.0858 -0.2524
   25MOL    C83 9251   2.012   3.539   1.600  0.3445 -0.1427  0.0398
   25MOL    C84 9252   1.941   3.562   1.723  0.4998 -0.6347 -0.3783
   25MOL    C85 9253   1.994   3.525   1.850  0.9759  0.2874 -0.0578
   25MOL    C86 9254   2.123   3.471   1.865 -0.4952  0.8461  0.0376
   25MOL    C87 9255   2.194   3.452   1.748 -0.1036 -0.0019 -0.7390
   25MOL    C88 9256   2.144   3.485   1.618  1.3104 -0.1416 -0.2127
   25MOL    H89 9257   1.667   3.802   1.184  0.4822  0.9313  0.1363
   25MOL    H90 9258   1.893   3.715   1.250  1.4499 -0.2112  1.3069
   25MOL    H91 9259   1.767   3.648   1.518 -0.7885 -0.2822 -1.4263
   25MOL    H92 9260   1.880   3.778   1.508 -0.2972  0.0262 -1.0152
   25MOL    H93 9261   1.842   3.604   1.726  1.0633  0.7287 -0.2035
   25MOL    H94 9262   1.928   3.539   1.935 -1.2176  1.7741 -1.9406
   25MOL    H95 9263   2.155   3.434   1.961 -2.6231 -0.7259  0.1846
   25MOL    H96 9264   2.294   3.412   1.745 -0.3177 -0.7226  1.4845
   25MOL    C97 9265   2.233   3.466   1.503 -0.3318 -0.2126  0.8709
   25MOL    C98 9266   2.297   3.578   1.423 -0.5641  0.2671  0.5842
   25MOL    O99 9267   2.365   3.507   1.532  0.4357 -0.1010 -0.0468
   25MOL   C100 9268   2.282   3.721   1.446 -0.2577 -0.3957  0.5534
   25MOL   O101 9269   2.197   3.782   1.539  0.3697 -0.7984  0.1362
   25MOL   C102 9270   2.247   3.822   1.663  0.4524 -0.8241 -0.0512
   25MOL   C103 9271   2.373   3.775   1.720 -0.0168  0.4983  0.3079
   25MOL   C104 9272   2.413   3.814   1.852 -0.0879 -0.1920  0.5821
   25MOL   C105 9273   2.329   3.893   1.927 -1.0208 -0.3736 -0.4871
   25MOL   C106 9274   2.206   3.935   1.873 -0.9721 -0.3555 -0.5518
   25MOL   C107 9275   2.160   3.891   1.746 -0.4420  0.5430  0.3477
   25MOL   H108 9276   2.230   3.367   1.459 -2.3440 -0.2178  0.9422
   25MOL   H109 9277   2.335   3.550   1.325 -0.5738  0.8744  0.4087
   25MOL   H110 9278   2.248   3.769   1.354 -1.1782 -0.9519  0.5989
   25MOL   H111 9279   2.382   3.765   1.447  0.1936 -1.3171 -1.3302
   25MOL   H112 9280   2.444   3.715   1.664 -1.5177 -0.1603 -0.9606
   25MOL   H113 9281   2.509   3.779   1.887  0.4827 -0.7424 -1.4689
   25MOL   H114 9282   2.358   3.921   2.028 -1.5658  0.2619 -0.5092
   25MOL   H115 9283   2.154   4.015   1.923  0.1826 -0.2909  0.5710
   25MOL   C116 9284   2.035   3.941   1.692  0.6929 -0.6358  0.2811
   25MOL   C117 9285   1.900   3.934   1.755 -0.4525 -0.6920  0.1364
   25MOL   O118 9286   1.982   4.050   1.768  0.4063  0.6859 -0.2107
   25MOL   C119 9287   1.873   3.869   1.893 -0.5658  0.1609  0.7159
   25MOL   O120 9288   1.745   3.812   1.883 -0.1211 -0.2030 -0.5614
   25MOL   C121 9289   1.707   3.732   1.988 -0.9322  0.8797  0.1661
   25MOL   C122 9290   1.772   3.734   2.110 -0.4124  0.6214 -0.3147
   25MOL   C123 9291   1.743   3.635   2.210  0.5259  0.2554 -0.3034
   25MOL   C124 9292   1.646   3.539   2.187  0.2305  0.7430  0.0787
   25MOL   C125 9293   1.573   3.544   2.068  0.7345 -0.1670  0.0658
   25MOL   C126 9294   1.602   3.635   1.966  0.4812  0.5893  0.1807
   25MOL   H127 9295   2.038   3.956   1.584  0.8735 -0.3560  0.3256
   25MOL   H128 9296   1.813   3.962   1.696 -0.0900 -0.4016 -0.2626
   25MOL   H129 9297   1.874   3.938   1.977 -1.2311  0.9162  0.1119
   25MOL   H130 9298   1.936   3.780   1.904 -0.5832 -0.1733 -1.7437
   25MOL   H131 9299   1.841   3.812   2.138 -1.7289  1.7934 -0.3127
   25MOL   H132 9300   1.805   3.635   2.299 -1.6920 -0.0297  1.2848
   25MOL   H133 9301   1.634   3.465   2.264 -0.5270  0.6831 -0.0988
   25MOL   H134 9302   1.502   3.464   2.053 -0.5791  1.3091 -2.0117
   25MOL   C135 9303   1.520   3.630   1.839 -0.0859  0.3463 -0.1120
   25MOL   C136 9304   1.500   3.503   1.757 -0.7663  0.0742 -0.2801
   25MOL   O137 9305   1.398   3.553   1.845  0.1038 -0.3547 -0.3909
   25MOL   C138 9306   1.564   3.369   1.787 -0.3635  0.2560 -0.4819
   25MOL   O139 9307   1.521   3.270   1.701  0.2704 -0.2375  0.4970
   25MOL   C140 9308   1.576   3.264   1.576  0.4046 -0.2756 -0.3793
   25MOL   C141 9309   1.698   3.324   1.537 -0.5054  0.1370  0.1287
   25MOL   C142 9310   1.744   3.313   1.405  0.2842  0.3034  0.0415
   25MOL   C143 9311   1.670   3.236   1.312 -0.2151  0.5968  0.2595
   25MOL   C144 9312   1.550   3.171   1.349  0.3209 -0.4064 -0.1735
   25MOL   C145 9313   1.499   3.191   1.481 -0.1759 -0.1956  0.0554
   25MOL   H146 9314   1.524   3.723   1.782 -1.9051  0.0336 -0.7850
   25MOL   H147 9315   1.475   3.523   1.653 -0.7169  0.6784 -0.1781
   25MOL   H148 9316   1.537   3.332   1.886 -0.4378  0.2840 -0.4918
   25MOL   H149 9317   1.673   3.366   1.785 -0.2899  2.3484 -0.7268
   25MOL   H150 9318   1.757   3.375   1.612  1.0580  2.2467 -2.4611
   25MOL   H151 9319   1.836   3.356   1.365  0.3781 -0.0423 -0.1144
   25MOL   H152 9320   1.719   3.228   1.216 -0.5905  1.0054  0.0332
   25MOL   H153 9321   1.493   3.113   1.278 -0.1256 -0.9489  0.6190
   25MOL   C154 9322   1.361   3.138   1.523 -0.1561  0.4787 -0.5215
   25MOL   C155 9323   1.236   3.202   1.489  1.1643 -0.3849  0.5584
   25MOL   O156 9324   1.282   3.098   1.410 -0.1949 -0.3953 -0.0627
   25MOL   C157 9325   1.227   3.339   1.414  0.2131 -0.3783 -0.9282
   25MOL   O158 9326   1.130   3.326   1.315  0.4971 -0.3764 -0.2724
   25MOL   C159 9327   0.994   3.338   1.341 -0.7634  0.1481 -0.3159
   25MOL   C160 9328   0.936   3.335   1.474 -0.4445 -0.4112 -0.2418
   25MOL   C161 9329   0.797   3.357   1.478 -0.6406 -0.4676 -0.6859
   25MOL   C162 9330   0.716   3.371   1.366 -0.1471  0.8398  0.0293
   25MOL   C163 9331   0.777   3.353   1.242 -0.3423  0.3627  0.0283
   25MOL   C164 9332   0.915   3.339   1.227  1.0152 -0.7505 -0.0524
   25MOL   H165 9333   1.363   3.083   1.617 -0.3007  3.8313  1.5332
   25MOL   H166 9334   1.145   3.173   1.542  1.2438  1.3629  1.7185
   25MOL   H167 9335   1.320   3.359   1.361 -0.6333 -1.4012 -2.8432
   25MOL   H168 9336   1.213   3.418   1.488  2.4354 -1.3694  0.6243
   25MOL   H169 9337   0.993   3.324   1.565  1.6021  1.5238 -1.2334
   25MOL   H170 9338   0.745   3.372   1.572  0.2662 -2.1549  0.1017
   25MOL   H171 9339   0.615   3.406   1.381 -0.3475  1.0745 -1.8072
   25MOL   H172 9340   0.713   3.359   1.155 -0.1652 -0.4137 -0.1643
   25MOL   C173 9341   0.973   3.327   1.089 -0.2953  0.6369 -0.7219
   25MOL   C174 9342   1.019   3.193   1.037  1.2070  0.3502 -0.5971
   25MOL   O175 9343   0.892   3.245   1.006  0.1153 -0.0787 -0.3079
   25MOL   C176 9344   1.028   3.073   1.128  0.3546  0.2151  0.0849
   25MOL   O177 9345   1.064   2.946   1.074 -0.0298 -0.0888  0.6604
   25MOL   C178 9346   1.197   2.924   1.034  0.8918  0.6400 -0.1820
   25MOL   C179 9347   1.296   3.025   1.040  0.2773 -0.0901 -0.0325
   25MOL   C180 9348   1.429   3.002   0.991  0.5503  0.1486 -0.0491
   25MOL   C181 9349   1.458   2.874   0.945 -0.3917 -0.0194 -0.1740
   25MOL   C182 9350   1.362   2.771   0.952 -0.6402 -0.1580  0.3461
   25MOL   C183 9351   1.231   2.796   0.979  0.2106 -0.3182 -0.1400
   25MOL   H184 9352   0.984   3.418   1.030 -0.5365 -0.3071 -2.2691
   25MOL   H185 9353   1.080   3.191   0.947  1.6143 -0.8668 -0.3080
   25MOL   H186 9354   0.937   3.066   1.187  0.2202 -1.8457 -0.3270
   25MOL   H187 9355   1.106   3.107   1.197  0.4030  0.8710 -0.2913
   25MOL   H188 9356   1.269   3.127   1.065 -1.5868 -0.5689 -0.0593
   25MOL   H189 9357   1.498   3.084   0.978  0.2401  0.3845 -0.2241
   25MOL   H190 9358   1.555   2.854   0.903  0.0496  0.5735  0.5681
   25MOL   H191 9359   1.393   2.678   0.907  1.0160  0.1801  0.7584
   25MOL   C192 9360   1.129   2.681   0.955  0.2219  0.8974  0.2766
   25MOL   C193 9361   1.014   2.683   0.871 -0.1159 -0.7206 -0.6199
   25MOL   O194 9362   1.138   2.649   0.813  0.2330  0.1787  1.0217
   25MOL   C195 9363   0.957   2.811   0.817 -0.3448 -0.7560  0.4007
   25MOL   O196 9364   0.901   2.783   0.691 -0.5505  0.1771 -0.4343
   25MOL   C197 9365   0.840   2.886   0.619 -0.4326 -0.2055  1.0606
   25MOL   C198 9366   0.775   2.996   0.681  0.0343 -0.2017 -0.3825
   25MOL   C199 9367   0.710   3.094   0.608 -0.0825 -0.0924  0.6091
   25MOL   C200 9368   0.699   3.078   0.467 -0.3186  0.2843 -0.4900
   25MOL   C201 9369   0.763   2.966   0.403 -0.4097 -0.3000  0.4802
   25MOL   C202 9370   0.829   2.869   0.477  0.1780  0.1136  0.3390
   25MOL   H203 9371   1.149   2.595   1.018  0.9294  0.8827  0.0358
   25MOL   H204 9372   0.948   2.597   0.882 -0.6625 -0.5581 -2.4512
   25MOL   H205 9373   1.037   2.885   0.809 -1.6796  0.8099  1.2327
   25MOL   H206 9374   0.876   2.839   0.884  1.1631  1.0839  1.4946
   25MOL   H207 9375   0.784   3.016   0.786 -1.5657 -1.0182 -0.0731
   25MOL   H208 9376   0.645   3.168   0.653 -1.5829 -1.8673  1.3702
   25MOL   H209 9377   0.644   3.155   0.414  0.0342 -0.0689 -1.3821
   25MOL   H210 9378   0.746   2.962   0.296  0.4587 -1.1126  0.3593
   25MOL   C211 9379   0.877   2.744   0.411  0.3595  0.0209 -0.4959
   25MOL   C212 9380   0.781   2.624   0.395  0.5589 -0.3128 -0.1847
   25MOL   O213 9381   0.813   2.710   0.289 -0.2284  0.1927 -0.3636
   25MOL   C214 9382   0.628   2.632   0.426  0.2020 -0.6924  0.5016
   25MOL   O215 9383   0.562   2.514   0.393  0.6733 -0.0409 -0.1695
   25MOL   C216 9384   0.532   2.489   0.258 -0.8508  0.7902  0.3086
   25MOL   C217 9385   0.557   2.585   0.154 -0.3018  0.1579  0.1441
   25MOL   C218 9386   0.549   2.542   0.016 -0.2643 -0.0769 -0.4463
   25MOL   C219 9387   0.499   2.417   8.154 -0.0398  0.4843  0.4956
   25MOL   C220 9388   0.465   2.330   0.092 -0.5853 -1.0161  0.8408
   25MOL   C221 9389   0.477   2.361   0.230  0.4037 -0.3608  0.2737
   25MOL   H222 9390   0.985   2.729   0.412  0.2491 -1.1901  3.6379
   25MOL   H223 9391   0.829   2.527   0.395  1.5796  0.1746  1.2357
   25MOL   H224 9392   0.572   2.714   0.383 -0.1655 -1.7080 -1.0045
   25MOL   H225 9393   0.646   2.629   0.534  0.8085 -3.7687  0.3674
   25MOL   H226 9394   0.593   2.685   0.173  1.5683 -0.5165  0.2411
   25MOL   H227 9395   0.566   2.613   8.107 -0.7898 -0.0321 -0.5159
   25MOL   H228 9396   0.476   2.398   8.050  2.5295  0.5343 -0.0991
   25MOL   H229 9397   0.432   2.228   0.076 -1.8842 -0.7144  1.5262
   25MOL   C230 9398   0.447   2.272   0.345 -0.3269 -0.1337 -0.0742
   25MOL   C231 9399   0.315   2.262   0.410  0.3357 -0.3476 -0.0027
   25MOL   O232 9400   0.353   2.170   0.306 -0.5569 -0.6298  0.5579
   25MOL   C233 9401   0.205   2.366   0.377  0.1298 -0.2248  0.6270
   25MOL   O234 9402   0.085   2.298   0.348  0.4436 -0.3473 -0.3373
   25MOL   C235 9403   0.075   2.233   0.227  0.2006  0.7500 -0.9619
   25MOL   C236 9404   0.111   2.294   0.107  0.6408 -0.4390 -0.6030
   25MOL   C237 9405   0.098   2.218   8.158 -0.6743 -0.4529 -0.6189
   25MOL   C238 9406   0.049   2.088   8.165 -0.4990 -0.1354  0.2178
   25MOL   C239 9407   0.008   2.029   0.112 -0.2716  0.0987  0.0007
   25MOL   C240 9408   0.018   2.099   0.230  0.2907  0.2540 -0.2568
   25MOL   H241 9409   0.536   2.231   0.393  0.5834 -2.1013 -3.2460
   25MOL   H242 9410   0.313   2.224   0.512  2.0998  0.2732  0.2714
   25MOL   H243 9411   0.247   2.427   0.297  1.1214 -2.0556 -0.2887
   25MOL   H244 9412   0.196   2.427   0.467 -1.2729 -0.9856  1.0256
   25MOL   H245 9413   0.137   2.399   0.105  0.3782 -0.3593  0.1173
   25MOL   H246 9414   0.114   2.263   8.061 -0.2834 -1.9487 -1.2595
   25MOL   H247 9415   0.042   2.036   8.071  0.3917 -3.6780  2.0318
   25MOL   H248 9416   8.146   1.926   0.107 -2.7581  0.8079  0.5952
   25MOL   C249 9417   8.156   2.035   0.363  0.4642 -0.0618 -0.1554
   25MOL   C250 9418   8.027   2.028   0.440 -0.1097 -0.0619 -0.1678
   25MOL   O251 9419   8.060   1.921   0.353 -0.2517  0.3259  0.4423
   25MOL   C252 9420   7.912   2.119   0.405 -0.1744  0.7840  0.0452
   25MOL   O253 9421   7.794   2.039   0.408  0.4528  0.0468 -0.8080
   25MOL   C254 9422   7.718   2.030   0.291 -0.3995 -0.0627  0.0598
   25MOL   C255 9423   7.775   2.033   0.158  0.2558 -0.0163 -0.5272
   25MOL   C256 9424   7.692   2.005   0.045 -0.3217 -0.2651 -0.0149
   25MOL   C257 9425   7.557   1.967   0.065  1.1185 -0.6727 -0.6310
   25MOL   C258 9426   7.501   1.959   0.192 -0.2700 -0.3174  0.7699
   25MOL   C259 9427   7.584   1.991   0.304  0.3765  0.1310 -0.6825
   25MOL   H260 9428   0.079   2.002   0.410  1.2607  1.7757 -0.3854
   25MOL   H261 9429   8.025   1.998   0.545  0.4673 -0.0892 -0.1643
   25MOL   H262 9430   7.935   2.164   0.309  1.1163  0.5507  0.2409
   25MOL   H263 9431   7.893   2.201   0.475  2.9485  3.5156 -2.1689
   25MOL   H264 9432   7.879   2.046   0.135  0.3722  1.4531  0.7293
   25MOL   H265 9433   7.735   2.010   8.115 -1.5718 -3.0615 -0.7339
   25MOL   H266 9434   7.497   1.955   8.146 -0.4321  0.7690  0.2014
   25MOL   H267 9435   7.395   1.941   0.200 -0.8829  2.1650 -0.9631
   25MOL   C268 9436   7.521   1.961   0.439  0.0280  0.0546  0.2488
   25MOL   C269 9437   7.446   2.062   0.519  0.0512 -0.4785 -0.2169
   25MOL   O270 9438   7.376   1.969   0.438 -0.3033  0.1403 -0.0467
   25MOL   C271 9439   7.448   2.208   0.477  0.1441 -0.6184 -1.0631
   25MOL   O272 9440   7.390   2.311   0.558  1.4183  0.0265 -0.2915
   25MOL   C273 9441   7.272   2.282   0.633  0.0530 -0.6168  0.0950
   25MOL   C274 9442   7.173   2.201   0.576 -0.5029 -0.5715 -0.2670
   25MOL   C275 9443   7.059   2.185   0.645 -0.1646  0.0524  0.3961
   25MOL   C276 9444   7.039   2.240   0.773  0.7566 -0.8539  0.3497
   25MOL   C277 9445   7.136   2.317   0.830  0.0096 -0.3641 -0.2040
   25MOL   C278 9446   7.252   2.346   0.760  0.0931 -0.0570  0.5241
   25MOL   H279 9447   7.567   1.879   0.494 -0.1469 -0.0173  0.2913
   25MOL   H280 9448   7.452   2.053   0.627  2.0535 -2.0477 -0.4272
   25MOL   H281 9449   7.408   2.217   0.376 -0.3195  1.0335 -0.7582
   25MOL   H282 9450   7.554   2.224   0.462  0.2980  0.1267  0.6737
   25MOL   H283 9451   7.191   2.151   0.483 -0.0846 -1.2325  0.1668
   25MOL   H284 9452   6.977   2.121   0.617 -1.0727  1.3095  0.1460
   25MOL   H285 9453   6.945   2.234   0.826  0.9215  2.1687  1.0789
   25MOL   H286 9454   7.125   2.342   0.934  0.1487  0.4373 -0.3820
   25MOL   C287 9455   7.359   2.433   0.819  0.0722  0.0006 -0.0912
   25MOL   C288 9456   7.374   2.572   0.773 -0.2126 -0.0969 -0.5727
   25MOL   O289 9457   7.306   2.544   0.896  0.5507  0.5524  0.0789
   25MOL   C290 9458   7.289   2.632   0.669  0.8300  0.4948  0.3976
   25MOL   O291 9459   7.311   2.770   0.647  0.4046 -0.0472 -0.4801
   25MOL   C292 9460   7.428   2.808   0.584 -0.8756  1.2136  0.1286
   25MOL   C293 9461   7.502   2.720   0.505  0.5348  0.0097 -0.6282
   25MOL   C294 9462   7.616   2.770   0.443  0.9165  0.0939  0.7774
   25MOL   C295 9463   7.654   2.903   0.450 -0.4889 -0.3157  0.5084
   25MOL   C296 9464   7.574   2.988   0.533  0.0208 -0.5025  1.1090
   25MOL   C297 9465   7.459   2.946   0.593  0.7493 -0.3445 -0.0270
   25MOL   H298 9466   7.445   2.376   0.855 -1.3175 -2.5321 -0.6514
   25MOL   H299 9467   7.472   2.619   0.780  0.6323 -1.6814 -1.4948
   25MOL   H300 9468   7.188   2.620   0.707  0.8681 -1.4376 -0.0570
   25MOL   H301 9469   7.292   2.571   0.579  0.9039  0.3763  0.4800
   25MOL   H302 9470   7.485   2.613   0.502 -1.1419  0.2547 -0.1680
   25MOL   H303 9471   7.675   2.708   0.376  2.6688 -1.6611  3.8123
   25MOL   H304 9472   7.739   2.931   0.389 -0.4165  1.8121  1.5235
   25MOL   H305 9473   7.600   3.093   0.533 -1.9533  0.0550 -1.1524
   25MOL   C306 9474   7.371   3.045   0.660 -0.6334 -0.8803 -0.3013
   25MOL   C307 9475   7.351   3.051   0.812 -0.4758  0.3674 -0.4994
   25MOL   O308 9476   7.433   3.144   0.748  0.0188  0.0949 -0.0656
   25MOL   C309 9477   7.425   2.961   0.914 -0.1833  0.2563 -0.5237
   25MOL   O310 9478   7.326   2.915   1.005 -0.4934 -0.0823  0.2009
   25MOL   C311 9479   7.360   2.815   1.093 -0.3499  0.2575 -0.6530
   25MOL   C312 9480   7.490   2.754   1.102 -0.0807  0.0792 -0.4128
   25MOL   C313 9481   7.510   2.651   1.191 -0.2232  0.2211 -0.2378
   25MOL   C314 9482   7.406   2.601   1.273  0.1109  0.1387  0.5126
   25MOL   C315 9483   7.280   2.655   1.260  0.1772  0.0845  0.2587
   25MOL   C316 9484   7.253   2.759   1.171 -0.5243 -0.7115  0.5733
   25MOL   H317 9485   7.286   3.078   0.600  0.2851 -1.1492 -1.7697
   25MOL   H318 9486   7.253   3.087   0.843 -1.1013 -2.8792  1.5462
   25MOL   H319 9487   7.506   3.008   0.971  2.1489 -0.7934 -2.8832
   25MOL   H320 9488   7.468   2.872   0.869 -0.1050  0.2329 -0.4024
   25MOL   H321 9489   7.567   2.792   1.036  1.0887 -1.1093  0.2325
   25MOL   H322 9490   7.608   2.607   1.201 -0.0376  1.0905  2.0656
   25MOL   H323 9491   7.430   2.530   1.350  0.8221  2.3825  2.4115
   25MOL   H324 9492   7.198   2.621   1.322 -1.4682 -0.2255 -1.9927
   25MOL   C325 9493   7.124   2.837   1.171  0.6286  0.6859  0.2610
   25MOL   C326 9494   7.025   2.837   1.056 -0.1760 -0.3389 -0.0271
   25MOL   O327 9495   6.999   2.755   1.174 -0.3472 -0.6774  0.3536
   25MOL   C328 9496   7.048   2.771   0.929  0.0368  0.4927  0.0792
   25MOL   O329 9497   6.928   2.778   0.855  0.2334  0.1704  0.0090
   25MOL   C330 9498   6.899   2.672   0.773 -0.2155  0.6975  0.3154
   25MOL   C331 9499   6.930   2.670   0.634 -0.7624 -0.1846  0.4352
   25MOL   C332 9500   6.889   2.565   0.557  0.2402 -0.3403  0.8442
   25MOL   C333 9501   6.814   2.458   0.607  0.2066 -0.1879 -0.1788
   25MOL   C334 9502   6.771   2.467   0.740  0.1660  0.0910 -0.0437
   25MOL   C335 9503   6.808   2.578   0.821 -0.1816  0.7326 -0.6171
   25MOL   H336 9504   7.127   2.918   1.243  1.5509 -0.0329  1.0365
   25MOL   H337 9505   6.958   2.922   1.056  0.5560  0.2453  0.8196
   25MOL   H338 9506   7.088   2.671   0.947  2.9826  1.9871  2.4950
   25MOL   H339 9507   7.122   2.828   0.872  0.1473 -0.7203 -1.0115
   25MOL   H340 9508   7.000   2.739   0.588 -0.3928 -0.6761  0.2559
   25MOL   H341 9509   6.918   2.560   0.453  0.6591  2.8814  0.7432
   25MOL   H342 9510   6.783   2.376   0.544  0.1630  0.4810 -1.0292
   25MOL   H343 9511   6.719   2.389   0.794  0.2576  0.0926  0.0473
   25MOL   C344 9512   6.761   2.583   0.967 -0.1872 -0.5363 -0.1487
   25MOL   C345 9513   6.640   2.668   1.001  0.1401  0.5103  0.3507
   25MOL   O346 9514   6.624   2.523   0.989  0.1395 -0.0095 -0.3462
   25MOL   C347 9515   6.567   2.753   0.897 -0.4129  0.2787 -0.0889
   25MOL   O348 9516   6.453   2.812   0.957 -0.3618  0.7679  0.1682
   25MOL   C349 9517   6.454   2.950   0.966 -0.3931 -0.0116  0.0445
   25MOL   C350 9518   6.571   3.026   0.988  0.5346 -0.4432 -0.4648
   25MOL   C351 9519   6.568   3.163   1.009 -0.1397 -0.9780  0.4557
   25MOL   C352 9520   6.450   3.239   1.005 -0.5331  0.2205  0.7973
   25MOL   C353 9521   6.338   3.170   0.967  0.2188  0.4905  0.6872
   25MOL   C354 9522   6.332   3.022   0.954 -0.7488 -0.4423  0.4264
   25MOL   H355 9523   6.828   2.548   1.046  2.3138  1.1851 -1.4497
   25MOL   H356 9524   6.637   2.704   1.104  0.8500 -0.9658  0.9098
   25MOL   H357 9525   6.535   2.681   0.822 -1.8635  1.5870 -0.7671
   25MOL   H358 9526   6.632   2.822   0.843 -0.5289  0.7821  0.4152
   25MOL   H359 9527   6.662   2.973   1.008  2.0490  1.1992 -2.7610
   25MOL   H360 9528   6.662   3.211   1.032 -0.5349  1.3309 -2.5042
   25MOL   H361 9529   6.444   3.347   1.011  0.9677  0.3965 -0.4701
   25MOL   H362 9530   6.254   3.227   0.933  0.9094  0.4482 -1.1157
   25MOL   C363 9531   6.213   2.951   0.901  0.3468  0.2722 -0.1857
   25MOL   C364 9532   6.097   2.896   0.973  0.1840 -1.0514 -0.9225
   25MOL   O365 9533   6.087   3.023   0.913  1.0201  0.1313 -0.3187
   25MOL   C366 9534   6.109   2.892   1.123  0.0413  0.2272 -0.9862
   25MOL   O367 9535   5.975   2.887   1.180 -0.4860 -0.0662 -0.8755
   25MOL   C368 9536   5.956   2.893   1.319  0.1106  0.5803 -0.8107
   25MOL   C369 9537   5.821   2.895   1.364  0.3792 -0.0510  0.6550
   25MOL   C370 9538   5.789   2.877   1.498 -0.2644  0.4114  0.5291
   25MOL   C371 9539   5.895   2.879   1.590  0.1265 -0.3630 -0.7353
   25MOL   C372 9540   6.033   2.881   1.550 -0.2711  0.5674  0.1710
   25MOL   C373 9541   6.059   2.884   1.413 -0.4864  0.0294 -0.3118
   25MOL   H374 9542   6.231   2.919   0.798  2.2484  1.3462 -0.2263
   25MOL   H375 9543   6.029   2.823   0.930 -1.3670 -0.1883  0.0016
   25MOL   H376 9544   6.158   2.985   1.149 -2.4694  0.9214  1.5405
   25MOL   H377 9545   6.175   2.809   1.149  0.2127  0.0225 -2.0549
   25MOL   H378 9546   5.738   2.899   1.295  0.9925  1.4176 -0.0281
   25MOL   H379 9547   5.685   2.869   1.528 -0.8952  2.6270 -0.8806
   25MOL   H380 9548   5.870   2.880   1.695  0.2228 -1.9239 -0.6891
   25MOL   H381 9549   6.116   2.880   1.618  1.6674 -1.2118 -2.1364
   25MOL   H382 9550   6.163   2.876   1.382 -0.2443  1.6612  0.0167
   26MOL     C1 9551   6.598   2.636   2.748  1.0105 -0.3084 -0.5366
   26MOL     C2 9552   6.678   2.727   2.839 -0.5225 -0.3575  0.6381
   26MOL     O3 9553   6.573   2.641   2.889  0.4269  0.6764 -0.4911
   26MOL     C4 9554   6.659   2.864   2.891 -0.3958  0.3740  0.1322
   26MOL     O5 9555   6.537   2.919   2.853 -0.2426 -0.4965 -0.3678
   26MOL     C6 9556   6.536   3.001   2.742  0.3033  0.1315 -0.2721
   26MOL     C7 9557   6.650   3.029   2.661 -0.0963  0.6259 -0.4358
   26MOL     C8 9558   6.643   3.117   2.551  0.1821  0.2657  0.5103
   26MOL     C9 9559   6.522   3.180   2.526  0.7638  0.4570 -0.3080
   26MOL    C10 9560   6.406   3.158   2.609 -0.1385  0.0652  0.1039
   26MOL    C11 9561   6.415   3.069   2.719  0.4122  0.1234  0.5848
   26MOL    H12 9562   6.629   2.535   2.725  1.2854 -0.2570 -0.3888
   26MOL    H13 9563   6.781   2.692   2.843  0.1038  1.3924  0.3429
   26MOL    H14 9564   6.749   2.920   2.866  1.2535 -0.2692  4.1497
   26MOL    H15 9565   6.644   2.861   2.999  0.8977  0.2867  0.3124
   26MOL    H16 9566   6.748   2.985   2.676  0.8549  1.4874 -3.7705
   26MOL    H17 9567   6.730   3.143   2.492 -1.4699 -0.0520 -2.1727
   26MOL    H18 9568   6.511   3.252   2.447  0.0616  1.8004  0.9998
   26MOL    H19 9569   6.315   3.206   2.573 -0.2372 -0.4276 -0.3199
   26MOL    H20 9570   6.535   2.691   2.678 -1.1236 -0.2441  1.3718
   26MOL    C21 9571   6.300   3.045   2.814 -0.1097 -0.6477 -0.8604
   26MOL    C22 9572   6.312   3.097   2.957 -0.0414 -0.1040  0.8388
   26MOL    O23 9573   6.241   3.169   2.857 -0.2611 -0.1931  0.4289
   26MOL    C24 9574   6.427   3.174   3.020 -0.0973 -0.0723 -0.5527
   26MOL    O25 9575   6.474   3.115   3.136 -0.2025  0.2985  0.1418
   26MOL    C26 9576   6.409   3.148   3.250  0.1306 -0.3967 -0.2184
   26MOL    C27 9577   6.352   3.273   3.284 -0.1406 -0.6690 -0.1716
   26MOL    C28 9578   6.280   3.284   3.405 -0.0397 -0.2709  0.4395
   26MOL    C29 9579   6.259   3.176   3.490  0.1165  0.1383  0.0682
   26MOL    C30 9580   6.315   3.049   3.465  0.1102 -0.0742 -0.3495
   26MOL    C31 9581   6.392   3.036   3.346 -0.0160  0.2370 -0.7873
   26MOL    H32 9582   6.218   2.984   2.777 -0.9801 -0.8673  1.3675
   26MOL    H33 9583   6.255   3.041   3.030  2.9107 -1.9177  1.8679
   26MOL    H34 9584   6.392   3.277   3.025  1.0365  0.3862 -1.9623
   26MOL    H35 9585   6.513   3.175   2.953  0.1283 -0.9347 -0.2885
   26MOL    H36 9586   6.353   3.352   3.212 -0.4072 -0.0916  0.4516
   26MOL    H37 9587   6.239   3.381   3.430  0.1757  0.2711 -1.2338
   26MOL    H38 9588   6.211   3.200   3.583  1.1538  2.4902  0.0242
   26MOL    H39 9589   6.320   2.984   3.552  0.1770 -0.3116 -0.5308
   26MOL    C40 9590   6.465   2.910   3.324 -0.1626  0.4671  0.3510
   26MOL    C41 9591   6.611   2.890   3.282 -0.1583  0.0495  0.6333
   26MOL    O42 9592   6.568   2.884   3.422 -0.0221  0.1641  0.8591
   26MOL    C43 9593   6.707   3.005   3.250 -0.0642  0.9473 -0.2475
   26MOL    O44 9594   6.831   2.981   3.304  0.4258 -0.1874  0.4015
   26MOL    C45 9595   6.863   3.040   3.425 -0.1193 -0.5217  0.2084
   26MOL    C46 9596   6.767   3.102   3.512 -0.3517  0.0474  0.4848
   26MOL    C47 9597   6.803   3.163   3.632 -0.8080 -0.5460  1.2573
   26MOL    C48 9598   6.938   3.160   3.670  0.5383  0.1167 -0.6130
   26MOL    C49 9599   7.034   3.098   3.587  0.1233  0.4648 -0.1653
   26MOL    C50 9600   7.000   3.039   3.463  0.1054  0.4211 -0.6203
   26MOL    H51 9601   6.392   2.829   3.319 -0.5031  0.8003 -0.0761
   26MOL    H52 9602   6.657   2.798   3.247 -0.4750 -0.3965  1.3819
   26MOL    H53 9603   6.677   3.107   3.275  1.3940  2.0785 -2.9616
   26MOL    H54 9604   6.710   3.010   3.141 -0.0211 -0.0116 -0.2955
   26MOL    H55 9605   6.664   3.099   3.481  0.1955  1.3081 -1.5650
   26MOL    H56 9606   6.738   3.189   3.715 -2.5136  0.1175 -0.2396
   26MOL    H57 9607   6.971   3.198   3.766 -0.5090 -1.6132  0.4511
   26MOL    H58 9608   7.130   3.074   3.630 -0.0050 -1.3495 -0.8350
   26MOL    C59 9609   7.095   2.973   3.374  0.2157  0.1173 -0.4409
   26MOL    C60 9610   7.189   3.060   3.294  0.0761  0.9410  0.1751
   26MOL    O61 9611   7.230   2.996   3.416 -0.3164 -0.0113 -0.0214
   26MOL    C62 9612   7.183   3.209   3.289 -0.1018 -0.4317  0.4898
   26MOL    O63 9613   7.299   3.271   3.232 -0.0244 -0.0126  0.3111
   26MOL    C64 9614   7.302   3.407   3.225 -0.3234  0.2580 -0.2793
   26MOL    C65 9615   7.288   3.466   3.098 -0.0444 -0.0403 -0.5277
   26MOL    C66 9616   7.304   3.604   3.099 -0.8263 -0.4638 -0.8464
   26MOL    C67 9617   7.339   3.682   3.209 -1.1451 -0.1050  0.4600
   26MOL    C68 9618   7.364   3.617   3.338  0.0589  0.7087  0.2276
   26MOL    C69 9619   7.340   3.477   3.342 -0.1718 -0.0604 -0.4659
   26MOL    H70 9620   7.078   2.866   3.359  0.3712  0.0530 -0.1759
   26MOL    H71 9621   7.237   3.014   3.208 -1.1467  0.4668 -0.2522
   26MOL    H72 9622   7.160   3.258   3.384 -1.6857 -1.5594  0.7191
   26MOL    H73 9623   7.116   3.238   3.208  2.3410 -1.4955 -1.9929
   26MOL    H74 9624   7.252   3.418   3.008 -0.4896  2.0135 -1.4886
   26MOL    H75 9625   7.287   3.664   3.010 -1.4413  2.6786  1.2927
   26MOL    H76 9626   7.353   3.787   3.189 -0.8012 -0.4540 -1.2117
   26MOL    H77 9627   7.387   3.677   3.426  0.8633  0.4365  0.1973
   26MOL    C78 9628   7.368   3.406   3.476  0.0201 -0.0663  0.5175
   26MOL    C79 9629   7.494   3.323   3.494 -0.0199  0.5153  0.0863
   26MOL    O80 9630   7.487   3.459   3.535 -0.0112 -0.0026 -0.6481
   26MOL    C81 9631   7.589   3.292   3.381  0.7832  0.4662  0.6609
   26MOL    O82 9632   7.692   3.199   3.412  0.4224  0.4727  1.0648
   26MOL    C83 9633   7.789   3.224   3.504  0.0260  0.4971 -0.2544
   26MOL    C84 9634   7.797   3.343   3.578  0.3439 -0.0482 -0.4532
   26MOL    C85 9635   7.905   3.359   3.671 -0.6707  0.2790 -0.0002
   26MOL    C86 9636   8.002   3.255   3.681 -0.1311 -0.9272  0.6856
   26MOL    C87 9637   7.991   3.137   3.613  0.2247  0.1268 -0.1110
   26MOL    C88 9638   7.886   3.124   3.521 -0.0069 -0.0241  0.1201
   26MOL    H89 9639   7.292   3.392   3.553 -0.3946 -0.7551 -0.0114
   26MOL    H90 9640   7.492   3.259   3.581  0.3342  1.3739  0.7385
   26MOL    H91 9641   7.624   3.388   3.342  0.7578 -0.1432 -0.9038
   26MOL    H92 9642   7.530   3.259   3.295  3.4322 -2.1026 -0.2537
   26MOL    H93 9643   7.713   3.410   3.588  0.1756 -0.3779  0.3749
   26MOL    H94 9644   7.927   3.440   3.739 -0.1083 -0.8920  1.2320
   26MOL    H95 9645   8.089   3.265   3.745  1.3495 -1.3345 -1.2247
   26MOL    H96 9646   8.055   3.050   3.628 -2.0120 -1.4882  0.2524
   26MOL    C97 9647   7.886   2.992   3.445 -0.1470 -0.4806  0.7440
   26MOL    C98 9648   7.927   2.972   3.303  0.3092 -0.7430 -0.6511
   26MOL    O99 9649   8.014   2.942   3.420 -0.2295  0.3092 -0.9862
   26MOL   C100 9650   7.997   3.072   3.209 -0.0139 -0.0515  0.5837
   26MOL   O101 9651   7.952   3.202   3.215 -0.1074 -0.0181  0.2583
   26MOL   C102 9652   7.848   3.239   3.128 -0.1858 -0.1340  0.0167
   26MOL   C103 9653   7.771   3.145   3.053 -0.5551 -0.0628 -0.0285
   26MOL   C104 9654   7.668   3.190   2.964  0.3043 -0.1768  0.2445
   26MOL   C105 9655   7.632   3.327   2.957  0.4360 -0.0428  0.0962
   26MOL   C106 9656   7.690   3.420   3.046  0.9782  0.1482  0.3584
   26MOL   C107 9657   7.800   3.377   3.131  0.7612  0.5270 -0.3531
   26MOL   H108 9658   7.830   2.916   3.498 -0.5207 -0.7571 -0.0378
   26MOL   H109 9659   7.883   2.885   3.255  0.5363 -0.8597 -0.6473
   26MOL   H110 9660   7.991   3.025   3.110  0.3999 -0.6384  0.8330
   26MOL   H111 9661   8.093   3.068   3.259 -0.1829 -2.6902  0.7955
   26MOL   H112 9662   7.786   3.038   3.048 -0.9399 -0.2083  1.7081
   26MOL   H113 9663   7.608   3.118   2.910  1.2784 -0.8001 -0.0159
   26MOL   H114 9664   7.553   3.368   2.896  0.1281  0.7794  1.0168
   26MOL   H115 9665   7.653   3.522   3.045 -0.7403 -0.4689 -0.7330
   26MOL   C116 9666   7.877   3.480   3.215  0.0619 -0.3234 -0.9104
   26MOL   C117 9667   7.964   3.588   3.166  0.3462 -0.0884  0.2537
   26MOL   O118 9668   7.831   3.615   3.200 -0.4305  0.2481 -0.0725
   26MOL   C119 9669   8.000   3.607   3.013 -0.1964  0.0554 -0.7372
   26MOL   O120 9670   8.018   3.744   2.991 -0.1016 -0.1625 -0.1807
   26MOL   C121 9671   7.958   3.795   2.875 -0.0755 -0.1108  0.5713
   26MOL   C122 9672   8.023   3.795   2.749 -0.0734 -0.0542 -0.0132
   26MOL   C123 9673   7.959   3.832   2.633 -0.7575 -0.2688 -0.4010
   26MOL   C124 9674   7.825   3.872   2.627 -0.2139 -0.6443 -0.2261
   26MOL   C125 9675   7.756   3.878   2.751 -0.3953 -0.4360 -0.0322
   26MOL   C126 9676   7.823   3.838   2.875  0.3992 -0.1880  0.1478
   26MOL   H127 9677   7.883   3.455   3.320  0.7152  0.4243 -0.7662
   26MOL   H128 9678   8.041   3.634   3.228  0.8230 -0.4710 -0.0488
   26MOL   H129 9679   7.927   3.571   2.941  0.4605 -1.1674 -0.8071
   26MOL   H130 9680   8.093   3.557   2.984  0.7003  0.8522  0.7006
   26MOL   H131 9681   8.119   3.746   2.741  0.1328 -0.1310  2.6423
   26MOL   H132 9682   8.013   3.810   2.542  1.0561 -0.5094  0.6933
   26MOL   H133 9683   7.778   3.884   2.531 -1.6229  0.5879  0.5964
   26MOL   H134 9684   7.652   3.907   2.757 -0.6868 -1.6442  0.8364
   26MOL   C135 9685   7.751   3.840   3.004 -0.2785  0.1823  0.3735
   26MOL   C136 9686   7.778   3.927   3.129 -0.6230  0.1802 -0.6051
   26MOL   O137 9687   7.693   3.969   3.025 -0.2508 -0.0007 -0.4275
   26MOL   C138 9688   7.897   4.016   3.144  0.1498 -0.0596  0.3241
   26MOL   O139 9689   7.907   4.071   3.275 -0.8436 -0.2154 -0.2903
   26MOL   C140 9690   7.980   4.187   3.289 -0.3795  0.0894 -0.1377
   26MOL   C141 9691   8.094   4.209   3.211 -0.2208  0.2363 -0.0007
   26MOL   C142 9692   8.164   4.330   3.229  0.1103 -0.0014  0.4006
   26MOL   C143 9693   8.115   4.425   3.317 -0.7364  0.1927 -0.1944
   26MOL   C144 9694   7.996   4.403   3.390 -0.0295  0.3537 -0.0664
   26MOL   C145 9695   7.933   4.279   3.383  0.4388  0.2377  0.6744
   26MOL   H146 9696   7.687   3.753   3.021 -1.3133 -0.0361 -3.9417
   26MOL   H147 9697   7.727   3.889   3.218 -0.4141  0.8849 -0.1833
   26MOL   H148 9698   7.906   4.089   3.063  0.7567  0.8153  1.1613
   26MOL   H149 9699   7.988   3.956   3.132 -0.2960 -0.6780  0.0357
   26MOL   H150 9700   8.126   4.138   3.136  1.3516  0.6257  0.2851
   26MOL   H151 9701   0.076   4.357   3.165 -0.9743  1.9467 -0.2147
   26MOL   H152 9702   8.165   4.519   3.335  2.4027 -1.4787  0.1260
   26MOL   H153 9703   7.953   4.477   3.456 -0.8109 -1.6187  1.6951
   26MOL   C154 9704   7.811   4.246   3.459  0.1036 -0.4534 -0.5502
   26MOL   C155 9705   7.823   4.173   3.583 -0.5642 -0.1079 -0.1504
   26MOL   O156 9706   7.799   4.321   3.581 -0.1590  0.0598  0.0241
   26MOL   C157 9707   7.952   4.140   3.660  0.7214  0.6014 -0.0912
   26MOL   O158 9708   7.957   3.994   3.664  0.5320  0.2423  0.0625
   26MOL   C159 9709   8.037   3.918   3.581  0.8179 -1.2248 -0.3535
   26MOL   C160 9710   8.151   3.972   3.518  0.3553 -0.3780 -0.0318
   26MOL   C161 9711   0.061   3.898   3.432 -0.2274 -0.3670  0.2102
   26MOL   C162 9712   0.025   3.764   3.413  0.2140 -1.0184 -0.1502
   26MOL   C163 9713   8.084   3.708   3.484 -0.0140  0.0723 -0.3420
   26MOL   C164 9714   8.000   3.789   3.561  0.3891 -0.3784 -0.4121
   26MOL   H165 9715   7.716   4.242   3.407 -0.2262  0.7152 -0.0373
   26MOL   H166 9716   7.738   4.114   3.619 -2.0232  2.5226  0.8702
   26MOL   H167 9717   7.931   4.163   3.764  2.0314 -0.2671  0.3827
   26MOL   H168 9718   8.043   4.195   3.636 -0.7695  2.7932 -0.8426
   26MOL   H169 9719   0.012   4.074   3.534 -0.3785 -0.2347  0.4980
   26MOL   H170 9720   0.148   3.945   3.388 -1.4747  0.1700 -1.7339
   26MOL   H171 9721   0.091   3.693   3.366 -0.0646 -0.5478 -1.2729
   26MOL   H172 9722   8.061   3.604   3.471 -1.4509  0.0578  2.0390
   26MOL   C173 9723   7.889   3.718   3.621 -0.5315  0.4313  0.3745
   26MOL   C174 9724   7.740   3.741   3.599 -0.3053  0.5210 -0.6007
   26MOL   O175 9725   7.823   3.657   3.514  0.0564  0.6436  0.3328
   26MOL   C176 9726   7.669   3.853   3.513 -0.0105  0.4670 -0.4176
   26MOL   O177 9727   7.572   3.923   3.601  0.2767  0.2156  0.3523
   26MOL   C178 9728   7.486   3.997   3.528  0.0775 -0.5269  0.3080
   26MOL   C179 9729   7.505   4.033   3.393 -0.3381 -0.5953  0.6373
   26MOL   C180 9730   7.417   4.112   3.316  0.0401 -1.2193  0.3422
   26MOL   C181 9731   7.295   4.144   3.374 -0.1904 -0.0468  0.2417
   26MOL   C182 9732   7.265   4.115   3.514  0.3484  0.0439  0.6104
   26MOL   C183 9733   7.361   4.039   3.585  0.8073 -0.0663 -0.5286
   26MOL   H184 9734   7.921   3.654   3.704 -0.4228 -0.2383 -0.1862
   26MOL   H185 9735   7.676   3.681   3.663 -0.8206  1.2232 -0.4532
   26MOL   H186 9736   7.608   3.805   3.436 -0.9286 -1.1009  1.2609
   26MOL   H187 9737   7.743   3.920   3.469  2.0252 -0.5826  1.3462
   26MOL   H188 9738   7.597   4.008   3.343  0.3455  0.7108  1.2214
   26MOL   H189 9739   7.444   4.151   3.218 -2.4345 -0.9171 -0.2573
   26MOL   H190 9740   7.225   4.198   3.313 -0.9622 -0.9925  0.2885
   26MOL   H191 9741   7.172   4.143   3.562  0.1121  0.3271 -0.0141
   26MOL   C192 9742   7.341   4.005   3.731 -0.3987  0.0408 -0.3683
   26MOL   C193 9743   7.409   4.079   3.849 -0.3911  0.4376 -0.7859
   26MOL   O194 9744   7.277   4.108   3.808  0.4809 -0.5407  0.2875
   26MOL   C195 9745   7.517   4.182   3.824 -0.1966 -1.7123 -0.1923
   26MOL   O196 9746   7.512   4.300   3.895  0.0339 -0.2389  0.1273
   26MOL   C197 9747   7.581   4.317   4.010  0.5561 -0.1973  0.9566
   26MOL   C198 9748   7.535   4.266   4.131 -0.4699  0.0212 -0.0503
   26MOL   C199 9749   7.608   4.284   4.254 -0.3870  0.5067  0.2161
   26MOL   C200 9750   7.716   4.368   4.259  0.2112  0.1574  0.3427
   26MOL   C201 9751   7.759   4.420   4.141  0.4168 -0.4846 -0.1256
   26MOL   C202 9752   7.695   4.400   4.016 -0.8552 -0.2199  0.0930
   26MOL   H203 9753   7.300   3.906   3.751 -0.0816 -0.0358 -0.0827
   26MOL   H204 9754   7.418   4.037   3.949  1.8129 -0.8922 -1.5120
   26MOL   H205 9755   7.526   4.214   3.720  1.2115 -0.4734  0.3014
   26MOL   H206 9756   7.615   4.136   3.838  0.5395 -0.5961 -1.5775
   26MOL   H207 9757   7.445   4.206   4.129 -1.2378  1.1794 -0.6988
   26MOL   H208 9758   7.573   4.227   4.339  1.0935  0.3795  0.7574
   26MOL   H209 9759   7.779   4.388   4.344  1.8780 -1.9248 -0.3577
   26MOL   H210 9760   7.850   4.479   4.138  2.1123 -3.0582 -1.1282
   26MOL   C211 9761   7.751   4.466   3.900  0.7046 -0.8259  0.2025
   26MOL   C212 9762   7.698   4.594   3.830 -0.4516  0.5311  0.2210
   26MOL   O213 9763   7.812   4.592   3.926  0.1177 -0.5104  0.0385
   26MOL   C214 9764   7.569   4.663   3.880 -0.0911 -0.5715 -0.4102
   26MOL   O215 9765   7.563   4.793   3.820  0.0086  0.3832 -0.5961
   26MOL   C216 9766   7.532   4.898   3.906  0.3730  0.2283  0.4753
   26MOL   C217 9767   7.475   4.888   4.034  0.1444  0.3247  0.6131
   26MOL   C218 9768   7.451   4.998   4.115  0.0936  0.1375  0.0396
   26MOL   C219 9769   7.485   5.125   4.071  0.0372 -0.2035  0.4011
   26MOL   C220 9770   7.534   5.141   3.939  0.0393 -0.8465  0.1219
   26MOL   C221 9771   7.553   5.028   3.859 -0.5035 -0.5002 -0.2785
   26MOL   H222 9772   7.814   4.403   3.838 -0.6323 -1.1573 -0.8516
   26MOL   H223 9773   7.734   4.635   3.736  2.5164 -1.7741  0.3010
   26MOL   H224 9774   7.584   4.654   3.988  3.5559  1.6575 -0.6367
   26MOL   H225 9775   7.478   4.614   3.845  0.8993 -2.1020 -0.9126
   26MOL   H226 9776   7.448   4.788   4.065  0.8737 -0.3655 -0.9052
   26MOL   H227 9777   7.410   4.982   4.213  2.0355  0.3620  0.9050
   26MOL   H228 9778   7.481   5.212   4.135  1.0306  0.0677  0.1019
   26MOL   H229 9779   7.560   5.238   3.899 -0.1159 -1.3307 -1.1841
   26MOL   C230 9780   7.607   5.053   3.719  0.6983  0.2353 -0.1276
   26MOL   C231 9781   7.533   5.016   3.592  0.3552 -1.0685  0.0417
   26MOL   O232 9782   7.526   5.152   3.651  0.1035 -0.0877  0.0242
   26MOL   C233 9783   7.408   4.934   3.600  0.4511  0.0741  0.4484
   26MOL   O234 9784   7.307   4.985   3.511  0.1125  0.1794 -0.0523
   26MOL   C235 9785   7.197   4.906   3.499  0.8030  0.4404 -0.1386
   26MOL   C236 9786   7.173   4.795   3.575 -0.6770 -0.3267 -0.2572
   26MOL   C237 9787   7.051   4.729   3.568 -0.0831  0.2492 -0.5035
   26MOL   C238 9788   6.954   4.768   3.477  0.1921 -0.5451  0.2396
   26MOL   C239 9789   6.974   4.882   3.403 -0.3928 -0.0776  0.9873
   26MOL   C240 9790   7.095   4.956   3.415 -0.2758  0.5633  0.2952
   26MOL   H241 9791   7.715   5.058   3.703  0.8921  0.7959  1.2745
   26MOL   H242 9792   7.581   4.998   3.496  1.8015  0.4652  0.4480
   26MOL   H243 9793   7.371   4.941   3.702 -0.7832 -0.7311  0.0718
   26MOL   H244 9794   7.436   4.832   3.576 -0.1675 -0.2221  0.9929
   26MOL   H245 9795   7.240   4.764   3.654  1.2840  0.9484 -1.3833
   26MOL   H246 9796   7.028   4.651   3.639  2.0332  0.0532  0.0043
   26MOL   H247 9797   6.856   4.723   3.478  0.6017 -1.4473  0.0762
   26MOL   H248 9798   6.897   4.926   3.341 -2.1394 -1.3122  2.2598
   26MOL   C249 9799   7.120   5.092   3.349  0.2164  0.1961  0.1738
   26MOL   C250 9800   7.189   5.100   3.216  0.1245  0.1340 -0.0900
   26MOL   O251 9801   7.044   5.112   3.225 -0.3380  0.0032 -0.3676
   26MOL   C252 9802   7.239   4.992   3.123 -0.2030  0.8257  0.3928
   26MOL   O253 9803   7.245   5.020   2.983 -0.0718  0.3736 -0.0052
   26MOL   C254 9804   7.306   4.938   2.890 -0.2153  0.1161  0.3434
   26MOL   C255 9805   7.364   4.810   2.922 -0.2839 -0.0813 -0.1249
   26MOL   C256 9806   7.423   4.732   2.822  0.3845  0.4073  0.5022
   26MOL   C257 9807   7.432   4.785   2.689  0.6401  0.1147 -0.3218
   26MOL   C258 9808   7.378   4.905   2.662 -0.0365  0.2467  0.1801
   26MOL   C259 9809   7.310   4.987   2.757 -0.5881 -0.0288  0.5724
   26MOL   H260 9810   7.134   5.186   3.402 -0.3642  0.0872  0.5286
   26MOL   H261 9811   7.244   5.193   3.203  0.2839  0.2746  1.4731
   26MOL   H262 9812   7.178   4.904   3.142  2.0196 -0.8593 -0.1609
   26MOL   H263 9813   7.338   4.960   3.153  0.7321  0.0330 -3.2944
   26MOL   H264 9814   7.379   4.776   3.023  2.8834 -0.0968 -0.5604
   26MOL   H265 9815   7.478   4.644   2.853  1.8555  1.8902  2.1979
   26MOL   H266 9816   7.489   4.730   2.615 -1.8694 -1.8859 -0.8627
   26MOL   H267 9817   7.398   4.947   2.564 -1.0109 -0.9800 -0.5753
   26MOL   C268 9818   7.272   5.124   2.724  1.0089 -0.1251 -0.0893
   26MOL   C269 9819   7.335   5.256   2.754 -0.1550 -0.7757  0.2413
   26MOL   O270 9820   7.374   5.180   2.636 -0.1476  0.3123  0.3123
   26MOL   C271 9821   7.434   5.277   2.866  0.2752  0.8395 -0.4658
   26MOL   O272 9822   7.512   5.396   2.855 -0.4099  0.4280  0.1980
   26MOL   C273 9823   7.581   5.436   2.967  0.4639  0.0659 -0.4923
   26MOL   C274 9824   7.613   5.349   3.070 -0.0420 -0.0174  0.4981
   26MOL   C275 9825   7.713   5.384   3.164  0.1270  0.2197 -0.4941
   26MOL   C276 9826   7.765   5.515   3.164  0.0410 -0.9562 -0.3128
   26MOL   C277 9827   7.718   5.609   3.071  0.1985 -0.5475  0.1827
   26MOL   C278 9828   7.634   5.564   2.966  1.1364  0.3200 -0.0598
   26MOL   H279 9829   7.175   5.129   2.675  0.7850  1.0333  0.4706
   26MOL   H280 9830   7.281   5.346   2.725  1.7809  0.5515  0.6498
   26MOL   H281 9831   7.510   5.200   2.873  0.7183  1.1874 -1.4113
   26MOL   H282 9832   7.378   5.284   2.960  0.9492  0.6888 -0.0519
   26MOL   H283 9833   7.574   5.250   3.085  1.1176 -0.4127  0.9428
   26MOL   H284 9834   7.741   5.305   3.233 -0.9320  1.7801  1.7682
   26MOL   H285 9835   7.843   5.554   3.228  0.2757 -1.0788 -0.5231
   26MOL   H286 9836   7.742   5.714   3.060 -0.7050 -0.4817 -1.3477
   26MOL   C287 9837   7.582   5.660   2.862 -1.0264  0.4539  0.5947
   26MOL   C288 9838   7.455   5.728   2.870  0.4372  0.3674  0.7707
   26MOL   O289 9839   7.571   5.796   2.914 -0.6876 -0.0563  0.7031
   26MOL   C290 9840   7.344   5.701   2.968 -0.3472  0.1259 -0.2507
   26MOL   O291 9841   7.228   5.775   2.938  0.0264  0.1437 -0.0418
   26MOL   C292 9842   7.206   5.894   2.994 -0.6039  0.3243  0.2514
   26MOL   C293 9843   7.304   5.976   3.051 -0.4191 -0.2248  0.4787
   26MOL   C294 9844   7.264   6.104   3.105  0.0255 -0.1656  0.6042
   26MOL   C295 9845   7.135   6.144   3.103 -0.4168 -0.3099  0.4715
   26MOL   C296 9846   7.037   6.057   3.056  0.0306 -0.2322 -0.2987
   26MOL   C297 9847   7.070   5.932   2.999 -0.1102 -0.4986 -0.6880
   26MOL   H298 9848   7.627   5.648   2.763 -1.1947  0.8519  0.4681
   26MOL   H299 9849   7.419   5.768   2.775  0.2631 -1.6242 -0.0271
   26MOL   H300 9850   7.383   5.720   3.068 -1.4637  0.1152  0.2039
   26MOL   H301 9851   7.313   5.596   2.967  1.5683 -0.5281  2.7822
   26MOL   H302 9852   7.406   5.942   3.046 -0.7034 -0.9787 -0.1908
   26MOL   H303 9853   7.339   6.169   3.149 -0.8248  2.0200 -1.1028
   26MOL   H304 9854   7.112   6.234   3.159  2.1640 -0.2817  1.5652
   26MOL   H305 9855   6.937   6.096   3.064  0.7476  1.2840  1.8306
   26MOL   C306 9856   6.963   5.845   2.951 -0.4780  0.8639  0.5731
   26MOL   C307 9857   6.922   5.726   3.027  0.6653  0.7713  0.5303
   26MOL   O308 9858   6.848   5.851   3.031 -0.2266 -0.6956  0.5969
   26MOL   C309 9859   6.989   5.674   3.149 -0.3629  0.2801  0.6139
   26MOL   O310 9860   6.915   5.580   3.218 -0.5848 -0.1510  0.4995
   26MOL   C311 9861   6.819   5.621   3.309  0.3331 -0.3324 -0.7110
   26MOL   C312 9862   6.786   5.759   3.338  0.0424  0.1936  0.4294
   26MOL   C313 9863   6.682   5.793   3.423  0.5498  0.1073 -0.3686
   26MOL   C314 9864   6.622   5.690   3.495 -0.6205  0.5287  0.5442
   26MOL   C315 9865   6.653   5.555   3.474 -0.4606  0.1790 -0.1494
   26MOL   C316 9866   6.751   5.521   3.376  0.0687  0.5062 -0.1511
   26MOL   H317 9867   6.959   5.855   2.843  0.0651  2.8724  0.7026
   26MOL   H318 9868   6.880   5.649   2.963  1.5440 -0.3509  1.2757
   26MOL   H319 9869   7.021   5.752   3.218  1.9874  1.1691 -1.3899
   26MOL   H320 9870   7.078   5.624   3.110 -1.4640 -1.2429  0.0382
   26MOL   H321 9871   6.849   5.838   3.301 -1.0747 -0.0827 -2.1464
   26MOL   H322 9872   6.642   5.892   3.438 -2.4717 -1.3663  1.8227
   26MOL   H323 9873   6.549   5.727   3.565 -0.8656 -0.7626  0.9885
   26MOL   H324 9874   6.601   5.478   3.529  0.1587 -1.1212 -1.3627
   26MOL   C325 9875   6.791   5.378   3.350  0.1287 -0.1313  0.0475
   26MOL   C326 9876   6.818   5.266   3.449  0.3018  0.0036 -0.1088
   26MOL   O327 9877   6.692   5.288   3.384 -0.0437 -0.1390 -0.7783
   26MOL   C328 9878   6.825   5.274   3.602 -0.3827 -0.6369  0.4799
   26MOL   O329 9879   6.905   5.386   3.651  0.3372  0.3247  0.2172
   26MOL   C330 9880   7.042   5.378   3.662 -0.3278 -1.0593  0.6880
   26MOL   C331 9881   7.116   5.256   3.680  0.3561  0.7575  0.1132
   26MOL   C332 9882   7.250   5.270   3.717  0.3508  0.1987 -0.0754
   26MOL   C333 9883   7.314   5.394   3.719  0.1407 -0.3951 -0.5013
   26MOL   C334 9884   7.238   5.513   3.701  0.2853 -0.0589  0.1018
   26MOL   C335 9885   7.101   5.501   3.664  0.3844  0.5452  0.2842
   26MOL   H336 9886   6.822   5.370   3.245  0.0944  0.2314  0.0118
   26MOL   H337 9887   6.880   5.186   3.411  0.9379  0.7127 -0.5755
   26MOL   H338 9888   6.827   5.172   3.641  0.5121 -1.0399 -0.6033
   26MOL   H339 9889   6.724   5.300   3.635 -1.6175 -1.6488 -2.3659
   26MOL   H340 9890   7.067   5.160   3.668  2.5477 -0.2496 -1.1934
   26MOL   H341 9891   7.309   5.181   3.735  1.8886  1.3569  0.7091
   26MOL   H342 9892   7.419   5.400   3.745 -1.0373  2.8780  4.2734
   26MOL   H343 9893   7.286   5.609   3.715  0.2664  0.1009 -0.8894
   26MOL   C344 9894   7.014   5.630   3.649 -0.3787  0.0561  0.2534
   26MOL   C345 9895   6.988   5.722   3.766 -0.1257 -0.3079  1.0592
   26MOL   O346 9896   7.101   5.746   3.676 -0.4063 -0.0452 -0.1542
   26MOL   C347 9897   7.029   5.692   3.909  0.1977  0.6213  0.0320
   26MOL   O348 9898   7.042   5.808   3.985 -0.3215 -0.2849 -0.1188
   26MOL   C349 9899   7.164   5.874   3.990 -0.6522  0.8916  0.3329
   26MOL   C350 9900   7.279   5.844   3.908 -0.1219  0.2126  0.9871
   26MOL   C351 9901   7.403   5.909   3.920  0.2005  0.2001 -0.4860
   26MOL   C352 9902   7.408   6.012   4.010 -0.4986  0.6803 -0.8371
   26MOL   C353 9903   7.293   6.056   4.084  0.0958  0.6523 -0.1308
   26MOL   C354 9904   7.170   5.988   4.068  0.4191 -0.4134  0.2429
   26MOL   H355 9905   6.948   5.620   3.563  0.1342 -0.3459 -0.0980
   26MOL   H356 9906   6.911   5.799   3.758  0.1195 -0.1991 -0.2894
   26MOL   H357 9907   7.125   5.642   3.917  0.8575  1.7709 -0.5861
   26MOL   H358 9908   6.956   5.629   3.959 -0.3485  0.3676 -1.0709
   26MOL   H359 9909   7.267   5.767   3.833 -0.6330  1.5876 -0.3805
   26MOL   H360 9910   7.485   5.870   3.862 -0.0719 -0.9429 -0.1093
   26MOL   H361 9911   7.501   6.062   4.032 -0.8436 -0.4503  3.7577
   26MOL   H362 9912   7.298   6.135   4.157  0.4040  1.7340 -1.3155
   26MOL   C363 9913   7.059   6.028   4.158 -0.2167  0.3251 -0.1722
   26MOL   C364 9914   7.020   5.940   4.277  0.2235 -0.0507 -1.1173
   26MOL   O365 9915   7.110   6.053   4.289 -0.2366 -0.3385 -0.1604
   26MOL   C366 9916   7.079   5.810   4.329 -0.9233  0.1045 -0.0834
   26MOL   O367 9917   7.056   5.794   4.463  0.4390 -0.5064  0.1300
   26MOL   C368 9918   7.037   5.663   4.508 -0.1561 -0.1428 -0.4282
   26MOL   C369 9919   7.084   5.547   4.438 -0.4064 -0.0107 -0.8602
   26MOL   C370 9920   7.051   5.422   4.480 -0.3726  1.0537  0.1745
   26MOL   C371 9921   6.973   5.408   4.598  0.4760  0.3368  0.4430
   26MOL   C372 9922   6.929   5.513   4.670  0.4667 -0.4945  0.3657
   26MOL   C373 9923   6.957   5.649   4.622 -0.0614  0.2831 -0.4799
   26MOL   H374 9924   6.998   6.108   4.116  2.0830  2.4477  0.3849
   26MOL   H375 9925   6.919   5.960   4.313  0.4729  1.2796 -1.1122
   26MOL   H376 9926   7.187   5.801   4.317 -0.6621  2.1104  0.6064
   26MOL   H377 9927   7.039   5.730   4.266 -1.4169  0.6905 -0.5263
   26MOL   H378 9928   7.135   5.554   4.343 -0.3506  0.8777 -0.7667
   26MOL   H379 9929   7.070   5.337   4.416 -1.6101  0.7798  0.1546
   26MOL   H380 9930   6.947   5.305   4.619 -1.3449  0.5742 -0.5623
   26MOL   H381 9931   6.861   5.494   4.752  1.8567 -1.0150  1.4205
   26MOL   H382 9932   6.916   5.735   4.674  1.9981  0.1998  1.3783
   27MOL     C1 9933   7.423   0.686   6.582  0.3967  0.2729  0.2239
   27MOL     C2 9934   7.514   0.754   6.683 -0.6619  0.4302 -0.2183
   27MOL     O3 9935   7.405   0.823   6.627 -0.2538 -0.3346  0.4094
   27MOL     C4 9936   7.655   0.790   6.650 -0.0534  0.2578 -0.0298
   27MOL     O5 9937   7.707   0.893   6.730  0.1931 -0.0923 -0.9148
   27MOL     C6 9938   7.669   1.022   6.697  0.1689  0.7200  0.5525
   27MOL     C7 9939   7.679   1.068   6.564 -0.0203  0.1975 -0.1836
   27MOL     C8 9940   7.634   1.198   6.528  0.0217 -0.2052 -0.3714
   27MOL     C9 9941   7.583   1.283   6.628  0.3483 -0.4215 -0.0721
   27MOL    C10 9942   7.580   1.239   6.763  0.3833 -0.2315  0.5629
   27MOL    C11 9943   7.622   1.112   6.799 -0.5179 -0.2088  0.7010
   27MOL    H12 9944   7.369   0.603   6.628 -0.0780  0.6538  0.3601
   27MOL    H13 9945   7.495   0.745   6.790  0.5408  0.9185  0.0440
   27MOL    H14 9946   7.650   0.798   6.541  0.5694  1.1823  0.0067
   27MOL    H15 9947   7.721   0.708   6.680 -0.7121  0.8938  3.3621
   27MOL    H16 9948   7.724   1.003   6.490 -2.7051 -0.9024 -0.9275
   27MOL    H17 9949   7.644   1.231   6.425 -0.2671 -1.5482 -0.8430
   27MOL    H18 9950   7.558   1.383   6.597  2.4402  0.9137  2.3966
   27MOL    H19 9951   7.530   1.304   6.832 -0.4327 -1.3564  1.0424
   27MOL    H20 9952   7.456   0.673   6.479 -1.0751 -3.0501  0.1119
   27MOL    C21 9953   7.606   1.060   6.938 -0.1492 -0.2158  0.4849
   27MOL    C22 9954   7.709   1.090   7.044  0.6120  0.1460 -0.2138
   27MOL    O23 9955   7.591   1.169   7.036  0.2976 -0.1773  0.1132
   27MOL    C24 9956   7.841   1.162   7.017  0.7131  0.5250  0.3209
   27MOL    O25 9957   7.935   1.145   7.123  0.3535 -0.1285 -0.4015
   27MOL    C26 9958   7.908   1.206   7.241  0.0248 -0.3178 -0.3955
   27MOL    C27 9959   7.805   1.302   7.269  0.1001 -0.3668  0.0281
   27MOL    C28 9960   7.792   1.352   7.398 -0.0795  0.4019  0.0552
   27MOL    C29 9961   7.858   1.295   7.510  0.4511 -0.4291  0.5048
   27MOL    C30 9962   7.945   1.190   7.486 -0.5928  1.1457 -0.0790
   27MOL    C31 9963   7.983   1.153   7.354 -0.8356  0.2190  0.4240
   27MOL    H32 9964   7.543   0.971   6.942 -0.9606  0.4077  1.8701
   27MOL    H33 9965   7.709   1.016   7.125 -3.7440  1.7762  1.3975
   27MOL    H34 9966   7.831   1.267   6.991  0.3145  0.5908  0.7422
   27MOL    H35 9967   7.887   1.118   6.928 -1.3500  1.4935 -1.2660
   27MOL    H36 9968   7.754   1.360   7.193 -2.2901  2.7753  3.8389
   27MOL    H37 9969   7.720   1.430   7.421 -0.7003 -0.6416  1.7724
   27MOL    H38 9970   7.847   1.329   7.612  0.6795  1.1446  0.0159
   27MOL    H39 9971   8.005   1.159   7.571  1.7716  0.4598 -1.9580
   27MOL    C40 9972   8.080   1.044   7.331 -0.5348 -0.2411 -0.4157
   27MOL    C41 9973   0.048   1.075   7.283  0.3750 -0.5312  0.2729
   27MOL    O42 9974   0.027   1.046   7.418 -0.3773  0.1153 -0.5188
   27MOL    C43 9975   0.098   1.212   7.253  0.4875 -0.1602 -0.6780
   27MOL    O44 9976   0.220   1.212   7.179 -0.2851  0.5544  0.4544
   27MOL    C45 9977   0.341   1.246   7.233  0.3476 -0.1001 -0.2272
   27MOL    C46 9978   0.360   1.299   7.358 -0.2355  0.1824  1.0375
   27MOL    C47 9979   0.486   1.334   7.408  0.0015 -0.0100  0.2610
   27MOL    C48 9980   0.602   1.311   7.336  0.0946  0.0873 -1.5382
   27MOL    C49 9981   0.587   1.243   7.213 -0.1077 -0.5389  0.5176
   27MOL    C50 9982   0.457   1.206   7.164 -0.8320  0.3730 -0.6784
   27MOL    H51 9983   8.036   0.948   7.307  0.0351 -0.5132 -0.3959
   27MOL    H52 9984   0.106   0.999   7.231 -1.7670 -0.2778 -2.5714
   27MOL    H53 9985   0.092   1.277   7.341 -3.0799  0.1999 -1.1110
   27MOL    H54 9986   0.019   1.253   7.190  0.0297  1.4340  0.8672
   27MOL    H55 9987   0.273   1.331   7.414 -0.4725  0.4314  0.5261
   27MOL    H56 9988   0.487   1.388   7.502 -2.4035  0.1204  0.2452
   27MOL    H57 9989   0.702   1.337   7.367 -0.6888 -0.6907  1.9138
   27MOL    H58 9990   0.679   1.217   7.163 -0.2740 -1.2961  0.5854
   27MOL    C59 9991   0.453   1.138   7.031 -0.6796  0.4355  0.0086
   27MOL    C60 9992   0.521   1.187   6.909  0.8611  0.1089  0.3323
   27MOL    O61 9993   0.587   1.093   6.987 -0.2966 -0.6673 -0.3777
   27MOL    C62 9994   0.575   1.328   6.897 -0.3739 -0.4285 -0.4120
   27MOL    O63 9995   0.563   1.372   6.762  0.1341 -0.2410  0.6781
   27MOL    C64 9996   0.440   1.405   6.707  0.2391 -0.0222 -0.6970
   27MOL    C65 9997   0.315   1.385   6.773  0.4395 -0.6222  0.2423
   27MOL    C66 9998   0.189   1.391   6.708  0.0654 -0.0711 -0.1758
   27MOL    C67 9999   0.188   1.422   6.568  0.3819  0.4085 -0.0398
   27MOL    C6810000   0.314   1.455   6.508 -0.1223 -0.2471 -0.1983
   27MOL    C6910001   0.437   1.458   6.576  0.4644 -0.3736  0.3761
   27MOL    H7010002   0.369   1.070   7.017  0.3356 -1.1535  1.4091
   27MOL    H7110003   0.483   1.151   6.813 -1.7534  1.2536  0.8899
   27MOL    H7210004   0.683   1.318   6.905 -0.4209 -0.4043  0.2586
   27MOL    H7310005   0.538   1.399   6.971 -2.0162 -2.8205  1.1319
   27MOL    H7410006   0.301   1.362   6.877 -1.9841 -0.9197 -0.1164
   27MOL    H7510007   0.096   1.374   6.762  0.6767 -0.6253  0.7147
   27MOL    H7610008   0.099   1.411   6.508 -0.0333 -0.3318  0.6976
   27MOL    H7710009   0.311   1.478   6.402  1.1835  3.4330  0.4916
   27MOL    C7810010   0.567   1.494   6.507  0.4569 -0.3355 -0.0474
   27MOL    C7910011   0.646   1.411   6.414 -0.3582  0.2012  0.2131
   27MOL    O8010012   0.558   1.505   6.365 -0.5249  0.4637 -0.0757
   27MOL    C8110013   0.610   1.266   6.394  0.0936  0.2465 -0.1430
   27MOL    O8210014   0.598   1.234   6.253 -0.1355 -0.2118 -0.6504
   27MOL    C8310015   0.671   1.129   6.199 -0.0576 -0.1904 -0.1957
   27MOL    C8410016   0.799   1.094   6.253  1.1253  0.8995  0.5007
   27MOL    C8510017   0.868   0.990   6.196 -0.4522 -0.6577 -0.4921
   27MOL    C8610018   0.819   0.923   6.084 -0.1762 -0.4619  0.1617
   27MOL    C8710019   0.702   0.967   6.025 -0.8275  0.6579  0.0810
   27MOL    C8810020   0.624   1.070   6.080 -0.2883  0.1037  0.1811
   27MOL    H8910021   0.599   1.591   6.544 -0.5784  0.2811 -0.7114
   27MOL    H9010022   0.746   1.442   6.385 -0.8275  0.6952 -0.9502
   27MOL    H9110023   0.508   1.254   6.431  1.1311 -0.9977  2.4753
   27MOL    H9210024   0.676   1.208   6.459  0.6076 -0.4776 -1.2958
   27MOL    H9310025   0.842   1.128   6.346 -0.9679  0.1233  1.7865
   27MOL    H9410026   0.964   0.958   6.233  0.3047  1.2143 -0.7432
   27MOL    H9510027   0.870   0.848   6.024 -2.3430 -1.0073 -1.0341
   27MOL    H9610028   0.670   0.917   5.934  2.4569  0.4929 -1.0604
   27MOL    C9710029   0.486   1.102   6.033  0.2329 -0.0406 -0.6064
   27MOL    C9810030   0.448   1.239   5.974 -0.6576  0.2457 -1.1789
   27MOL    O9910031   0.483   1.127   5.892  0.3035 -0.4672 -0.0611
   27MOL   C10010032   0.535   1.353   5.935 -0.3276 -0.0156 -0.6588
   27MOL   O10110033   0.675   1.324   5.950 -0.0702  0.6599  0.0627
   27MOL   C10210034   0.756   1.430   5.901  0.5018  0.9249  0.7010
   27MOL   C10310035   0.721   1.565   5.905  0.0683 -0.7289  0.2096
   27MOL   C10410036   0.812   1.668   5.869 -0.6901 -0.4156 -0.1211
   27MOL   C10510037   0.936   1.627   5.817  0.3153  0.1830 -1.3570
   27MOL   C10610038   0.974   1.489   5.808 -0.1247 -0.0341  0.0376
   27MOL   C10710039   0.884   1.392   5.855 -0.3384 -0.8954  0.2626
   27MOL   H10810040   0.407   1.045   6.082 -0.4271  0.3434 -1.2020
   27MOL   H10910041   0.341   1.258   5.967 -1.1774 -1.9295  0.3350
   27MOL   H11010042   0.510   1.440   5.996 -3.5341 -1.5964  0.3986
   27MOL   H11110043   0.511   1.375   5.831 -0.7461 -0.1354 -0.5878
   27MOL   H11210044   0.623   1.599   5.933  0.8337  0.0060  2.1309
   27MOL   H11310045   0.798   1.775   5.872  0.4629 -0.2903  2.0202
   27MOL   H11410046   0.998   1.708   5.781 -0.5237  1.4743  0.0195
   27MOL   H11510047   1.070   1.455   5.770 -0.4460 -2.2268  1.1653
   27MOL   C11610048   0.925   1.250   5.872  0.1020  0.3043 -0.0370
   27MOL   C11710049   0.904   1.145   5.769 -0.6301  0.3568  0.3719
   27MOL   O11810050   1.027   1.218   5.773  0.1914 -0.1111  0.0866
   27MOL   C11910051   0.821   1.162   5.645  0.2823 -0.8765  0.3392
   27MOL   O12010052   0.814   1.047   5.562 -0.7825  0.0148  0.5654
   27MOL   C12110053   0.916   1.044   5.467  0.5143  1.2602 -0.3585
   27MOL   C12210054   1.011   1.148   5.445  0.3783 -0.5102  0.3242
   27MOL   C12310055   1.106   1.136   5.340  0.0348 -0.4495 -0.4829
   27MOL   C12410056   1.120   1.015   5.280 -0.8792 -0.5590 -0.3214
   27MOL   C12510057   1.031   0.908   5.300 -0.4029 -0.4627 -0.6626
   27MOL   C12610058   0.921   0.923   5.386 -0.0808 -0.4081 -0.4215
   27MOL   H12710059   0.935   1.215   5.974 -0.6719  1.3840  0.4144
   27MOL   H12810060   0.923   1.041   5.797 -1.3457  0.5356  1.5413
   27MOL   H12910061   0.836   1.258   5.595  0.5008 -2.1494 -2.0825
   27MOL   H13010062   0.718   1.171   5.680  0.0890  1.2686 -0.6684
   27MOL   H13110063   1.013   1.234   5.511 -0.6037 -0.3090  0.0996
   27MOL   H13210064   1.172   1.219   5.323  0.8263 -0.8080  0.7772
   27MOL   H13310065   1.202   0.992   5.213  1.8106  1.1435  2.2730
   27MOL   H13410066   1.040   0.815   5.246  0.3802 -0.4989 -0.4875
   27MOL   C13510067   0.821   0.810   5.412  0.7090  0.1348  0.1696
   27MOL   C13610068   0.705   0.778   5.325 -0.6073  0.6450 -0.9704
   27MOL   O13710069   0.823   0.704   5.315 -0.0553 -0.3073 -0.2827
   27MOL   C13810070   0.672   0.853   5.194  0.0286  0.4112 -0.0062
   27MOL   O13910071   0.573   0.780   5.117 -0.1595  0.1900 -0.2158
   27MOL   C14010072   0.518   0.840   5.003  0.3308 -0.4713  0.4649
   27MOL   C14110073   0.537   0.974   4.966  0.0219 -0.8068  0.1538
   27MOL   C14210074   0.482   1.039   4.857 -0.2415  0.5413 -0.1233
   27MOL   C14310075   0.412   0.952   4.771 -0.8519  0.9017  0.4100
   27MOL   C14410076   0.386   0.814   4.805  0.3681 -0.1275 -0.2191
   27MOL   C14510077   0.439   0.758   4.923  0.5257 -0.4182 -0.9637
   27MOL   H14610078   0.843   0.760   5.506 -1.0939 -1.5450 -0.2620
   27MOL   H14710079   0.624   0.719   5.368 -0.8651 -1.3380 -4.0354
   27MOL   H14810080   0.761   0.873   5.133 -1.4310  1.6480 -1.7906
   27MOL   H14910081   0.631   0.953   5.212 -0.9456 -0.0369  0.2819
   27MOL   H15010082   0.588   1.040   5.035  0.2429 -0.0138 -0.7590
   27MOL   H15110083   0.499   1.144   4.841  1.1875  0.1034 -1.6593
   27MOL   H15210084   0.357   0.983   4.684 -0.1310  2.1405  0.3970
   27MOL   H15310085   0.316   0.756   4.746 -0.6647  0.3531  0.5188
   27MOL   C15410086   0.427   0.606   4.957  0.6690  0.2934  0.0790
   27MOL   C15510087   0.324   0.565   5.059  0.3907 -0.4487 -0.1110
   27MOL   O15610088   0.310   0.542   4.916 -0.0252 -0.1708  0.1711
   27MOL   C15710089   0.225   0.652   5.130  0.0699 -0.6597  0.0534
   27MOL   O15810090   0.116   0.580   5.182 -0.2435  0.4286 -0.3019
   27MOL   C15910091   0.000   0.569   5.109  0.6499  0.1723  0.3767
   27MOL   C16010092   8.164   0.580   4.967 -0.3165  0.0081 -0.1780
   27MOL   C16110093   8.039   0.575   4.904  0.2984  0.5068  0.4720
   27MOL   C16210094   7.920   0.562   4.978  0.4307 -0.4637  0.7356
   27MOL   C16310095   7.932   0.536   5.117 -0.2125 -0.8488 -0.0992
   27MOL   C16410096   8.052   0.541   5.182  1.1751  0.1209 -0.1120
   27MOL   H16510097   0.526   0.561   4.964  0.7158  0.3185 -0.4399
   27MOL   H16610098   0.329   0.466   5.104 -2.4975 -0.5131  0.1579
   27MOL   H16710099   0.189   0.728   5.060  2.6619 -0.7892 -1.4700
   27MOL   H16810100   0.285   0.708   5.201  1.2813  0.7603 -2.0357
   27MOL   H16910101   0.083   0.586   4.906  1.2865 -3.2387  1.7097
   27MOL   H17010102   8.034   0.575   4.796  0.7654  1.9020  0.4465
   27MOL   H17110103   7.829   0.559   4.922  0.0541  0.7125  1.2724
   27MOL   H17210104   7.839   0.536   5.172  0.4230 -0.4058  1.0115
   27MOL   C17310105   8.049   0.516   5.329  0.7419  0.1243  0.4487
   27MOL   C17410106   8.053   0.633   5.424 -0.7260  0.4718 -0.0908
   27MOL   O17510107   7.930   0.557   5.393  0.1780  0.7688 -0.1733
   27MOL   C17610108   8.057   0.779   5.373  0.4348 -0.6054 -0.0067
   27MOL   O17710109   7.961   0.859   5.449 -0.0920  0.1187  0.5182
   27MOL   C17810110   7.838   0.896   5.391  0.1057 -0.8418 -1.3006
   27MOL   C17910111   7.785   0.841   5.276  0.1532  0.1229  0.0281
   27MOL   C18010112   7.655   0.877   5.224  0.1347  0.0561  0.1016
   27MOL   C18110113   7.579   0.982   5.290 -0.7877 -0.4155  0.0123
   27MOL   C18210114   7.641   1.049   5.394 -0.4586 -0.1051  0.7463
   27MOL   C18310115   7.770   1.009   5.446  0.4543  0.3117  0.3188
   27MOL   H18410116   8.098   0.425   5.364 -0.4778  0.4644  3.1757
   27MOL   H18510117   8.102   0.617   5.521 -2.2805  1.2243  0.8403
   27MOL   H18610118   8.051   0.791   5.265 -1.8751 -1.2771  0.0288
   27MOL   H18710119   8.154   0.824   5.393  0.6974 -0.8238 -0.7715
   27MOL   H18810120   7.828   0.764   5.213  1.1166 -0.4621  1.3546
   27MOL   H18910121   7.614   0.841   5.130  0.3231  1.4504 -0.5257
   27MOL   H19010122   7.478   1.014   5.270 -0.5778  0.4476  0.2955
   27MOL   H19110123   7.599   1.140   5.434 -1.3055  0.5560 -1.5329
   27MOL   C19210124   7.836   1.088   5.552 -0.5597 -0.0596 -0.6228
   27MOL   C19310125   7.901   1.221   5.530 -0.2305  0.4749 -0.5263
   27MOL   O19410126   7.768   1.206   5.585 -0.5610 -0.2293 -0.8575
   27MOL   C19510127   7.904   1.296   5.397 -0.2607 -0.0655 -0.1137
   27MOL   O19610128   8.028   1.356   5.349 -0.1384 -0.0105  0.5164
   27MOL   C19710129   8.080   1.463   5.416  0.5366 -0.1139 -0.7243
   27MOL   C19810130   8.014   1.523   5.531 -0.1358  0.4995  0.2941
   27MOL   C19910131   8.063   1.638   5.592 -0.3682 -0.7078  0.2973
   27MOL   C20010132   8.170   1.706   5.524  0.0563  0.1998  0.4400
   27MOL   C20110133   0.068   1.650   5.415 -0.0082  0.1930  0.2346
   27MOL   C20210134   0.019   1.535   5.355 -0.9638  0.0616  0.7676
   27MOL   H20310135   7.873   1.027   5.634 -0.7673 -1.4823 -1.5736
   27MOL   H20410136   7.984   1.246   5.595  0.0563  0.6124 -0.9390
   27MOL   H20510137   7.820   1.364   5.394 -1.4677 -1.4172  2.0414
   27MOL   H20610138   7.878   1.215   5.328  0.5801  0.9360 -1.6554
   27MOL   H20710139   7.922   1.490   5.577 -1.0453  1.0348 -1.1151
   27MOL   H20810140   8.014   1.685   5.676 -1.7687 -1.8464  0.1522
   27MOL   H20910141   0.029   1.802   5.564 -1.8944  1.3486 -0.8067
   27MOL   H21010142   0.154   1.692   5.364  0.7217 -0.1628  1.1426
   27MOL   C21110143   0.093   1.477   5.238  0.6002 -0.2006  1.1046
   27MOL   C21210144   0.058   1.504   5.093 -0.6126 -0.6118  0.0291
   27MOL   O21310145   0.165   1.576   5.160 -0.0944  0.1546 -0.5309
   27MOL   C21410146   8.109   1.588   5.064 -0.9633  0.5332 -0.0419
   27MOL   O21510147   8.099   1.642   4.935 -0.4372 -0.0489 -0.6986
   27MOL   C21610148   0.018   1.727   4.881 -0.3410 -0.0362  0.3394
   27MOL   C21710149   0.101   1.803   4.967  0.2389 -0.1054  0.2181
   27MOL   C21810150   0.188   1.904   4.912 -0.2149  0.2223 -0.0212
   27MOL   C21910151   0.195   1.926   4.773 -0.6214  0.3582  0.3739
   27MOL   C22010152   0.104   1.853   4.691 -0.9092  0.1448 -0.2102
   27MOL   C22110153   0.023   1.755   4.746 -0.5066  0.7008  0.7580
   27MOL   H22210154   0.142   1.382   5.258 -0.7942 -0.8523  1.5320
   27MOL   H22310155   0.101   1.433   5.022  1.3476  1.7991 -1.2461
   27MOL   H22410156   8.084   1.666   5.137 -2.1281  1.4049 -1.3268
   27MOL   H22510157   8.033   1.510   5.064  1.3145 -1.8018 -3.4948
   27MOL   H22610158   0.102   1.795   5.075  3.1994  2.7483  0.4856
   27MOL   H22710159   0.248   1.953   4.987  1.2781  0.8328 -1.5932
   27MOL   H22810160   0.253   2.000   4.719  0.6508 -0.5919  0.4222
   27MOL   H22910161   0.088   1.882   4.588 -0.1754 -3.4525 -1.4362
   27MOL   C23010162   8.110   1.661   4.668  0.1275 -0.2325 -0.0760
   27MOL   C23110163   7.986   1.690   4.594  1.3850 -0.1491  0.5574
   27MOL   O23210164   8.112   1.695   4.529 -0.2138 -0.6170 -0.5857
   27MOL   C23310165   7.915   1.828   4.602  0.7222 -0.0025  0.3077
   27MOL   O23410166   7.875   1.866   4.734 -0.1474  0.2529  0.0692
   27MOL   C23510167   7.747   1.861   4.781 -0.1273 -0.0677 -0.0438
   27MOL   C23610168   7.634   1.862   4.695  0.0783  0.0737 -0.5279
   27MOL   C23710169   7.506   1.856   4.753  0.4059 -0.3596  0.4093
   27MOL   C23810170   7.490   1.860   4.893  0.5173 -0.1739 -0.1359
   27MOL   C23910171   7.602   1.863   4.978 -0.3237  0.7929  0.0792
   27MOL   C24010172   7.728   1.864   4.920  0.0399 -1.2819  0.0544
   27MOL   H24110173   8.131   1.555   4.684 -4.3652 -1.8005 -3.4378
   27MOL   H24210174   7.917   1.608   4.576  1.3728 -0.5954  2.5595
   27MOL   H24310175   7.838   1.827   4.524 -0.0009  2.7113  0.9406
   27MOL   H24410176   7.971   1.913   4.563 -1.0999  0.1647 -2.1244
   27MOL   H24510177   7.649   1.866   4.589 -0.1324  1.1796 -0.5240
   27MOL   H24610178   7.415   1.866   4.696  1.1056  1.5727 -0.3875
   27MOL   H24710179   7.393   1.852   4.941  0.8150 -2.4066  0.1320
   27MOL   H24810180   7.578   1.851   5.083 -1.2323  0.6385 -0.1368
   27MOL   C24910181   7.844   1.858   5.013  0.3247 -0.3544  0.0690
   27MOL   C25010182   7.936   1.976   5.032  0.6207  0.6051  0.1748
   27MOL   O25110183   7.827   1.940   5.130  0.4474 -0.0172 -0.0034
   27MOL   C25210184   7.920   2.108   4.955 -0.3194 -0.0042 -0.4978
   27MOL   O25310185   7.995   2.204   5.036 -0.4030  0.2108 -0.2401
   27MOL   C25410186   8.122   2.247   5.009 -0.3612  0.0826  0.3924
   27MOL   C25510187   0.026   2.203   4.902 -0.1215  0.1437  1.0584
   27MOL   C25610188   0.151   2.261   4.864  0.7782 -0.6325  0.5033
   27MOL   C25710189   0.201   2.365   4.941 -0.2512 -0.0847  0.0980
   27MOL   C25810190   0.131   2.412   5.054 -0.6223  0.4806 -0.0965
   27MOL   C25910191   0.010   2.347   5.086 -0.6022  0.7353  0.4692
   27MOL   H26010192   7.883   1.760   5.038 -0.1796 -0.0980  1.9416
   27MOL   H26110193   8.031   1.967   5.084  0.3035 -0.8455  0.5205
   27MOL   H26210194   7.817   2.144   4.960 -0.1198  0.2643  2.3231
   27MOL   H26310195   7.947   2.103   4.850 -1.9069 -1.4505 -0.8607
   27MOL   H26410196   8.161   2.124   4.837  0.9756  0.9362 -0.5144
   27MOL   H26510197   0.205   2.220   4.780  0.2473  0.9298 -0.6168
   27MOL   H26610198   0.290   2.415   4.906 -0.4463 -0.4883 -1.0151
   27MOL   H26710199   0.171   2.493   5.114  0.6243 -0.1790 -0.0048
   27MOL   C26810200   8.108   2.400   5.213  0.1416  0.1846 -0.2576
   27MOL   C26910201   8.075   2.326   5.346 -0.8298  0.0360  0.2057
   27MOL   O27010202   0.032   2.387   5.326  0.0788  0.4101 -0.0622
   27MOL   C27110203   8.071   2.179   5.361  0.4042  0.3932  0.4344
   27MOL   O27210204   8.078   2.117   5.493  0.2231 -0.4953  0.1927
   27MOL   C27310205   7.990   2.012   5.506 -0.3226 -0.6589  1.3746
   27MOL   C27410206   7.956   1.920   5.406  0.2234  0.5473  0.3426
   27MOL   C27510207   7.851   1.830   5.428 -0.2320 -0.0386 -0.0144
   27MOL   C27610208   7.785   1.815   5.553 -0.9376  0.3064 -0.1379
   27MOL   C27710209   7.836   1.897   5.660 -0.3120 -0.4843  0.5339
   27MOL   C27810210   7.931   2.004   5.632  0.3267  0.3227 -0.4361
   27MOL   H27910211   8.057   2.495   5.204 -2.9166 -1.5503 -1.8134
   27MOL   H28010212   7.997   2.383   5.396 -0.2820  0.6100  0.4100
   27MOL   H28110213   8.145   2.138   5.292 -1.6197 -0.0636 -1.5206
   27MOL   H28210214   7.971   2.160   5.323 -0.6357 -2.0564  4.1195
   27MOL   H28310215   8.002   1.930   5.309  1.9477  2.3612  1.3018
   27MOL   H28410216   7.821   1.761   5.351  1.8402 -1.2450  0.2142
   27MOL   H28510217   7.712   1.739   5.577 -1.6572  0.7597 -0.8429
   27MOL   H28610218   7.783   1.879   5.752  0.2113 -0.7113  0.7951
   27MOL   C28710219   7.969   2.096   5.743  0.0695  1.0680  0.0316
   27MOL   C28810220   7.885   2.211   5.779  0.0008  0.4091 -0.0506
   27MOL   O28910221   7.883   2.085   5.856 -0.5462 -0.2381 -0.2605
   27MOL   C29010222   7.750   2.242   5.720 -0.3817 -0.2090  0.7533
   27MOL   O29110223   7.704   2.373   5.743 -0.0838  0.0234 -0.1581
   27MOL   C29210224   7.632   2.394   5.854  0.3643  0.5984 -0.1864
   27MOL   C29310225   7.638   2.315   5.972  0.6741  0.6065  0.2414
   27MOL   C29410226   7.557   2.336   6.085  0.5925 -0.1197  0.0435
   27MOL   C29510227   7.465   2.444   6.082  0.1103  0.6264  0.4197
   27MOL   C29610228   7.464   2.528   5.965  0.2116 -0.2697 -0.2887
   27MOL   C29710229   7.549   2.503   5.853  0.3360  0.0682 -0.2425
   27MOL   H29810230   8.074   2.085   5.770 -0.1618 -0.0851  0.4788
   27MOL   H29910231   7.932   2.290   5.839 -0.3358  1.4102 -1.0917
   27MOL   H30010232   7.684   2.164   5.757 -0.7277 -0.5693 -0.5830
   27MOL   H30110233   7.753   2.224   5.612  0.1613 -1.1602  0.9224
   27MOL   H30210234   7.716   2.241   5.970  0.0699 -0.0101 -1.2153
   27MOL   H30310235   7.563   2.269   6.169 -0.5205  0.3555  0.5198
   27MOL   H30410236   7.400   2.455   6.167 -0.0115 -0.2211  0.4443
   27MOL   H30510237   7.392   2.609   5.960  1.0022  0.4097 -0.9634
   27MOL   C30610238   7.540   2.605   5.740 -0.5771  0.7074 -0.3996
   27MOL   C30710239   7.457   2.598   5.618  0.4587 -0.7230 -0.4649
   27MOL   O30810240   7.419   2.681   5.740 -0.2216 -0.9497 -0.1999
   27MOL   C30910241   7.355   2.489   5.592  0.1474  0.1826 -0.1512
   27MOL   O31010242   7.393   2.360   5.644  0.5076  0.0794  0.1968
   27MOL   C31110243   7.458   2.280   5.552  0.1361 -0.5410  0.5816
   27MOL   C31210244   7.536   2.327   5.439  0.6505 -0.5186 -0.6402
   27MOL   C31310245   7.596   2.236   5.343  0.3023  0.2786 -0.7288
   27MOL   C31410246   7.600   2.101   5.376  0.0583 -0.3215 -0.3605
   27MOL   C31510247   7.538   2.053   5.494 -0.0020  0.4481 -0.3084
   27MOL   C31610248   7.459   2.136   5.579 -0.2128  0.4350 -0.1710
   27MOL   H31710249   7.631   2.665   5.745 -0.4874  0.5139  0.5077
   27MOL   H31810250   7.474   2.663   5.533 -4.2314 -0.7973 -1.6083
   27MOL   H31910251   7.314   2.493   5.491  1.9177 -0.6353 -0.9169
   27MOL   H32010252   7.269   2.529   5.647  0.8128 -0.3825  1.3463
   27MOL   H32110253   7.551   2.432   5.417  0.9685 -0.4547 -0.1074
   27MOL   H32210254   7.649   2.282   5.261 -1.2523  4.1948  0.3630
   27MOL   H32310255   7.662   2.033   5.320  0.6063  0.0620 -0.2346
   27MOL   H32410256   7.545   1.947   5.514  1.1999  0.8119  1.2632
   27MOL   C32510257   7.384   2.078   5.695 -0.7904 -0.4355  0.5697
   27MOL   C32610258   7.233   2.066   5.689  0.0445 -0.0373  0.6976
   27MOL   O32710259   7.320   1.955   5.657 -0.3462 -0.3961  0.0694
   27MOL   C32810260   7.144   2.085   5.573  0.2267  0.5440  0.3190
   27MOL   O32910261   7.013   2.102   5.609  0.1473 -0.0904 -0.0209
   27MOL   C33010262   6.946   1.994   5.665  0.3999 -0.0110  0.7955
   27MOL   C33110263   6.987   1.862   5.637 -0.6496 -0.0269 -0.2798
   27MOL   C33210264   6.914   1.754   5.689 -0.2042  0.1079  0.1459
   27MOL   C33310265   6.800   1.777   5.765 -0.5480  0.4493  0.1048
   27MOL   C33410266   6.755   1.900   5.794  0.4429 -0.5673  0.5362
   27MOL   C33510267   6.830   2.014   5.745 -0.2668  0.0005 -0.2133
   27MOL   H33610268   7.440   2.068   5.788 -1.1212  0.5662  0.8793
   27MOL   H33710269   7.190   2.078   5.788 -0.7307 -1.2077  0.5136
   27MOL   H33810270   7.165   2.013   5.494  1.1073 -1.3452  2.2102
   27MOL   H33910271   7.174   2.184   5.539 -2.2936  1.8001  1.5427
   27MOL   H34010272   7.076   1.837   5.582 -0.8238  1.0242 -1.0411
   27MOL   H34110273   6.957   1.658   5.664  0.6478  0.8841 -1.4836
   27MOL   H34210274   6.734   1.697   5.798  0.9841 -1.1860 -0.7348
   27MOL   H34310275   6.667   1.898   5.857  0.0243  1.8256  0.0776
   27MOL   C34410276   6.807   2.152   5.802 -0.4883 -0.4006 -0.3752
   27MOL   C34510277   6.721   2.254   5.722  0.2064 -0.0841 -0.2261
   27MOL   O34610278   6.666   2.183   5.829 -0.2175 -0.2569  0.1997
   27MOL   C34710279   6.667   2.212   5.582  0.7460 -0.0013  0.1056
   27MOL   O34810280   6.589   2.319   5.531 -0.1822  0.4231 -0.1145
   27MOL   C34910281   6.519   2.296   5.410 -0.1630  0.1159  0.2508
   27MOL   C35010282   6.503   2.168   5.350 -0.2329 -0.4952 -0.1542
   27MOL   C35110283   6.426   2.152   5.234 -0.5127 -0.2055  0.1755
   27MOL   C35210284   6.358   2.255   5.181  0.8142 -0.8548 -0.3806
   27MOL   C35310285   6.355   2.383   5.244  0.1605  0.1640  0.0943
   27MOL   C35410286   6.439   2.406   5.353  0.1321  0.5104 -0.1663
   27MOL   H35510287   6.872   2.153   5.889 -1.4664 -0.8907  0.3736
   27MOL   H35610288   6.735   2.361   5.738 -2.3102  0.2987 -0.3185
   27MOL   H35710289   6.611   2.120   5.601  0.8721  0.2210  1.6063
   27MOL   H35810290   6.752   2.187   5.518  0.4264  0.9386 -0.7106
   27MOL   H35910291   6.570   2.086   5.369  1.8712  1.0451 -0.6156
   27MOL   H36010292   6.439   2.056   5.186  0.8423 -1.3234  2.6512
   27MOL   H36110293   6.296   2.234   5.095 -0.9209  1.8828  0.1183
   27MOL   H36210294   6.294   2.467   5.213 -1.2583 -0.5794  0.8231
   27MOL   C36310295   6.444   2.545   5.420  0.3317 -0.3293 -0.2447
   27MOL   C36410296   6.562   2.640   5.413 -0.0746  0.5554 -0.5457
   27MOL   O36510297   6.443   2.653   5.330  0.2127 -0.2062 -0.0591
   27MOL   C36610298   6.687   2.624   5.330 -0.1035  0.4106  0.2433
   27MOL   O36710299   6.783   2.521   5.372 -0.0308 -0.4940 -0.2127
   27MOL   C36810300   6.851   2.529   5.490  0.0925 -0.5509  0.9174
   27MOL   C36910301   6.841   2.642   5.575 -0.2644  0.5981 -0.4652
   27MOL   C37010302   6.908   2.635   5.701  0.2156  0.7516  0.1060
   27MOL   C37110303   6.984   2.523   5.742  0.8654 -0.0410 -0.3632
   27MOL   C37210304   6.997   2.418   5.652 -0.6772 -0.5513 -0.2546
   27MOL   C37310305   6.936   2.419   5.525 -0.8966 -0.2559  0.1465
   27MOL   H37410306   6.366   2.560   5.494  1.4886 -0.4488  1.0245
   27MOL   H37510307   6.556   2.720   5.487  1.6934  0.1148  0.0820
   27MOL   H37610308   6.736   2.717   5.302 -0.1030 -0.4727 -2.8306
   27MOL   H37710309   6.644   2.586   5.238  1.9381 -0.5099 -0.3573
   27MOL   H37810310   6.784   2.731   5.551  1.3988  1.5370 -1.0769
   27MOL   H37910311   6.893   2.728   5.754 -3.5896  0.0755  0.3635
   27MOL   H38010312   7.045   2.517   5.831 -0.5674 -1.2891  0.5519
   27MOL   H38110313   7.047   2.331   5.692 -1.2672  0.0087  1.7632
   27MOL   H38210314   6.947   2.342   5.451 -0.9497  0.6178 -0.7942
   28MOL     C110315   0.222   1.284   3.562 -0.3742  0.0805  0.0508
   28MOL     C210316   0.351   1.226   3.543  0.0618 -0.2695 -0.0835
   28MOL     O310317   0.308   1.337   3.458  0.0196 -0.5037  0.7283
   28MOL     C410318   0.386   1.100   3.465 -0.3603 -0.0698  0.4420
   28MOL     O510319   0.517   1.063   3.488  0.4450  0.0566  0.1906
   28MOL     C610320   0.617   1.135   3.437  0.3633 -0.6749 -0.6124
   28MOL     C710321   0.611   1.202   3.314 -0.1262  0.5587  0.3856
   28MOL     C810322   0.723   1.274   3.272 -0.0627 -1.0994 -0.5892
   28MOL     C910323   0.838   1.287   3.352  0.8121 -0.0049 -0.0879
   28MOL    C1010324   0.847   1.218   3.477  0.7179 -0.2691  0.2882
   28MOL    C1110325   0.732   1.142   3.517 -0.4933 -0.0323 -0.4533
   28MOL    H1210326   0.204   1.342   3.652  0.1365 -0.1734  0.3232
   28MOL    H1310327   0.423   1.248   3.621  0.1891  1.3828 -0.6469
   28MOL    H1410328   0.364   1.113   3.359  0.6155 -2.7238 -0.1411
   28MOL    H1510329   0.329   1.016   3.505 -0.8006  0.3353  0.6672
   28MOL    H1610330   0.530   1.193   3.243 -1.4345 -0.7641  1.9838
   28MOL    H1710331   0.717   1.318   3.174 -0.0031 -0.3024 -0.2378
   28MOL    H1810332   0.927   1.339   3.320  0.5053  1.8462  1.9750
   28MOL    H1910333   0.938   1.213   3.535  0.0917  0.3486  1.3432
   28MOL    H2010334   0.127   1.247   3.526 -1.0664  1.6164  0.2658
   28MOL    C2110335   0.727   1.070   3.648 -0.0267 -0.1233  0.1016
   28MOL    C2210336   0.772   0.928   3.674 -0.2468  0.4323  0.5707
   28MOL    O2310337   0.862   1.044   3.696 -0.2506  0.0421 -0.2008
   28MOL    C2410338   0.824   0.838   3.563 -0.5710  0.0756  0.1122
   28MOL    O2510339   0.723   0.738   3.541  0.6634 -0.4846 -0.1762
   28MOL    C2610340   0.752   0.646   3.444  0.6735 -0.2113  0.6208
   28MOL    C2710341   0.881   0.592   3.407  0.2495  0.0503 -0.3227
   28MOL    C2810342   0.894   0.484   3.323  0.4914 -0.2450  0.2995
   28MOL    C2910343   0.781   0.426   3.265 -0.2716 -0.2673 -0.6992
   28MOL    C3010344   0.653   0.466   3.308  0.0289  0.5362  0.1857
   28MOL    C3110345   0.639   0.573   3.391  0.2798 -0.4199 -0.3474
   28MOL    H3210346   0.653   1.121   3.708 -0.6384  0.5059 -1.1672
   28MOL    H3310347   0.734   0.882   3.765 -2.3973 -0.2046 -0.6082
   28MOL    H3410348   0.919   0.788   3.584 -1.7484 -2.2997 -0.0549
   28MOL    H3510349   0.832   0.900   3.474 -2.4981  0.2847  0.0697
   28MOL    H3610350   0.970   0.644   3.441  0.4980 -0.0974 -0.7452
   28MOL    H3710351   0.995   0.455   3.297  1.1998  1.5862  0.9056
   28MOL    H3810352   0.796   0.345   3.195 -1.0398  0.5907 -1.8715
   28MOL    H3910353   0.560   0.419   3.276 -0.1583  0.0616  1.4066
   28MOL    C4010354   0.494   0.624   3.431  0.6805 -0.0746  0.2188
   28MOL    C4110355   0.406   0.722   3.341  0.2269 -0.2381  1.1078
   28MOL    O4210356   0.403   0.575   3.338 -0.1104 -0.4144  0.6312
   28MOL    C4310357   0.443   0.785   3.208  0.0083  0.1826 -0.3098
   28MOL    O4410358   0.355   0.891   3.174  0.6648  0.3693 -0.0620
   28MOL    C4510359   0.376   0.960   3.058  0.2329  0.3072 -0.1630
   28MOL    C4610360   0.492   0.935   2.979 -0.1022 -0.5559 -0.3991
   28MOL    C4710361   0.510   1.007   2.857 -0.4448  0.1202 -0.5976
   28MOL    C4810362   0.420   1.107   2.817 -0.3955  0.0056 -0.5702
   28MOL    C4910363   0.315   1.136   2.904 -0.8265 -0.0279  0.2271
   28MOL    C5010364   0.281   1.059   3.020 -1.1168  0.5882 -0.5150
   28MOL    H5110365   0.465   0.619   3.536  1.0590  0.6952  0.3692
   28MOL    H5210366   0.310   0.761   3.373  0.2013  0.3991  0.2683
   28MOL    H5310367   0.447   0.699   3.142  0.5573 -0.9623  1.1845
   28MOL    H5410368   0.542   0.831   3.218  0.6607 -0.9936 -1.2621
   28MOL    H5510369   0.572   0.869   3.008  0.2152  0.1745  0.4257
   28MOL    H5610370   0.594   0.984   2.793 -0.3883 -1.4569 -0.0023
   28MOL    H5710371   0.435   1.158   2.723 -0.0026 -1.5327 -1.3468
   28MOL    H5810372   0.242   1.212   2.877  0.8407  0.9871 -1.5091
   28MOL    C5910373   0.168   1.081   3.111  0.2551 -0.4898 -0.9648
   28MOL    C6010374   0.122   1.213   3.158  0.2768 -1.1283  0.0755
   28MOL    O6110375   0.065   1.156   3.038  0.1275 -0.2522  0.2204
   28MOL    C6210376   0.204   1.343   3.149 -0.2685 -0.2411  0.1656
   28MOL    O6310377   0.129   1.448   3.208 -0.1800 -0.2190  0.6650
   28MOL    C6410378   0.020   1.505   3.144  0.4353 -0.0296 -0.0466
   28MOL    C6510379   8.145   1.463   3.017 -0.9871  0.4764  0.6537
   28MOL    C6610380   8.038   1.526   2.953  0.1520 -0.3598 -0.3339
   28MOL    C6710381   7.968   1.634   3.020  0.2580 -0.5168  0.2897
   28MOL    C6810382   8.019   1.685   3.141  0.0307  0.3998 -0.1986
   28MOL    C6910383   8.128   1.618   3.206  0.0723  1.1080  1.4449
   28MOL    H7010384   0.128   0.991   3.158 -0.1025 -0.6543 -1.5620
   28MOL    H7110385   0.062   1.203   3.248  0.2779  1.3197  0.3796
   28MOL    H7210386   0.240   1.363   3.048 -0.2761 -1.2419 -0.0411
   28MOL    H7310387   0.289   1.319   3.213 -0.4324 -2.5754 -0.4298
   28MOL    H7410388   0.036   1.387   2.970  0.0145  0.8696  1.2895
   28MOL    H7510389   7.994   1.503   2.856 -0.3396 -0.0895 -0.1767
   28MOL    H7610390   7.881   1.675   2.971  1.1055  1.8485  0.7423
   28MOL    H7710391   7.967   1.774   3.173 -2.5401 -1.1797  0.1540
   28MOL    C7810392   0.008   1.667   3.337 -0.0918 -0.3616  0.7439
   28MOL    C7910393   0.132   1.741   3.364 -0.0370 -0.4227 -0.1915
   28MOL    O8010394   0.011   1.813   3.346  0.5652  0.5828 -0.4708
   28MOL    C8110395   0.233   1.758   3.256  0.2879  0.5194 -0.1947
   28MOL    O8210396   0.353   1.825   3.294 -0.0904  0.3202  0.1404
   28MOL    C8310397   0.460   1.755   3.344  0.4491  0.6735 -0.1339
   28MOL    C8410398   0.456   1.616   3.382  1.0356  0.2040  0.8326
   28MOL    C8510399   0.568   1.544   3.429 -0.5903 -0.2742  0.7282
   28MOL    C8610400   0.693   1.614   3.424 -0.2079  0.5075 -0.1143
   28MOL    C8710401   0.700   1.751   3.386 -0.4830 -0.5451 -0.3974
   28MOL    C8810402   0.579   1.815   3.346  0.4432  0.2675 -0.4633
   28MOL    H8910403   8.135   1.608   3.417  0.1699  0.1625  1.2713
   28MOL    H9010404   0.169   1.727   3.465  1.4372  1.5962 -0.4254
   28MOL    H9110405   0.196   1.827   3.180 -0.2815 -1.5938 -1.8997
   28MOL    H9210406   0.262   1.666   3.205  1.9035 -0.4996  2.4830
   28MOL    H9310407   0.362   1.561   3.386  2.4339 -2.4307 -1.0831
   28MOL    H9410408   0.569   1.438   3.451 -1.3335 -0.0619  1.8286
   28MOL    H9510409   0.785   1.564   3.453 -0.0530  1.7769  1.6400
   28MOL    H9610410   0.794   1.804   3.397 -1.0566  1.1907 -3.3458
   28MOL    C9710411   0.591   1.958   3.318 -0.1566  0.0310  0.4655
   28MOL    C9810412   0.540   2.063   3.415 -0.2565  0.6335 -0.2375
   28MOL    O9910413   0.674   2.018   3.421  0.7324  0.5478  0.2868
   28MOL   C10010414   0.434   2.031   3.522  0.3620  0.2864  0.5638
   28MOL   O10110415   0.438   2.139   3.618 -0.4624  0.4706  0.1540
   28MOL   C10210416   0.542   2.149   3.704 -1.1692  0.2723  1.0538
   28MOL   C10310417   0.614   2.039   3.751 -0.1455 -0.2610  0.1356
   28MOL   C10410418   0.715   2.064   3.843 -0.2904 -0.1594  0.2415
   28MOL   C10510419   0.750   2.188   3.883 -0.2044  0.1485  0.5545
   28MOL   C10610420   0.686   2.297   3.824 -0.6553 -0.2194 -0.2465
   28MOL   C10710421   0.577   2.276   3.740  0.0857 -0.7507 -0.0605
   28MOL   H10810422   0.621   1.985   3.217 -0.4806  1.5478  0.7627
   28MOL   H10910423   0.519   2.159   3.367 -1.4934  0.5191  0.0409
   28MOL   H11010424   0.453   1.934   3.570 -0.6921 -0.9829 -1.4943
   28MOL   H11110425   0.329   2.030   3.491  1.2402 -0.3758 -2.6341
   28MOL   H11210426   0.602   1.935   3.725  0.1451 -0.2080 -0.2079
   28MOL   H11310427   0.765   1.989   3.903  1.9777  1.0501 -0.0905
   28MOL   H11410428   0.830   2.199   3.956 -0.0197  1.0216  0.2192
   28MOL   H11510429   0.715   2.398   3.849  1.0678 -0.3314 -1.6580
   28MOL   C11610430   0.492   2.390   3.700 -0.4888  0.1390  0.0244
   28MOL   C11710431   0.382   2.444   3.786  0.0479  0.1920  0.2159
   28MOL   O11810432   0.509   2.502   3.788  0.1632  0.1087 -0.2195
   28MOL   C11910433   0.343   2.361   3.907 -0.1287 -0.0400  0.2797
   28MOL   O12010434   0.233   2.432   3.953 -0.0090 -0.3846  0.4434
   28MOL   C12110435   0.245   2.529   4.044 -0.2112 -0.1845 -0.7441
   28MOL   C12210436   0.363   2.557   4.123 -0.8439 -0.2353  0.1029
   28MOL   C12310437   0.362   2.648   4.230  0.3353  0.1444 -0.1698
   28MOL   C12410438   0.242   2.722   4.254  0.8944 -0.1125  0.1010
   28MOL   C12510439   0.124   2.689   4.181  0.0613 -0.1610  0.5099
   28MOL   C12610440   0.124   2.592   4.079 -0.7134 -0.0105 -0.3565
   28MOL   H12710441   0.499   2.408   3.593 -0.7434 -2.3814 -0.4647
   28MOL   H12810442   0.302   2.508   3.747 -1.5890 -0.7666  1.9323
   28MOL   H12910443   0.424   2.339   3.976  0.2519 -2.1844 -0.8000
   28MOL   H13010444   0.302   2.264   3.880 -0.6464  0.0127  0.8672
   28MOL   H13110445   0.450   2.495   4.112 -0.6550  0.2427 -1.2394
   28MOL   H13210446   0.448   2.663   4.292 -0.2059  1.0875  0.3625
   28MOL   H13310447   0.236   2.802   4.325  1.4068 -0.1041  0.1375
   28MOL   H13410448   0.024   2.729   4.192  1.0298  2.6722 -0.4744
   28MOL   C13510449   0.004   2.558   3.992  0.1426 -0.6157 -1.0213
   28MOL   C13610450   8.058   2.479   4.048  0.4481  0.2852 -0.7234
   28MOL   O13710451   8.049   2.621   4.032 -0.1730 -0.1002 -1.0851
   28MOL   C13810452   8.051   2.421   4.185  0.1972 -0.7313  0.7730
   28MOL   O13910453   7.968   2.303   4.186 -0.5320 -0.8203 -0.5230
   28MOL   C14010454   7.892   2.273   4.301 -0.1238 -1.0588  0.3635
   28MOL   C14110455   7.923   2.322   4.433 -0.1675 -0.3798  0.3626
   28MOL   C14210456   7.842   2.283   4.538 -0.2639  0.0045 -0.4547
   28MOL   C14310457   7.742   2.186   4.518 -0.3925 -0.5466 -0.4167
   28MOL   C14410458   7.721   2.127   4.393  0.2932 -0.7079  0.4821
   28MOL   C14510459   7.784   2.179   4.278 -0.8845 -0.0678  0.2244
   28MOL   H14610460   0.026   2.557   3.886 -1.4283 -0.0708 -1.3694
   28MOL   H14710461   7.980   2.431   3.989 -0.6277 -0.5267  1.2857
   28MOL   H14810462   8.030   2.500   4.257  2.3024  0.4875  0.1119
   28MOL   H14910463   8.147   2.389   4.224  0.3025  2.1165  3.0193
   28MOL   H15010464   8.007   2.389   4.448  0.6261 -0.4763 -3.1249
   28MOL   H15110465   7.853   2.331   4.634  0.5313 -0.9988 -0.0478
   28MOL   H15210466   7.675   2.163   4.600  1.0544 -1.7252  0.4594
   28MOL   H15310467   7.648   2.048   4.382 -0.9814  0.4110  0.9158
   28MOL   C15410468   7.751   2.132   4.142  0.0038  0.4111 -0.4652
   28MOL   C15510469   7.814   2.014   4.079  0.9400  0.3880  0.3396
   28MOL   O15610470   7.688   1.998   4.138 -0.0311 -0.2493 -0.1011
   28MOL   C15710471   7.932   1.941   4.141  0.1279  0.3897 -0.9071
   28MOL   O15810472   8.003   1.853   4.046 -0.5688 -0.9112 -0.3010
   28MOL   C15910473   8.080   1.921   3.951  1.2810  0.4457 -0.5032
   28MOL   C16010474   8.100   2.061   3.938 -0.3395 -0.9663 -0.0880
   28MOL   C16110475   0.009   2.113   3.826 -0.2244  0.5753 -0.0227
   28MOL   C16210476   0.054   2.020   3.727 -0.3001 -0.2547  0.1211
   28MOL   C16310477   0.035   1.886   3.744  0.1425  0.8500  0.1912
   28MOL   C16410478   8.130   1.835   3.854  1.1799 -0.3738  0.3156
   28MOL   H16510479   7.698   2.206   4.082 -3.6190 -1.5539  0.1376
   28MOL   H16610480   7.812   2.010   3.971 -1.3994  1.5025  0.3139
   28MOL   H16710481   7.886   1.884   4.222  0.2186  0.3838 -0.8607
   28MOL   H16810482   7.995   2.000   4.207  1.4067 -0.3463 -1.4661
   28MOL   H16910483   8.080   2.124   4.024 -0.2130  0.2248 -0.9179
   28MOL   H17010484   0.034   2.217   3.817  0.4493  0.4505  0.3540
   28MOL   H17110485   0.110   2.060   3.644 -0.7988  0.7342  0.2434
   28MOL   H17210486   0.080   1.823   3.669  0.1450  1.9067 -0.7020
   28MOL   C17310487   8.107   1.684   3.860 -0.0655 -0.0481 -0.0925
   28MOL   C17410488   7.998   1.609   3.778 -0.3032  0.2731  0.2734
   28MOL   O17510489   8.138   1.616   3.737  0.5053 -0.6639 -0.3960
   28MOL   C17610490   7.900   1.675   3.679 -0.0654 -0.0870 -0.3044
   28MOL   O17710491   7.866   1.594   3.564  0.2356  0.1837  0.1715
   28MOL   C17810492   7.784   1.651   3.467  0.8329  0.2763  0.5994
   28MOL   C17910493   7.722   1.780   3.481 -0.2304  0.5812 -0.0073
   28MOL   C18010494   7.657   1.832   3.365  0.1133 -0.0937  0.5730
   28MOL   C18110495   7.657   1.758   3.242  0.2540  0.3011 -0.1221
   28MOL   C18210496   7.695   1.622   3.250 -0.9564  0.0652 -0.6394
   28MOL   C18310497   7.756   1.563   3.362  0.5719 -0.6456 -0.8082
   28MOL   H18410498   8.137   1.635   3.953  0.8933 -3.1427 -1.9661
   28MOL   H18510499   7.968   1.510   3.812 -1.5106  0.2010 -0.9502
   28MOL   H18610500   7.936   1.778   3.665 -0.3440  0.3018  1.6502
   28MOL   H18710501   7.818   1.690   3.749  1.9245 -1.0240  2.3114
   28MOL   H18810502   7.737   1.838   3.570  2.4458  0.9692 -0.6690
   28MOL   H18910503   7.616   1.932   3.359  0.1614 -0.0847  0.3753
   28MOL   H19010504   7.608   1.796   3.153 -0.2003 -1.5443 -0.6988
   28MOL   H19110505   7.686   1.561   3.161  1.0081 -0.0965 -0.7445
   28MOL   C19210506   7.824   1.428   3.351  0.1503 -0.1133  0.1541
   28MOL   C19310507   7.772   1.303   3.403 -0.8463  0.1357 -0.2152
   28MOL   O19410508   7.744   1.349   3.268 -0.0660 -0.2561 -0.0240
   28MOL   C19510509   7.649   1.311   3.500  0.0865 -0.4401 -0.0120
   28MOL   O19610510   7.570   1.191   3.484 -0.1698 -0.3392  0.8158
   28MOL   C19710511   7.473   1.172   3.387 -0.2558 -0.5591 -0.0876
   28MOL   C19810512   7.437   1.272   3.297 -0.2412  0.2879  0.3045
   28MOL   C19910513   7.347   1.251   3.192  0.8807 -0.7906  0.0002
   28MOL   C20010514   7.294   1.121   3.177  0.3811 -0.3928 -0.2890
   28MOL   C20110515   7.329   1.019   3.267 -0.2330 -0.2084 -0.2927
   28MOL   C20210516   7.421   1.043   3.369 -0.4319  0.1178 -0.5115
   28MOL   H20310517   7.927   1.429   3.317  0.0996  1.3767  0.0157
   28MOL   H20410518   7.836   1.215   3.409 -0.3780  0.4990  0.1436
   28MOL   H20510519   7.595   1.403   3.481  0.2753 -0.5211 -0.9516
   28MOL   H20610520   7.687   1.306   3.602  1.9050  1.7502 -0.5404
   28MOL   H20710521   7.478   1.370   3.310 -0.7932  0.2922  2.1002
   28MOL   H20810522   7.329   1.330   3.121 -0.0686  0.0027  1.1092
   28MOL   H20910523   7.229   1.095   3.095 -2.9010 -0.3451  2.1925
   28MOL   H21010524   7.279   0.924   3.255 -1.9548  0.6951 -0.5750
   28MOL   C21110525   7.462   0.928   3.460  0.1888 -0.6110  0.3145
   28MOL   C21210526   7.371   0.865   3.565  0.3353 -0.0669 -0.2824
   28MOL   O21310527   7.388   0.804   3.437  0.0518  0.0992 -0.1765
   28MOL   C21410528   7.232   0.913   3.590  0.3702  0.5968 -0.1421
   28MOL   O21510529   7.213   0.959   3.723 -0.0662  0.0623  0.7320
   28MOL   C21610530   7.089   0.997   3.762  0.4072 -0.3413 -0.0662
   28MOL   C21710531   6.973   0.967   3.692  0.2805  0.1103  0.4873
   28MOL   C21810532   6.846   0.994   3.749 -0.3318  0.5408 -0.1811
   28MOL   C21910533   6.848   1.066   3.867  0.1344 -0.4270 -0.1062
   28MOL   C22010534   6.964   1.118   3.924  0.3993 -0.3099 -0.2591
   28MOL   C22110535   7.085   1.077   3.872  0.6497 -0.1503  0.0041
   28MOL   H22210536   7.567   0.917   3.483  0.0583 -0.6131  0.9087
   28MOL   H22310537   7.413   0.805   3.645 -1.1960 -3.2693 -1.8036
   28MOL   H22410538   7.167   0.831   3.560  0.3700 -0.1544  1.7953
   28MOL   H22510539   7.217   0.990   3.514 -2.4085  0.8920  0.6452
   28MOL   H22610540   6.975   0.894   3.613  0.2802  0.0685  0.5261
   28MOL   H22710541   6.757   0.942   3.718  0.6269 -1.7753  0.8140
   28MOL   H22810542   6.756   1.067   3.925  1.3953 -0.8428  1.9620
   28MOL   H22910543   6.965   1.181   4.013 -1.3977  0.4245 -0.7406
   28MOL   C23010544   7.216   1.122   3.929 -0.7643  0.2381 -0.2153
   28MOL   C23110545   7.282   1.247   3.868  0.0041  0.1727 -0.0851
   28MOL   O23210546   7.210   1.248   3.991 -0.0483  0.3309 -0.2811
   28MOL   C23310547   7.224   1.322   3.749 -0.0939 -0.0284 -0.1232
   28MOL   O23410548   7.274   1.448   3.734  0.2738  0.2026 -0.5430
   28MOL   C23510549   7.216   1.549   3.809  0.3672  0.0957  0.2031
   28MOL   C23610550   7.112   1.535   3.910 -0.5952  0.0388 -0.1914
   28MOL   C23710551   7.075   1.646   3.981  0.3262 -0.3240 -0.5662
   28MOL   C23810552   7.121   1.777   3.957  0.3281 -0.2239  0.1751
   28MOL   C23910553   7.208   1.792   3.844 -0.4793 -0.3002 -0.0622
   28MOL   C24010554   7.257   1.680   3.776  0.2792  0.4536  0.6272
   28MOL   H24110555   7.281   1.047   3.974  1.2184  0.9777 -1.7996
   28MOL   H24210556   7.390   1.255   3.875  0.2309 -0.9238 -1.9362
   28MOL   H24310557   7.116   1.314   3.759 -0.0478  1.0504  1.4086
   28MOL   H24410558   7.259   1.264   3.663  1.2731  1.6606 -0.7508
   28MOL   H24510559   7.078   1.437   3.941  2.4044 -0.5139  1.5586
   28MOL   H24610560   7.004   1.624   4.060 -1.2302  3.3491 -0.8285
   28MOL   H24710561   7.079   1.852   4.022  1.1222 -1.2741  1.9486
   28MOL   H24810562   7.233   1.895   3.823 -0.9557 -0.2740 -0.4975
   28MOL   C24910563   7.355   1.694   3.672  0.5418  0.0698  0.4106
   28MOL   C25010564   7.321   1.701   3.521 -0.5845 -0.3119 -0.0416
   28MOL   O25110565   7.344   1.816   3.605 -0.1131  0.3828  0.1803
   28MOL   C25210566   7.184   1.698   3.460  0.2026  0.0292  0.1140
   28MOL   O25310567   7.092   1.642   3.544 -0.2076 -0.1536 -0.2639
   28MOL   C25410568   7.046   1.519   3.521  0.5715 -0.7322 -0.4667
   28MOL   C25510569   7.120   1.419   3.447 -0.3379 -0.1630  0.5923
   28MOL   C25610570   7.073   1.287   3.430  0.7234  0.0199  0.2977
   28MOL   C25710571   6.943   1.250   3.470  0.5808  0.2624 -0.6899
   28MOL   C25810572   6.865   1.348   3.535 -0.1675  0.4569  0.2540
   28MOL   C25910573   6.919   1.478   3.566 -0.3381  0.2843 -0.5618
   28MOL   H26010574   7.457   1.672   3.702  0.4222  0.4416  1.0973
   28MOL   H26110575   7.399   1.664   3.455 -1.0233 -0.6649 -0.3609
   28MOL   H26210576   7.178   1.649   3.362  0.7478 -0.4529  0.3172
   28MOL   H26310577   7.171   1.806   3.452  2.6766  0.3721  0.3192
   28MOL   H26410578   7.222   1.430   3.414 -1.2074  1.4544 -1.6349
   28MOL   H26510579   7.121   1.215   3.365 -0.5409  0.5509 -1.2408
   28MOL   H26610580   6.903   1.151   3.457  1.2577 -0.0311 -0.5510
   28MOL   H26710581   6.770   1.323   3.580  0.9798 -1.5635  1.6317
   28MOL   C26810582   6.830   1.570   3.636  0.6042 -1.4318 -0.0961
   28MOL   C26910583   6.765   1.693   3.577 -0.2177  0.5219  0.6536
   28MOL   O27010584   6.703   1.564   3.574  0.2796 -0.1160 -0.1535
   28MOL   C27110585   6.777   1.748   3.429  0.2995  0.0440 -0.4906
   28MOL   O27210586   6.674   1.847   3.413  0.2557 -0.3156  0.3758
   28MOL   C27310587   6.674   1.937   3.311 -0.4700  0.1098 -0.2808
   28MOL   C27410588   6.762   1.923   3.203 -0.1856  0.3975 -0.4648
   28MOL   C27510589   6.747   1.999   3.092  0.4355 -0.0007  0.5655
   28MOL   C27610590   6.651   2.101   3.083  0.3365 -0.3392  0.0717
   28MOL   C27710591   6.566   2.121   3.199  0.4679  0.7155  0.1016
   28MOL   C27810592   6.574   2.038   3.309  0.3494 -1.1444 -0.5807
   28MOL   H27910593   6.837   1.565   3.744 -0.7791  1.1584  0.1536
   28MOL   H28010594   6.722   1.768   3.642  0.6952  1.3985  0.2643
   28MOL   H28110595   6.765   1.669   3.354  0.3355  0.0601 -0.5133
   28MOL   H28210596   6.881   1.777   3.415  0.2208  0.3232 -0.5035
   28MOL   H28310597   6.841   1.851   3.188 -1.4680 -1.0630 -0.4461
   28MOL   H28410598   6.819   1.982   3.013  0.2255  0.6231  0.2385
   28MOL   H28510599   6.649   2.169   2.998  2.7164  0.2091  0.4104
   28MOL   H28610600   6.493   2.200   3.188 -0.9985 -0.4998  0.8656
   28MOL   C28710601   6.487   2.060   3.429  0.1014  0.4067 -0.0217
   28MOL   C28810602   6.521   2.095   3.566  0.3255 -0.0472  0.7651
   28MOL   O28910603   6.493   2.197   3.469 -0.0726 -0.2040 -0.4768
   28MOL   C29010604   6.668   2.108   3.623  0.5566 -0.2042  0.1814
   28MOL   O29110605   6.659   2.163   3.756  0.0388  0.1066  0.0053
   28MOL   C29210606   6.770   2.175   3.841  0.8317 -0.8018  0.4789
   28MOL   C29310607   6.890   2.105   3.821  0.5683  0.3717  0.4873
   28MOL   C29410608   6.998   2.120   3.904  0.2122  0.2185  0.0169
   28MOL   C29510609   6.993   2.219   4.007  1.1385  0.2023 -0.4412
   28MOL   C29610610   6.873   2.289   4.026  0.1862  0.2371 -0.0786
   28MOL   C29710611   6.768   2.276   3.940  0.5318  0.8157  0.3048
   28MOL   H29810612   6.386   2.026   3.404  1.0112 -0.7814 -2.3000
   28MOL   H29910613   6.442   2.081   3.640  0.5456  1.5580  1.3181
   28MOL   H30010614   6.720   2.182   3.562 -1.6602  0.8769 -0.4587
   28MOL   H30110615   6.709   2.010   3.601  0.3943  0.4260 -3.1968
   28MOL   H30210616   6.890   2.037   3.737 -1.4366  2.5066 -1.3038
   28MOL   H30310617   7.089   2.063   3.890  1.4068  1.8396  1.0291
   28MOL   H30410618   7.078   2.248   4.067  0.7565  0.3653  0.0216
   28MOL   H30510619   6.874   2.368   4.100 -2.2939  0.2791 -0.0316
   28MOL   C30610620   6.632   2.351   3.953  0.3452 -0.6119  0.2209
   28MOL   C30710621   6.521   2.333   4.054 -0.2778  0.4630  0.7204
   28MOL   O30810622   6.629   2.429   4.071 -0.0836  0.1355 -0.6759
   28MOL   C30910623   6.533   2.225   4.155 -0.5789  0.7899 -0.3287
   28MOL   O31010624   6.540   2.096   4.089  0.2549  0.2775 -0.3205
   28MOL   C31110625   6.429   2.036   4.033  0.0432  0.4393  0.0710
   28MOL   C31210626   6.299   2.099   4.041 -0.4329  0.2661 -0.4619
   28MOL   C31310627   6.182   2.036   3.989  0.2079 -0.0590  0.3721
   28MOL   C31410628   6.199   1.915   3.924 -0.0280  0.1297 -0.3185
   28MOL   C31510629   6.327   1.856   3.905 -0.2694 -0.0418  0.1315
   28MOL   C31610630   6.442   1.912   3.962  0.1978 -0.1393 -0.2946
   28MOL   H31710631   6.604   2.409   3.865  0.8050 -1.1058 -0.2518
   28MOL   H31810632   6.422   2.375   4.040 -1.0768 -0.7778  2.5127
   28MOL   H31910633   6.448   2.226   4.223 -1.2900 -0.6575 -1.1599
   28MOL   H32010634   6.620   2.236   4.219 -0.8990  1.1155  0.0528
   28MOL   H32110635   6.288   2.198   4.082 -1.6065  0.9691 -2.4048
   28MOL   H32210636   6.086   2.083   4.003 -0.2970 -1.1996  0.8282
   28MOL   H32310637   6.118   1.863   3.875 -1.8720  2.6173 -0.0200
   28MOL   H32410638   6.325   1.760   3.856 -3.1595 -0.2158  0.4979
   28MOL   C32510639   6.581   1.854   3.945 -0.0702 -0.0304 -0.2547
   28MOL   C32610640   6.646   1.761   4.046  1.0426  0.2704 -0.0946
   28MOL   O32710641   6.582   1.713   3.926 -0.0454  0.0846  0.5718
   28MOL   C32810642   6.567   1.708   4.170  0.2417 -0.3833 -0.2952
   28MOL   O32910643   6.555   1.573   4.162 -0.4517 -0.0848  0.1505
   28MOL   C33010644   6.664   1.497   4.200 -0.1358 -0.0398  0.2416
   28MOL   C33110645   6.785   1.549   4.249 -0.2488 -0.3521 -0.4952
   28MOL   C33210646   6.899   1.467   4.260  0.7376  0.4749 -0.1784
   28MOL   C33310647   6.891   1.328   4.234 -0.9397 -0.3078 -0.0624
   28MOL   C33410648   6.769   1.273   4.198 -0.0823 -0.0548  0.6692
   28MOL   C33510649   6.659   1.356   4.171  1.0652  0.0180 -0.1637
   28MOL   H33610650   6.651   1.904   3.878 -2.0604 -0.3428 -2.6282
   28MOL   H33710651   6.750   1.729   4.044  0.4290 -1.7818 -1.2144
   28MOL   H33810652   6.473   1.763   4.174  1.8345  2.3436  1.9459
   28MOL   H33910653   6.615   1.739   4.263  1.5096 -2.1335 -0.3484
   28MOL   H34010654   6.802   1.654   4.269  0.8011 -0.5069 -0.5513
   28MOL   H34110655   6.995   1.505   4.291  0.2679 -0.0067  1.9269
   28MOL   H34210656   6.975   1.263   4.248  0.5182  1.6305  0.3589
   28MOL   H34310657   6.760   1.170   4.168 -0.3911  0.0466  0.4124
   28MOL   C34410658   6.534   1.306   4.106 -0.4256  0.0473 -0.1331
   28MOL   C34510659   6.517   1.285   3.956 -0.1552  0.3493 -0.8745
   28MOL   O34610660   6.546   1.175   4.054 -0.3013 -0.1513  0.4082
   28MOL   C34710661   6.619   1.336   3.857 -0.5445 -0.3033  0.3733
   28MOL   O34810662   6.584   1.299   3.725  0.1248  0.1732 -0.4818
   28MOL   C34910663   6.471   1.350   3.665 -0.0768 -0.2725  0.2454
   28MOL   C35010664   6.388   1.459   3.718 -0.2632 -0.8320  0.3624
   28MOL   C35110665   6.275   1.505   3.649  0.0323  0.4629  0.3099
   28MOL   C35210666   6.239   1.443   3.532 -0.3527 -0.5316  0.1182
   28MOL   C35310667   6.323   1.345   3.471  0.4409 -0.1292  0.0422
   28MOL   C35410668   6.437   1.295   3.542 -0.1232 -0.6452  0.4081
   28MOL   H35510669   6.447   1.322   4.170  0.2387 -0.8239  0.9977
   28MOL   H35610670   6.415   1.277   3.921 -0.3160 -0.6439 -0.2051
   28MOL   H35710671   6.720   1.299   3.875 -0.3454  0.4730  0.8740
   28MOL   H35810672   6.630   1.444   3.870 -0.2641 -0.1105 -1.3615
   28MOL   H35910673   6.412   1.501   3.814 -2.5510 -1.5785  1.3003
   28MOL   H36010674   6.225   1.592   3.688 -0.1084  0.6198 -0.2172
   28MOL   H36110675   6.148   1.479   3.487 -0.3328 -0.0665  0.4430
   28MOL   H36210676   6.294   1.318   3.370  2.3727  1.3637 -0.9540
   28MOL   C36310677   6.527   1.192   3.484  0.1564  0.2727  0.2534
   28MOL   C36410678   6.514   1.046   3.524  0.3774 -0.3500 -0.3297
   28MOL   O36510679   6.460   1.093   3.398 -0.3382  0.5104  0.3271
   28MOL   C36610680   6.419   0.999   3.630 -0.2296  0.8062 -0.6171
   28MOL   O36710681   6.442   0.862   3.646  0.3548  0.1827 -0.3551
   28MOL   C36810682   6.409   0.777   3.547  0.1913  0.8288 -0.0961
   28MOL   C36910683   6.465   0.645   3.566  0.1239  0.6264  0.2194
   28MOL   C37010684   6.443   0.542   3.468 -0.0610  0.1586 -0.4364
   28MOL   C37110685   6.352   0.569   3.368 -0.7041 -0.3303 -0.3042
   28MOL   C37210686   6.281   0.694   3.356  0.0327  0.0434  0.6068
   28MOL   C37310687   6.322   0.797   3.438  0.0719 -0.0408  0.0116
   28MOL   H37410688   6.619   1.235   3.447 -1.1227  1.8985 -1.1142
   28MOL   H37510689   6.611   0.997   3.523 -0.9914 -3.1964 -0.7319
   28MOL   H37610690   6.317   1.028   3.602 -0.9864 -0.8073  0.3477
   28MOL   H37710691   6.451   1.044   3.724 -0.2779 -2.7611  1.2236
   28MOL   H37810692   6.517   0.609   3.654 -1.1287  0.6590  0.9879
   28MOL   H37910693   6.487   0.444   3.482  0.4372  0.5637  0.9157
   28MOL   H38010694   6.323   0.508   3.283  0.9005  1.2618 -2.0325
   28MOL   H38110695   6.211   0.707   3.275  0.3323  0.1695  0.3707
   28MOL   H38210696   6.279   0.896   3.434 -0.9158 -0.4794 -0.1618
   29MOL     C110697   4.861   5.467   7.101  0.5185  0.2305  0.4643
   29MOL     C210698   4.799   5.456   7.232  0.2949 -0.4634 -0.8181
   29MOL     O310699   4.725   5.429   7.112  0.3228 -0.8863 -0.0594
   29MOL     C410700   4.753   5.578   7.311 -0.0866 -0.6519  0.1395
   29MOL     O510701   4.692   5.557   7.440 -0.4653 -0.1637  0.0139
   29MOL     C610702   4.635   5.660   7.514  0.2982  0.2095  0.3541
   29MOL     C710703   4.650   5.798   7.486 -0.3505  0.8394 -0.7403
   29MOL     C810704   4.596   5.889   7.580 -0.6197 -0.1708 -0.0206
   29MOL     C910705   4.532   5.841   7.696 -0.8459  0.1811 -0.0405
   29MOL    C1010706   4.520   5.700   7.720  0.7905 -0.3852  0.3085
   29MOL    C1110707   4.578   5.609   7.632  0.0725  0.1790 -0.0880
   29MOL    H1210708   4.927   5.384   7.075  1.1316  0.8926 -0.0843
   29MOL    H1310709   4.814   5.370   7.296 -2.0289  1.4578  2.4928
   29MOL    H1410710   4.690   5.646   7.254  0.6580  0.9362  1.1668
   29MOL    H1510711   4.854   5.617   7.324 -0.2695 -0.1790  0.1766
   29MOL    H1610712   4.698   5.840   7.398 -1.0922  0.0454 -1.5399
   29MOL    H1710713   4.602   5.997   7.573  1.3873 -0.0345  2.8724
   29MOL    H1810714   4.498   5.927   7.753 -1.6263 -0.7600  0.9478
   29MOL    H1910715   4.479   5.665   7.813  1.6949 -2.5481 -0.0641
   29MOL    H2010716   4.873   5.565   7.055  1.3524 -0.2164 -0.2866
   29MOL    C2110717   4.584   5.466   7.657 -0.1339 -0.4332  0.3083
   29MOL    C2210718   4.710   5.421   7.723  0.3727 -0.3093  0.3602
   29MOL    O2310719   4.589   5.432   7.796  0.3894  0.2960  0.1464
   29MOL    C2410720   4.814   5.509   7.785  0.2645  0.0138  0.6818
   29MOL    O2510721   4.874   5.436   7.895 -0.2517  0.0511 -0.0728
   29MOL    C2610722   4.975   5.351   7.867 -0.3963 -0.4985 -0.2915
   29MOL    C2710723   5.042   5.318   7.741 -0.3117  0.2588  0.4182
   29MOL    C2810724   5.144   5.225   7.733  0.2012  1.0519 -0.0995
   29MOL    C2910725   5.183   5.158   7.851  0.2481  0.5002  0.2070
   29MOL    C3010726   5.123   5.186   7.974 -0.1416  0.1912  0.1537
   29MOL    C3110727   5.019   5.277   7.980  0.2890 -0.0512  0.0037
   29MOL    H3210728   4.531   5.401   7.588 -0.7634 -1.2326  1.5136
   29MOL    H3310729   4.737   5.317   7.704 -0.2318 -0.7145  1.6102
   29MOL    H3410730   4.779   5.604   7.825  3.2331  1.6196 -0.3408
   29MOL    H3510731   4.887   5.531   7.707 -1.9479  3.0497 -0.6383
   29MOL    H3610732   5.007   5.357   7.647  0.0203 -2.2637 -0.7890
   29MOL    H3710733   5.195   5.202   7.641  2.7151  2.1104  0.9570
   29MOL    H3810734   5.256   5.078   7.856 -0.9820 -0.5969  0.9607
   29MOL    H3910735   5.140   5.126   8.062 -0.7716 -0.3918 -0.1152
   29MOL    C4010736   4.947   5.295   8.108 -0.2216 -0.4570  0.5599
   29MOL    C4110737   4.824   5.211   8.142  0.2850 -0.4820  0.7439
   29MOL    O4210738   4.958   5.178   0.022  0.0356  0.0440  0.1748
   29MOL    C4310739   4.756   5.115   8.040  0.0567 -0.0016  0.1122
   29MOL    O4410740   4.633   5.073   8.098  0.2443 -0.0086 -0.2790
   29MOL    C4510741   4.527   5.162   8.102 -0.0687  0.8697  0.1308
   29MOL    C4610742   4.541   5.299   8.044 -0.5356  1.2638  0.1645
   29MOL    C4710743   4.450   5.395   8.073 -0.0784  0.2244 -0.7087
   29MOL    C4810744   4.334   5.358   8.145  0.2014 -0.1477 -0.6158
   29MOL    C4910745   4.315   5.225   0.024 -0.6795  0.2920  0.0357
   29MOL    C5010746   4.412   5.129   0.008  0.0080  0.1929 -0.3851
   29MOL    H5110747   4.983   5.387   8.154 -1.0337  1.2749 -2.1250
   29MOL    H5210748   4.758   5.249   0.049  2.3752  0.9881  1.8789
   29MOL    H5310749   4.821   5.029   8.023 -0.0169 -0.4656  2.0660
   29MOL    H5410750   4.731   5.159   7.943 -1.0832  0.3843  0.5826
   29MOL    H5510751   4.629   5.329   7.989  0.8086 -2.7118 -0.0323
   29MOL    H5610752   4.457   5.492   8.027  0.8684  1.2196  1.4557
   29MOL    H5710753   4.252   5.425   8.166  1.7006  1.6988 -0.5360
   29MOL    H5810754   4.224   5.198   0.075 -1.9747 -0.3229 -2.4792
   29MOL    C5910755   4.388   4.994   0.062 -0.0434 -0.1021 -0.0261
   29MOL    C6010756   4.438   4.944   0.190  0.0199  0.1843  0.0562
   29MOL    O6110757   4.305   4.987   0.177  0.1983  0.2725  0.4366
   29MOL    C6210758   4.529   5.042   0.267 -0.4139  0.0303 -0.8043
   29MOL    O6310759   4.610   4.971   0.365  0.1543 -0.3522  0.5657
   29MOL    C6410760   4.712   4.891   0.328  0.4415 -0.2386  0.3395
   29MOL    C6510761   4.802   4.927   0.217  0.0773 -0.1684  0.6073
   29MOL    C6610762   4.918   4.858   0.193 -0.6555  0.2049 -0.5050
   29MOL    C6710763   4.961   4.750   0.272 -0.1057  0.0192  0.0774
   29MOL    C6810764   4.883   4.718   0.384  0.0191  0.4633 -0.0678
   29MOL    C6910765   4.758   4.787   0.415  0.2841 -0.6355 -0.0250
   29MOL    H7010766   4.368   4.927   8.148  0.2423 -0.3587  0.1107
   29MOL    H7110767   4.459   4.838   0.193  2.2637  0.5804 -0.8318
   29MOL    H7210768   4.472   5.116   0.323 -0.2776 -0.2269 -0.3236
   29MOL    H7310769   4.586   5.100   0.195 -1.0172  0.3089 -1.0666
   29MOL    H7410770   4.778   5.020   0.169 -0.5857 -0.3953  0.4977
   29MOL    H7510771   4.963   4.897   0.103 -3.3162  2.9509 -0.7295
   29MOL    H7610772   5.040   4.684   0.238 -0.8628  0.2488 -2.1922
   29MOL    H7710773   4.908   4.629   0.441 -1.3907 -0.1902 -0.4516
   29MOL    C7810774   4.688   4.738   0.542 -0.1175 -0.2690  0.3913
   29MOL    C7910775   4.555   4.667   0.566  0.3766 -0.6849  0.0189
   29MOL    O8010776   4.675   4.598   0.540 -0.2367  0.1820  0.0678
   29MOL    C8110777   4.449   4.656   0.460  1.1880 -0.2456  0.6747
   29MOL    O8210778   4.343   4.574   0.507  0.0619 -0.1804  0.0005
   29MOL    C8310779   4.214   4.614   0.480 -0.2791 -0.0062  0.0671
   29MOL    C8410780   4.190   4.662   0.352  0.3566 -0.4723  0.1468
   29MOL    C8510781   4.061   4.709   0.321  0.2267  0.2101  0.3148
   29MOL    C8610782   3.962   4.701   0.417 -0.3705 -0.0952 -0.7540
   29MOL    C8710783   3.983   4.629   0.539  0.5678 -0.7476  0.1872
   29MOL    C8810784   4.110   4.598   0.576 -0.5978  0.6633  0.1008
   29MOL    H8910785   4.753   4.765   0.625  0.6306 -2.0096  0.3862
   29MOL    H9010786   4.521   4.658   0.669  0.5318 -0.1342  0.1208
   29MOL    H9110787   4.484   4.603   0.372 -2.3802 -0.0643 -0.9185
   29MOL    H9210788   4.423   4.757   0.426  3.0971 -0.5168 -1.7231
   29MOL    H9310789   4.275   4.658   0.285  1.5536  1.5162  1.4641
   29MOL    H9410790   4.048   4.751   0.223 -0.4503  1.7266  1.0497
   29MOL    H9510791   3.864   4.738   0.389 -0.2074  0.6692 -0.3456
   29MOL    H9610792   3.912   4.608   0.617 -0.9687  1.7028 -0.4782
   29MOL    C9710793   4.147   4.553   0.718 -0.7858 -0.9241 -0.1239
   29MOL    C9810794   4.155   4.650   0.832 -0.0195 -0.0167 -0.0828
   29MOL    O9910795   4.041   4.563   0.813 -0.0209 -0.8564  0.0545
   29MOL   C10010796   4.123   4.799   0.839  0.1745  0.0754 -0.8078
   29MOL   O10110797   4.183   4.867   0.727 -0.5357 -0.1603 -0.2783
   29MOL   C10210798   4.313   4.912   0.736  0.3884  0.1785 -0.0221
   29MOL   C10310799   4.389   4.870   0.850 -0.8559 -0.7133 -0.0998
   29MOL   C10410800   4.518   4.924   0.862  0.2301 -1.3014  0.0834
   29MOL   C10510801   4.568   5.015   0.769 -0.1298  0.3604 -0.8642
   29MOL   C10610802   4.492   5.053   0.658  0.6083  0.5463 -0.5844
   29MOL   C10710803   4.364   4.993   0.638  0.2289 -0.2073 -0.6953
   29MOL   H10810804   4.195   4.456   0.711  0.1702 -0.4684  0.0228
   29MOL   H10910805   4.208   4.610   0.919 -1.7832 -1.0869  0.5329
   29MOL   H11010806   4.130   4.846   0.937 -0.0057 -1.0331 -0.2514
   29MOL   H11110807   4.015   4.795   0.834  0.2491 -1.9669 -1.3414
   29MOL   H11210808   4.343   4.798   0.917  0.0360 -0.8011  0.4366
   29MOL   H11310809   4.578   4.885   0.943 -0.0996  0.0464  0.9957
   29MOL   H11410810   4.672   5.038   0.782  0.1206 -0.4919 -1.3369
   29MOL   H11510811   4.517   5.140   0.599  0.3517  1.5416  0.7585
   29MOL   C11610812   4.269   5.022   0.530 -0.9014 -0.4544  0.6186
   29MOL   C11710813   4.154   5.114   0.550 -0.1471  1.0379 -0.0805
   29MOL   O11810814   4.278   5.156   0.487  0.5361  0.3254  0.0225
   29MOL   C11910815   4.125   5.196   0.676 -0.2955 -0.1188 -0.5608
   29MOL   O12010816   4.025   5.285   0.662  0.0485 -0.2002 -0.4534
   29MOL   C12110817   3.895   5.241   0.681 -0.4248  1.1699 -0.4355
   29MOL   C12210818   3.853   5.107   0.676  0.4255  0.5679 -0.6931
   29MOL   C12310819   3.720   5.072   0.704 -0.0941  0.2094  0.2064
   29MOL   C12410820   3.622   5.175   0.734  0.2769 -0.2234  0.2714
   29MOL   C12510821   3.660   5.308   0.726 -0.2580  0.0614  0.5933
   29MOL   C12610822   3.799   5.342   0.704 -0.2827  0.0504  0.2867
   29MOL   H12710823   4.271   4.943   0.455 -1.4777  0.8031 -0.7501
   29MOL   H12810824   4.065   5.100   0.488  0.8760  0.2141 -1.3751
   29MOL   H12910825   4.218   5.245   0.704 -1.1908  1.7748 -0.8267
   29MOL   H13010826   4.100   5.129   0.758  0.1329  0.0437 -0.2969
   29MOL   H13110827   3.913   5.018   0.664  0.7058  0.1598  3.2015
   29MOL   H13210828   3.685   4.970   0.696 -2.9884  1.1204  0.3975
   29MOL   H13310829   3.518   5.149   0.746  0.6636 -1.4298  1.0360
   29MOL   H13410830   3.595   5.393   0.736 -0.2432  0.3890 -2.0285
   29MOL   C13510831   3.845   5.486   0.723 -0.2992 -0.1922  0.1337
   29MOL   C13610832   3.798   5.597   0.630  0.5950  0.4267 -0.0953
   29MOL   O13710833   3.739   5.577   0.759 -0.0962 -0.1620 -0.0135
   29MOL   C13810834   3.700   5.573   0.514  0.0373 -0.3605  0.8221
   29MOL   O13910835   3.648   5.694   0.459  0.5955 -0.1312 -0.2799
   29MOL   C14010836   3.523   5.733   0.511  0.0755 -0.2672  0.2146
   29MOL   C14110837   3.483   5.707   0.646  0.1670  0.1546  0.8683
   29MOL   C14210838   3.356   5.747   0.693 -0.5199  0.1378 -0.0534
   29MOL   C14310839   3.279   5.829   0.609 -0.2190 -0.4299 -0.7625
   29MOL   C14410840   3.316   5.862   0.481  0.2506 -0.1016  0.4710
   29MOL   C14510841   3.442   5.819   0.434  0.4187 -0.4708 -0.4547
   29MOL   H14610842   3.933   5.505   0.784 -0.1420  2.2129 -0.8108
   29MOL   H14710843   3.861   5.684   0.622  0.1115  0.5977 -2.0836
   29MOL   H14810844   3.621   5.501   0.534  2.9878 -3.6009  1.1972
   29MOL   H14910845   3.753   5.534   0.427 -1.2421  2.0061 -1.0861
   29MOL   H15010846   3.534   5.637   0.711 -0.8437 -1.0431  0.4024
   29MOL   H15110847   3.306   5.713   0.782  1.8023 -1.8834  0.5126
   29MOL   H15210848   3.178   5.840   0.645  0.9085 -0.1694  2.5811
   29MOL   H15310849   3.246   5.909   0.413 -0.0323 -1.7553 -0.4017
   29MOL   C15410850   3.500   5.862   0.300 -0.5952 -0.2047 -0.5780
   29MOL   C15510851   3.520   5.775   0.180  0.4057  0.3065 -0.4474
   29MOL   O15610852   3.400   5.859   0.193  0.4518 -0.5683 -0.1494
   29MOL   C15710853   3.500   5.623   0.187 -0.8060 -0.2809 -0.0699
   29MOL   O15810854   3.485   5.564   0.060 -0.2252  0.2615  0.5590
   29MOL   C15910855   3.384   5.609   8.143  0.1238 -0.7789 -0.5664
   29MOL   C16010856   3.255   5.652   0.028  0.1595 -0.3879  0.7994
   29MOL   C16110857   3.149   5.686   8.110 -0.5790  0.2472  1.3213
   29MOL   C16210858   3.168   5.673   7.973 -0.2521 -0.4527  0.2650
   29MOL   C16310859   3.287   5.620   7.922  0.1769 -0.1847  0.1406
   29MOL   C16410860   3.395   5.578   8.004 -0.0094  0.1228 -0.0870
   29MOL   H16510861   3.551   5.958   0.303  1.1243 -1.1751  2.1143
   29MOL   H16610862   3.584   5.805   0.098  2.9997 -0.8894  1.0664
   29MOL   H16710863   3.424   5.585   0.255  0.6264 -0.6682  1.3339
   29MOL   H16810864   3.593   5.584   0.228 -0.1160  0.9797 -0.3872
   29MOL   H16910865   3.241   5.662   0.135  1.3565 -0.9940  1.0129
   29MOL   H17010866   3.057   5.719   8.156 -0.6555  0.2296  1.1821
   29MOL   H17110867   3.094   5.711   7.904 -0.1790  0.5969  0.7467
   29MOL   H17210868   3.291   5.614   7.814  0.9692  1.4374  0.0624
   29MOL   C17310869   3.517   5.508   7.946  0.0595  0.1534 -0.1949
   29MOL   C17410870   3.514   5.366   7.935 -0.0532  0.6471 -0.0517
   29MOL   O17510871   3.491   5.450   7.821  0.5649  0.2461 -0.4728
   29MOL   C17610872   3.390   5.285   7.979  0.2438  0.1796 -0.0318
   29MOL   O17710873   3.412   5.144   7.951  0.1799 -0.1734  0.1126
   29MOL   C17810874   3.391   5.097   7.821  0.2884 -0.5481 -0.2436
   29MOL   C17910875   3.326   5.175   7.724  0.4706  0.5115  0.7652
   29MOL   C18010876   3.299   5.129   7.596 -0.1902  0.5739 -0.4566
   29MOL   C18110877   3.346   4.999   7.559 -0.0665  1.2129  0.0809
   29MOL   C18210878   3.417   4.920   7.650  0.1648 -0.1180  0.0158
   29MOL   C18310879   3.433   4.970   7.782 -0.5157  0.4045  0.3097
   29MOL   H18410880   3.609   5.566   7.953  0.6723 -0.9693  1.1709
   29MOL   H18510881   3.608   5.311   7.937 -0.6223 -0.3055  0.7841
   29MOL   H18610882   3.299   5.332   7.943  1.4850  2.7651  0.1078
   29MOL   H18710883   3.390   5.295   8.088 -1.1823 -0.0137 -0.0053
   29MOL   H18810884   3.289   5.274   7.745 -0.2958  0.3765  0.0540
   29MOL   H18910885   3.258   5.200   7.526 -3.1613 -0.2650  0.3581
   29MOL   H19010886   3.319   4.957   7.463 -0.9536 -0.9403  1.2596
   29MOL   H19110887   3.467   4.829   7.621  1.0829 -0.0016  1.2347
   29MOL   C19210888   3.506   4.889   7.884  0.1865 -0.3375 -0.0214
   29MOL   C19310889   3.415   4.800   7.973 -0.5166 -0.0803  0.9875
   29MOL   O19410890   3.496   4.750   7.869 -0.0077 -0.4168  0.0049
   29MOL   C19510891   3.262   4.799   7.955 -0.2639 -0.4008  0.9052
   29MOL   O19610892   3.206   4.676   8.010 -0.0371 -0.5268 -0.8605
   29MOL   C19710893   3.164   4.684   8.139  1.0627 -0.0301 -0.7658
   29MOL   C19810894   3.214   4.775   0.065 -0.3191 -0.0803  0.0025
   29MOL   C19910895   3.146   4.789   0.186  0.0027  0.0539  0.1532
   29MOL   C20010896   3.043   4.705   0.226  0.3319 -0.6356  0.0671
   29MOL   C20110897   2.999   4.610   0.138  0.2532 -0.0258  0.1746
   29MOL   C20210898   3.052   4.604   0.007 -0.2294 -0.5807 -0.5302
   29MOL   H20310899   3.600   4.931   7.918  1.0669 -2.5013  0.2745
   29MOL   H20410900   3.447   4.772   8.074  0.0932 -3.2159 -0.0230
   29MOL   H20510901   3.246   4.804   7.847  0.1376 -0.0546  0.8598
   29MOL   H20610902   3.215   4.888   7.997 -0.9056  0.3269 -1.3147
   29MOL   H20710903   3.303   4.832   0.048  0.7233 -1.6415  0.0908
   29MOL   H20810904   3.200   4.858   0.250 -0.0608  1.6602 -1.4863
   29MOL   H20910905   2.984   4.720   0.316 -1.8613 -0.9886 -1.2877
   29MOL   H21010906   2.915   4.548   0.165  1.7215 -1.5929  1.2209
   29MOL   C21110907   3.006   4.504   8.070  0.1916 -0.1446 -1.0733
   29MOL   C21210908   3.033   4.352   8.079  0.5935  0.0014  0.1082
   29MOL   O21310909   2.907   4.413   8.117 -0.2675  0.1983 -0.4623
   29MOL   C21410910   3.118   4.303   0.020 -0.3562 -0.6062 -1.0341
   29MOL   O21510911   3.082   4.168   0.046  0.4004 -0.1033 -0.3708
   29MOL   C21610912   2.994   4.138   0.140  0.2067 -0.1399  0.2569
   29MOL   C21710913   2.903   4.225   0.211  0.1406  0.2698 -0.2692
   29MOL   C21810914   2.825   4.178   0.315  0.2625  0.9875  0.4137
   29MOL   C21910915   2.837   4.042   0.361  0.5739  0.5229  0.5267
   29MOL   C22010916   2.913   3.954   0.285  0.2196 -1.0279 -0.3096
   29MOL   C22110917   2.991   4.001   0.178 -0.3140 -0.9198  0.1236
   29MOL   H22210918   2.978   4.565   7.984 -1.5539  3.0925  1.6563
   29MOL   H22310919   3.021   4.289   7.991  0.0107 -1.7578  1.4260
   29MOL   H22410920   3.111   4.365   0.109  0.7255 -2.5698  0.4555
   29MOL   H22510921   3.221   4.308   8.155 -0.4527 -2.0135 -1.5538
   29MOL   H22610922   2.891   4.330   0.184  0.5314  0.0108 -1.4930
   29MOL   H22710923   2.755   4.252   0.349  0.4387  0.5176  1.8334
   29MOL   H22810924   2.769   4.008   0.437  0.8837 -1.7502 -0.1930
   29MOL   H22910925   2.935   3.854   0.321  0.1483 -1.2571 -0.8921
   29MOL   C23010926   3.076   3.909   0.108  0.2671 -0.1316 -0.5915
   29MOL   C23110927   3.221   3.882   0.162  0.0256  0.0915 -0.5990
   29MOL   O23210928   3.107   3.797   0.184  0.2156 -0.1132  1.1302
   29MOL   C23310929   3.281   3.960   0.269  0.1570 -0.1002 -0.2049
   29MOL   O23410930   3.364   3.874   0.353 -0.4820  0.0120  0.2215
   29MOL   C23510931   3.449   3.938   0.445 -0.4682 -0.5892  0.3681
   29MOL   C23610932   3.429   4.073   0.484  0.4366  0.7088  0.6678
   29MOL   C23710933   3.525   4.135   0.562  0.8749  0.1645  0.4576
   29MOL   C23810934   3.641   4.073   0.601  0.7749  0.7466 -0.2596
   29MOL   C23910935   3.661   3.938   0.567  0.9404  0.1525 -0.2075
   29MOL   C24010936   3.564   3.867   0.489  0.0411  0.4751 -0.0675
   29MOL   H24110937   3.053   3.892   0.003 -3.2712  1.5947 -0.1878
   29MOL   H24210938   3.291   3.838   0.092 -0.5725  1.5252 -2.1292
   29MOL   H24310939   3.195   4.000   0.322  0.9538 -0.5366  1.4577
   29MOL   H24410940   3.340   4.044   0.234 -1.4308  1.1569  0.0874
   29MOL   H24510941   3.340   4.127   0.456 -1.0972 -1.7851  0.6424
   29MOL   H24610942   3.506   4.237   0.594 -0.6869  0.1961 -0.5291
   29MOL   H24710943   3.717   4.132   0.650 -0.2373  2.0853 -0.2602
   29MOL   H24810944   3.750   3.885   0.598  0.4580  0.0053  0.9466
   29MOL   C24910945   3.583   3.724   0.438 -0.4198 -0.0058  0.5307
   29MOL   C25010946   3.665   3.687   0.317  0.4373 -0.1675  0.2677
   29MOL   O25110947   3.718   3.673   0.451  0.2484 -0.2654  0.1031
   29MOL   C25210948   3.738   3.792   0.240  1.0705 -0.1345 -0.0917
   29MOL   O25310949   3.813   3.748   0.126  0.2001 -0.3107 -0.2548
   29MOL   C25410950   3.756   3.758   8.169  0.4338 -0.0840 -0.2221
   29MOL   C25510951   3.617   3.739   8.147  0.3802 -0.4575  0.2211
   29MOL   C25610952   3.566   3.742   8.020  0.6364  0.2803 -0.9670
   29MOL   C25710953   3.650   3.765   7.912  0.1245  0.8555  0.3337
   29MOL   C25810954   3.788   3.782   7.932 -0.0831 -0.1536 -0.2813
   29MOL   C25910955   3.844   3.772   8.061  0.1079  1.2169 -0.0872
   29MOL   H26010956   3.503   3.655   0.464 -0.0100  0.0026  1.8635
   29MOL   H26110957   3.640   3.594   0.268 -0.5411  0.0393  0.3724
   29MOL   H26210958   3.810   3.835   0.310  0.2841 -1.1520  1.3509
   29MOL   H26310959   3.672   3.874   0.212  0.5965 -0.2103  0.7906
   29MOL   H26410960   3.553   3.729   0.063  0.0043  0.6745  0.0772
   29MOL   H26510961   3.460   3.730   7.998  0.6349 -1.1656 -0.1888
   29MOL   H26610962   3.613   3.766   7.810  0.1448 -0.1797  0.3170
   29MOL   H26710963   3.852   3.797   7.846  0.6745  3.8124  0.8724
   29MOL   C26810964   3.992   3.773   8.077 -0.8157 -0.7015 -0.7751
   29MOL   C26910965   4.081   3.659   8.051 -0.1491 -0.5216  0.3425
   29MOL   O27010966   4.067   3.761   7.952 -0.2238 -0.1643  0.4571
   29MOL   C27110967   4.047   3.518   7.999 -0.0154  0.5770 -0.7529
   29MOL   O27210968   3.918   3.476   8.040 -0.4478 -0.1537  0.1772
   29MOL   C27310969   3.885   3.340   8.026  0.3246 -0.3578 -0.3984
   29MOL   C27410970   3.958   3.252   7.938  0.8179 -0.4007  1.2253
   29MOL   C27510971   3.930   3.115   7.935 -0.5531  0.9221  0.1234
   29MOL   C27610972   3.831   3.060   8.017  0.3867 -0.1703 -0.0791
   29MOL   C27710973   3.763   3.147   8.108 -0.0725  0.0569  0.2080
   29MOL   C27810974   3.786   3.285   8.115  0.3165 -1.2391  0.0986
   29MOL   H27910975   4.032   3.855   8.137 -1.1767 -1.7324  0.9214
   29MOL   H28010976   4.161   3.654   8.124  0.8769 -0.3049 -0.7602
   29MOL   H28110977   4.128   3.447   8.017 -0.0561  0.9232  0.9339
   29MOL   H28210978   4.039   3.530   7.891 -0.3778  1.9245 -0.5804
   29MOL   H28310979   4.030   3.287   7.866  1.3394  0.7018  2.2632
   29MOL   H28410980   3.984   3.052   7.865 -3.1417 -0.1735 -0.9739
   29MOL   H28510981   3.817   2.954   8.027  0.6122 -0.4869 -2.7185
   29MOL   H28610982   3.703   3.099   0.015 -0.3047  1.1024  0.6865
   29MOL   C28710983   3.719   3.380   0.044 -0.5887 -0.6015  0.0118
   29MOL   C28810984   3.573   3.387   0.053  0.3190  0.0528  0.6004
   29MOL   O28910985   3.654   3.319   0.153 -0.7480 -0.6314 -0.0414
   29MOL   C29010986   3.471   3.301   8.148  0.1977  0.4394 -0.4732
   29MOL   O29110987   3.340   3.353   0.010 -0.5920  0.3192 -0.4458
   29MOL   C29210988   3.233   3.289   8.117  0.0509  0.0566  0.1254
   29MOL   C29310989   3.217   3.147   8.105 -0.2990 -0.2368 -0.2858
   29MOL   C29410990   3.098   3.089   8.051 -0.1572 -0.0759 -0.1778
   29MOL   C29510991   2.991   3.175   8.024  0.4736 -0.0344 -0.1290
   29MOL   C29610992   3.009   3.312   8.027  0.1866  0.0676 -0.1628
   29MOL   C29710993   3.127   3.373   8.065 -0.1409  0.0685  0.3066
   29MOL   H29810994   3.777   3.467   0.075 -1.7060  0.0225  0.3849
   29MOL   H29910995   3.524   3.469   0.104 -1.9436 -0.5235 -0.5704
   29MOL   H30010996   3.474   3.198   0.011 -0.5805  0.9349  1.1783
   29MOL   H30110997   3.479   3.300   8.039  4.0527 -1.0673 -0.2600
   29MOL   H30210998   3.288   3.086   8.158 -1.8854  1.0034  3.4013
   29MOL   H30310999   3.091   2.981   8.060  1.7388 -0.1907  0.2838
   29MOL   H30411000   2.893   3.134   8.003  0.7894 -0.5747 -0.5778
   29MOL   H30511001   2.926   3.377   8.005  0.9223  0.3513 -2.2151
   29MOL   C30611002   3.150   3.524   8.075  0.3193  0.1023  0.1359
   29MOL   C30711003   3.225   3.612   7.967 -0.5757 -0.2193 -0.0063
   29MOL   O30811004   3.078   3.603   7.983 -1.3848  0.4832  0.7340
   29MOL   C30911005   3.281   3.552   7.840  0.0984 -0.2977 -0.5681
   29MOL   O31011006   3.351   3.656   7.763 -0.0053 -0.4290 -0.0180
   29MOL   C31111007   3.316   3.677   7.635  0.4282  0.5331  0.0421
   29MOL   C31211008   3.320   3.568   7.546  0.2322 -0.0359  0.1983
   29MOL   C31311009   3.284   3.589   7.409 -0.4227  0.0349 -0.3348
   29MOL   C31411010   3.260   3.711   7.355 -0.3021  0.0615  0.3259
   29MOL   C31511011   3.260   3.823   7.444  0.4645 -0.3534  0.4922
   29MOL   C31611012   3.289   3.810   7.583 -0.9566  0.5441 -0.0137
   29MOL   H31711013   3.145   3.548   0.011  3.1339 -2.4507  0.9372
   29MOL   H31811014   3.250   3.715   7.991 -0.5867 -0.7833  2.5890
   29MOL   H31911015   3.214   3.482   7.789  1.0144  0.3025 -2.6446
   29MOL   H32011016   3.374   3.500   7.862  0.4895  0.4878 -0.3364
   29MOL   H32111017   3.349   3.468   7.576  1.4030  0.0783 -0.5131
   29MOL   H32211018   3.275   3.511   7.335 -0.9921 -0.2263  0.0033
   29MOL   H32311019   3.243   3.725   7.249  0.5246 -0.8589  0.0640
   29MOL   H32411020   3.240   3.919   7.398 -2.0577 -0.9604  0.2400
   29MOL   C32511021   3.292   3.937   7.676 -0.0757 -0.0485  0.1777
   29MOL   C32611022   3.409   4.022   7.692  0.7790 -0.1480 -0.0234
   29MOL   O32711023   3.311   4.061   7.597 -0.0958 -0.1515 -0.4148
   29MOL   C32811024   3.545   3.992   7.628 -0.1556 -0.9738 -0.0072
   29MOL   O32911025   3.647   4.069   7.696 -0.1825  0.6879  0.3768
   29MOL   C33011026   3.651   4.205   7.690 -0.2872 -0.2564 -0.3879
   29MOL   C33111027   3.577   4.286   7.602 -0.6483  0.7342  0.3762
   29MOL   C33211028   3.621   4.420   7.581 -0.3686 -0.6812  0.2820
   29MOL   C33311029   3.704   4.485   7.676 -0.0025  0.1621  0.0913
   29MOL   C33411030   3.759   4.410   7.782  0.7464 -0.7069  0.1630
   29MOL   C33511031   3.746   4.267   7.782 -0.3337 -0.3150 -0.3641
   29MOL   H33611032   3.227   3.941   7.763  1.8870 -1.7817  1.7769
   29MOL   H33711033   3.410   4.088   7.779 -2.0610 -0.4566  0.2872
   29MOL   H33811034   3.546   4.020   7.523 -1.4314  1.0922  0.5054
   29MOL   H33911035   3.574   3.888   7.644  1.5769 -0.4831  0.1252
   29MOL   H34011036   3.505   4.241   7.535 -1.1663  2.8299 -0.5257
   29MOL   H34111037   3.598   4.471   7.488 -0.7095 -0.7793  0.3107
   29MOL   H34211038   3.724   4.591   7.661  1.1224  0.1218  1.2869
   29MOL   H34311039   3.828   4.459   7.849  0.0182 -1.7305  1.6897
   29MOL   C34411040   3.830   4.177   7.869  0.7944 -1.0326 -0.3151
   29MOL   C34511041   3.976   4.145   7.830  1.1972  0.0877 -0.1494
   29MOL   O34611042   3.944   4.247   7.928 -0.3342 -0.1793 -0.5936
   29MOL   C34711043   4.033   4.198   7.699  1.1564 -0.2771  0.1507
   29MOL   O34811044   4.161   4.138   7.677  0.4124  0.0712  0.2275
   29MOL   C34911045   4.190   4.120   7.544 -0.0052 -0.4164 -0.5183
   29MOL   C35011046   4.139   4.211   7.443  0.1632 -0.3779 -0.2560
   29MOL   C35111047   4.166   4.194   7.304 -0.4506  0.3193 -0.2895
   29MOL   C35211048   4.250   4.088   7.272 -0.3913 -0.2403 -0.2574
   29MOL   C35311049   4.298   3.996   7.370 -0.0954 -0.5649  0.2981
   29MOL   C35411050   4.272   4.010   7.508 -0.3501 -0.5484 -0.4029
   29MOL   H35511051   3.779   4.095   7.920 -4.2937  2.2881  0.3895
   29MOL   H35611052   4.031   4.056   7.861  1.0584 -0.0313 -0.2465
   29MOL   H35711053   4.039   4.307   7.691 -0.4953 -0.1289  0.6502
   29MOL   H35811054   3.953   4.165   7.633  1.7206 -0.6762 -0.3327
   29MOL   H35911055   4.079   4.299   7.457 -0.4669 -0.5812 -1.6232
   29MOL   H36011056   4.127   4.265   7.232 -1.2501  0.0529 -0.1276
   29MOL   H36111057   4.263   4.068   7.167 -0.0353 -2.2736  0.1494
   29MOL   H36211058   4.348   3.906   7.334 -0.0011 -0.3302 -0.1651
   29MOL   C36311059   4.329   3.918   7.618  0.4156  0.3399  0.2453
   29MOL   C36411060   4.270   3.783   7.673  1.1436 -0.3748  0.0058
   29MOL   O36511061   4.366   3.783   7.575 -0.3302 -0.1190  0.1891
   29MOL   C36611062   4.132   3.734   7.637  0.6776 -0.1082  0.3561
   29MOL   O36711063   4.043   3.839   7.596 -0.7788  0.5100  0.0477
   29MOL   C36811064   3.919   3.801   7.551 -0.6394 -0.9309 -0.1335
   29MOL   C36911065   3.855   3.874   7.451 -0.0746  0.4895 -0.0581
   29MOL   C37011066   3.733   3.824   7.393  0.7635  0.3147 -0.0033
   29MOL   C37111067   3.670   3.710   7.433 -0.4784  0.3931 -1.2152
   29MOL   C37211068   3.729   3.633   7.535 -0.0164 -0.1732  0.1940
   29MOL   C37311069   3.853   3.683   7.597  1.1610 -0.2679 -0.4783
   29MOL   H37411070   4.404   3.969   7.677 -0.6195  0.2214  1.7019
   29MOL   H37511071   4.305   3.734   7.763 -2.4508 -3.2793 -0.0479
   29MOL   H37611072   4.093   3.691   7.729  1.2412  3.7233  2.5335
   29MOL   H37711073   4.147   3.659   7.560  3.4376  2.8264 -2.0965
   29MOL   H37811074   3.900   3.969   7.428 -1.1764  0.8537 -0.7593
   29MOL   H37911075   3.680   3.889   7.325 -1.2364 -0.3616  0.8530
   29MOL   H38011076   3.572   3.676   7.403 -0.5152 -0.0949 -0.5657
   29MOL   H38111077   3.680   3.542   7.568  1.3814 -0.4188  1.6130
   29MOL   H38211078   3.900   3.622   7.674  1.7647 -0.7309 -1.2069
   30MOL     C111079   7.061   7.121   7.290 -0.7661  0.1759 -0.0053
   30MOL     C211080   6.960   7.191   7.365  0.1557  0.3289 -0.1342
   30MOL     O311081   6.952   7.050   7.340 -0.4069  0.3021  0.1078
   30MOL     C411082   6.842   7.269   7.294 -0.2372  0.0987 -0.0937
   30MOL     O511083   6.746   7.317   7.387  0.0742  0.1034 -0.2741
   30MOL     C611084   6.662   7.215   7.430 -0.2237 -0.0932  0.0396
   30MOL     C711085   6.615   7.105   7.357  0.0606 -0.0623 -0.6094
   30MOL     C811086   6.542   7.006   7.420  0.2629  0.1925  0.2602
   30MOL     C911087   6.509   7.021   7.550 -0.3234  0.0514 -0.0063
   30MOL    C1011088   6.544   7.135   7.623  0.1933  0.3640  0.3411
   30MOL    C1111089   6.612   7.237   7.563  0.5447 -0.2542  0.0399
   30MOL    H1211090   7.156   7.097   7.339 -1.7957  0.7593  2.3259
   30MOL    H1311091   6.981   7.216   7.469  1.3445  0.7587 -0.4674
   30MOL    H1411092   6.804   7.216   7.206 -0.3466 -1.3372  0.8063
   30MOL    H1511093   6.885   7.360   7.253  1.9873 -0.9878 -0.2051
   30MOL    H1611094   6.636   7.099   7.252  1.3942  1.9412 -0.4724
   30MOL    H1711095   6.515   6.926   7.353  2.1683 -0.7461  0.5807
   30MOL    H1811096   6.455   6.938   7.595 -3.5244  3.1192  2.0930
   30MOL    H1911097   6.533   7.130   7.730  2.8791  2.1825  0.7472
   30MOL    H2011098   7.066   7.135   7.182 -0.5048  2.2171  0.2465
   30MOL    C2111099   6.679   7.333   7.659 -0.9300 -0.1637  0.5449
   30MOL    C2211100   6.651   7.480   7.644  0.1827  0.7390 -0.3045
   30MOL    O2311101   6.587   7.398   7.748 -0.1184 -0.6495  0.9127
   30MOL    C2411102   6.557   7.521   7.535 -0.4432 -1.0434 -0.3341
   30MOL    O2511103   6.519   7.658   7.565 -0.5357  0.0881  0.4164
   30MOL    C2611104   6.425   7.678   7.662 -0.4023 -0.0807  0.7263
   30MOL    C2711105   6.323   7.589   7.699  0.5973  0.1432  0.0192
   30MOL    C2811106   6.222   7.621   7.797 -0.9607 -0.0833 -1.0683
   30MOL    C2911107   6.234   7.748   7.859  0.1690  0.2330  0.2639
   30MOL    C3011108   6.343   7.838   7.835  0.8463  0.8596 -0.0054
   30MOL    C3111109   6.434   7.803   7.724  1.0220 -0.2011  0.3800
   30MOL    H3211110   6.771   7.293   7.703 -0.3188  1.4870  0.8121
   30MOL    H3311111   6.725   7.548   7.685 -1.0137  1.7483  0.2239
   30MOL    H3411112   6.472   7.457   7.515 -1.1544  0.1790 -1.2629
   30MOL    H3511113   6.610   7.536   7.441  0.0442 -3.2582 -0.4610
   30MOL    H3611114   6.310   7.492   7.655 -0.0918  0.3117 -0.1489
   30MOL    H3711115   6.148   7.546   7.822 -1.6069  0.2273 -2.0319
   30MOL    H3811116   6.159   7.771   7.932  1.0154 -1.7141  1.8050
   30MOL    H3911117   6.341   7.937   7.878  0.2489  0.8103  0.0775
   30MOL    C4011118   6.530   7.912   7.680  0.6551  0.2707 -0.3030
   30MOL    C4111119   6.523   7.981   7.544 -0.5922 -0.3884  0.1647
   30MOL    O4211120   6.479   8.044   7.663  0.1647 -0.6236 -0.3599
   30MOL    C4311121   6.412   7.956   7.446 -0.5471 -0.1015 -0.1377
   30MOL    O4411122   6.397   8.076   7.365 -0.2161 -0.5385 -0.6029
   30MOL    C4511123   6.477   8.104   7.258 -0.2068 -0.6484  0.3766
   30MOL    C4611124   6.539   8.011   7.172  0.3678  0.0703 -0.8904
   30MOL    C4711125   6.621   8.054   7.066 -0.1947  0.0130  0.1229
   30MOL    C4811126   6.638   0.024   7.044  0.2491  0.4263  0.4963
   30MOL    C4911127   6.571   0.113   7.127  0.2437  0.4296  0.1626
   30MOL    C5011128   6.483   0.075   7.232  0.3855  0.4574 -0.8097
   30MOL    H5111129   6.627   7.899   7.728 -0.4901  1.3427  2.3940
   30MOL    H5211130   6.617   8.014   7.501 -0.3684  0.9371  1.6345
   30MOL    H5311131   6.324   7.921   7.500  0.4548 -2.2928  0.1145
   30MOL    H5411132   6.438   7.868   7.388 -0.2712  0.3898 -0.7705
   30MOL    H5511133   6.531   7.905   7.193  1.3583  0.2577  0.5475
   30MOL    H5611134   6.673   7.985   7.002  0.6975 -0.2691  1.1365
   30MOL    H5711135   6.705   0.044   6.962  0.4889 -2.3220 -0.0270
   30MOL    H5811136   6.583   0.218   7.104 -2.5385  1.1876  1.9174
   30MOL    C5911137   6.407   0.168   7.319  0.2938 -0.3021 -0.4047
   30MOL    C6011138   6.474   0.286   7.388  0.3903  0.0595  0.1238
   30MOL    O6111139   6.418   0.295   7.255  0.0111  0.0585  0.5913
   30MOL    C6211140   6.623   0.319   7.392  0.1642  0.6981 -0.1800
   30MOL    O6311141   6.698   0.228   7.478 -0.0460 -0.1392  0.2038
   30MOL    C6411142   6.819   0.182   7.432 -0.1424  0.4179  0.9648
   30MOL    C6511143   6.870   0.208   7.305  0.6135 -0.0356 -0.3279
   30MOL    C6611144   6.993   0.156   7.258  0.5164  0.6201  0.7927
   30MOL    C6711145   7.072   0.082   7.353  0.9997  0.8985  0.5050
   30MOL    C6811146   7.022   0.053   7.482 -0.7142 -0.1544  0.1975
   30MOL    C6911147   6.899   0.107   7.525 -0.6685 -0.0827 -0.2047
   30MOL    H7011148   6.304   0.136   7.334 -0.1593  0.4059 -1.9075
   30MOL    H7111149   6.413   0.333   7.465 -0.3367  0.5856 -0.7599
   30MOL    H7211150   6.611   0.422   7.428  2.9732  0.4440  1.6077
   30MOL    H7311151   6.652   0.338   7.288 -0.8532 -1.9620 -0.9948
   30MOL    H7411152   6.817   0.273   7.237  2.6327  2.5131  0.4669
   30MOL    H7511153   7.026   0.179   7.158  0.1103  0.6401  0.6624
   30MOL    H7611154   7.175   0.059   7.331  1.1567  1.4459  0.6611
   30MOL    H7711155   7.089   0.013   7.557  1.3113  2.6973 -0.0162
   30MOL    C7811156   6.845   0.079   7.665  0.8006  0.1090 -0.0701
   30MOL    C7911157   6.867   8.133   7.767  0.2377 -0.7353  0.6133
   30MOL    O8011158   6.954   0.078   7.757 -0.3630  0.1814 -0.6465
   30MOL    C8111159   6.939   8.004   7.740  0.1716 -0.6543 -0.3820
   30MOL    O8211160   6.934   7.977   7.598 -0.5658 -0.3325 -0.1995
   30MOL    C8311161   6.962   7.853   7.559  0.2802  0.7776 -0.8073
   30MOL    C8411162   7.010   7.751   7.640  0.4735  0.1573 -0.0737
   30MOL    C8511163   7.015   7.615   7.590 -0.2999 -0.7496  0.5614
   30MOL    C8611164   6.972   7.584   7.464  0.4401 -0.4071  0.1715
   30MOL    C8711165   6.920   7.691   7.385 -0.7348  0.6286  0.0955
   30MOL    C8811166   6.919   7.822   7.423  0.0904 -0.4063 -0.6400
   30MOL    H8911167   6.771   0.153   7.691  0.7135 -0.2573  0.7205
   30MOL    H9011168   6.800   8.134   7.853 -0.1702  2.0559  0.3031
   30MOL    H9111169   6.889   7.927   7.800  1.8645 -1.5232 -0.0690
   30MOL    H9211170   7.037   8.024   7.782 -0.0397 -2.0332  0.8212
   30MOL    H9311171   7.028   7.768   7.745 -1.2375  1.9947 -0.0564
   30MOL    H9411172   7.047   7.541   7.662  0.1777 -0.5259  0.5874
   30MOL    H9511173   6.976   7.483   7.425 -1.1410  0.8390 -3.3844
   30MOL    H9611174   6.886   7.669   7.285 -0.5064 -2.9961  0.7365
   30MOL    C9711175   6.868   7.927   7.337 -0.2011  0.3170 -0.1772
   30MOL    C9811176   6.931   7.973   7.210  0.1116 -0.3288  0.1782
   30MOL    O9911177   6.826   7.877   7.208 -0.9630  0.5424 -0.2646
   30MOL   C10011178   7.058   7.928   7.151 -0.9159  0.3749 -0.2915
   30MOL   O10111179   7.077   7.974   7.015 -0.5368 -0.2144 -0.4570
   30MOL   C10211180   7.046   7.893   6.907 -0.5865  0.1479 -0.3369
   30MOL   C10311181   6.985   7.767   6.926  0.3849  0.6896 -0.1055
   30MOL   C10411182   6.944   7.685   6.821 -0.0846 -0.5175 -0.3616
   30MOL   C10511183   6.960   7.735   6.692 -0.1084  0.0441  0.3913
   30MOL   C10611184   7.017   7.863   6.670 -0.5808  0.4489 -0.4608
   30MOL   C10711185   7.070   7.942   6.778 -0.2100 -0.2416  0.1008
   30MOL   H10811186   6.794   7.990   7.385  1.1238  0.4419  1.7225
   30MOL   H10911187   6.901   8.077   7.198  1.3712 -0.0281 -0.3817
   30MOL   H11011188   7.071   7.822   7.173  0.2634  0.7285  0.7455
   30MOL   H11111189   7.135   7.985   7.202 -2.1143  1.3015  0.5155
   30MOL   H11211190   6.957   7.737   7.027  0.2115  0.1030 -0.3223
   30MOL   H11311191   6.890   7.593   6.837 -1.3119  0.1245 -0.7530
   30MOL   H11411192   6.913   7.673   6.617  1.3660  0.3838 -0.8416
   30MOL   H11511193   7.019   7.908   6.571  0.0041  1.9141  0.2037
   30MOL   C11611194   7.121   8.088   6.753 -0.5327  0.2919 -0.2917
   30MOL   C11711195   7.248   8.130   6.682  0.1142 -0.0976 -0.0800
   30MOL   O11811196   7.124   8.125   6.610  0.5169  0.2418  0.1413
   30MOL   C11911197   7.362   8.040   6.637 -0.3906 -0.7680  0.0295
   30MOL   O12011198   7.344   7.913   6.699  0.4900 -0.2408 -0.2108
   30MOL   C12111199   7.384   7.907   6.832  0.1265  1.0355 -0.0571
   30MOL   C12211200   7.423   8.017   6.910 -0.0279 -0.7726 -0.2391
   30MOL   C12311201   7.449   8.004   7.048 -0.2093  0.0505 -0.1373
   30MOL   C12411202   7.446   7.881   7.116 -0.0647  0.8691  0.6569
   30MOL   C12511203   7.417   7.768   7.035  0.4642 -1.1722  0.3501
   30MOL   C12611204   7.384   7.777   6.892  0.1490  0.5119  0.1546
   30MOL   H12711205   7.079   8.152   6.830 -0.9340 -0.6089  0.2487
   30MOL   H12811206   7.280   0.060   6.709 -1.4238  0.2231  0.5999
   30MOL   H12911207   7.457   8.086   6.662 -0.6200  0.0184 -0.5083
   30MOL   H13011208   7.361   8.032   6.528 -0.8294 -0.3574 -0.0015
   30MOL   H13111209   7.444   8.115   6.871  0.8917 -0.1551  1.7303
   30MOL   H13211210   7.468   8.093   7.106  1.9509  0.0289 -0.7622
   30MOL   H13311211   7.481   7.879   7.218  2.2890  3.8026 -0.0512
   30MOL   H13411212   7.419   7.665   7.066  4.0428 -1.2010  0.2324
   30MOL   C13511213   7.356   7.650   6.815  0.1297  0.1810  0.1943
   30MOL   C13611214   7.467   7.550   6.771  0.0972  0.1446 -0.6102
   30MOL   O13711215   7.393   7.529   6.885  0.3276 -0.1014 -0.2465
   30MOL   C13811216   7.612   7.581   6.792 -0.5290 -0.6850 -0.5252
   30MOL   O13911217   7.701   7.479   6.744 -0.8498  0.3156  0.2868
   30MOL   C14011218   7.731   7.362   6.804 -0.0894  0.0461  0.1146
   30MOL   C14111219   7.667   7.325   6.923  0.6585 -0.5015 -0.1564
   30MOL   C14211220   7.702   7.214   6.997  0.1734 -1.1406 -0.5141
   30MOL   C14311221   7.804   7.137   6.945 -0.5963 -0.2054 -0.1425
   30MOL   C14411222   7.878   7.179   6.838 -0.4803  0.4491 -0.0175
   30MOL   C14511223   7.845   7.289   6.759  0.3393 -0.1485  0.8817
   30MOL   H14611224   7.256   7.654   6.772  0.2120  0.4935  0.0328
   30MOL   H14711225   7.441   7.482   6.690 -1.4277 -1.9348  1.5458
   30MOL   H14811226   7.632   7.591   6.899 -0.9479  0.8626 -0.5797
   30MOL   H14911227   7.641   7.665   6.728  0.0316 -0.7428 -0.3445
   30MOL   H15011228   7.591   7.389   6.966  3.0253  1.8020  0.7201
   30MOL   H15111229   7.642   7.204   7.086  2.1365 -1.4566  0.7947
   30MOL   H15211230   7.825   7.041   6.990  0.9984  0.3574  0.3410
   30MOL   H15311231   7.963   7.117   6.813 -0.1695  0.5720  0.7227
   30MOL   C15411232   7.933   7.337   6.645  0.2955  0.3539 -0.5688
   30MOL   C15511233   8.049   7.430   6.665 -0.5758 -0.0165  0.1594
   30MOL   O15611234   8.071   7.292   6.651  0.7603 -0.5459 -0.1312
   30MOL   C15711235   8.072   7.497   6.802 -0.1007  0.1819  0.4939
   30MOL   O15811236   0.007   7.590   6.803 -0.2912  0.3626 -0.1577
   30MOL   C15911237   0.121   7.565   6.876  0.0517 -0.6999 -0.0040
   30MOL   C16011238   0.166   7.436   6.892  0.3901  0.6765  0.7555
   30MOL   C16111239   0.280   7.405   6.963  0.0878 -0.4335  0.2503
   30MOL   C16211240   0.344   7.515   7.029 -0.7579  0.8790  0.4031
   30MOL   C16311241   0.298   7.650   7.003  0.4014 -0.4984 -0.0497
   30MOL   C16411242   0.192   7.676   6.919  0.7283 -0.0080  0.0136
   30MOL   H16511243   7.873   7.340   6.554 -0.6645 -1.2428 -0.0046
   30MOL   H16611244   8.085   7.488   6.580 -0.4986  0.3015  0.4069
   30MOL   H16711245   8.067   7.434   6.891  2.1089  1.3894  1.4964
   30MOL   H16811246   7.986   7.564   6.808 -1.8981 -1.9016 -0.6766
   30MOL   H16911247   0.112   7.355   6.846  1.5338  1.0484 -1.3093
   30MOL   H17011248   0.315   7.303   6.974  3.2745  0.6655  0.7815
   30MOL   H17111249   0.434   7.496   7.085 -0.6298 -1.8911 -0.6754
   30MOL   H17211250   0.351   7.730   7.053 -1.3712  2.2095 -2.3965
   30MOL   C17311251   0.134   7.819   6.887  0.1622  0.6758 -0.2263
   30MOL   C17411252   0.077   7.917   6.986  0.7960 -0.0678  0.3224
   30MOL   O17511253   0.211   7.926   6.931 -0.1638 -0.2587 -0.2509
   30MOL   C17611254   0.061   7.893   7.136  0.6167  0.1037  1.6431
   30MOL   O17711255   0.009   7.761   7.154 -0.2605  0.0184 -0.3991
   30MOL   C17811256   8.044   7.732   7.151 -0.1330 -0.3937  0.1056
   30MOL   C17911257   7.939   7.832   7.133 -0.1027  0.5535 -0.2448
   30MOL   C18011258   7.804   7.802   7.126  0.1992 -0.1748  0.4878
   30MOL   C18111259   7.775   7.663   7.130 -0.5925 -0.3204 -0.1979
   30MOL   C18211260   7.869   7.566   7.145  0.1622 -0.1148 -0.2771
   30MOL   C18311261   8.004   7.599   7.161 -0.0418 -0.0185 -0.5050
   30MOL   H18411262   0.110   7.820   6.780 -0.5152 -0.2998 -0.0964
   30MOL   H18511263   0.010   7.993   6.946  1.1170  0.0492  0.0140
   30MOL   H18611264   8.166   7.967   7.184 -1.9621 -1.9445  1.4458
   30MOL   H18711265   0.156   7.904   7.188  1.5640  3.0579 -0.5954
   30MOL   H18811266   7.962   7.937   7.123 -0.1800  0.6332  0.4282
   30MOL   H18911267   7.720   7.868   7.111 -0.7203 -1.3435  0.4007
   30MOL   H19011268   7.674   7.629   7.107 -0.7343  0.6645 -1.0899
   30MOL   H19111269   7.834   7.464   7.149 -1.8054  0.5633  0.0693
   30MOL   C19211270   8.104   7.491   7.190 -0.3245 -0.3984  0.0029
   30MOL   C19311271   8.144   7.453   7.327  0.3644  0.1017 -0.6890
   30MOL   O19411272   8.044   7.377   7.253 -0.4433  0.1106 -0.1485
   30MOL   C19511273   8.096   7.541   7.441  0.4923  0.9687 -0.1995
   30MOL   O19611274   8.130   7.496   7.573 -0.0066  0.1387 -0.0510
   30MOL   C19711275   8.092   7.370   7.596 -0.2671 -0.0089  0.2094
   30MOL   C19811276   7.967   7.322   7.557 -0.0569  0.2252  0.0905
   30MOL   C19911277   7.929   7.186   7.582  0.7860  0.4182 -0.3294
   30MOL   C20011278   8.022   7.097   7.641 -0.4958 -0.0206  0.4049
   30MOL   C20111279   8.154   7.144   7.686  0.3365 -0.3495 -0.1268
   30MOL   C20211280   0.016   7.280   7.666 -0.1542 -0.1041  0.5615
   30MOL   H20311281   8.166   7.462   7.106 -0.0789  0.6426 -0.1804
   30MOL   H20411282   0.073   7.409   7.330  0.3540  0.1528  1.1160
   30MOL   H20511283   7.989   7.561   7.426  0.7354  2.1810 -0.3900
   30MOL   H20611284   8.135   7.641   7.427 -0.4972  1.0245 -3.0755
   30MOL   H20711285   7.898   7.399   7.526 -0.7340  0.5556  2.3260
   30MOL   H20811286   7.826   7.168   7.555  0.7251  2.5039 -1.6156
   30MOL   H20911287   8.001   6.992   7.659  0.3938 -0.3094 -0.2539
   30MOL   H21011288   0.055   7.086   7.743  0.0366 -0.5560  0.0407
   30MOL   C21111289   0.152   7.335   7.707 -0.4539 -0.3061 -0.4348
   30MOL   C21211290   0.226   7.310   7.838  0.6230  0.3695 -0.1620
   30MOL   O21311291   0.247   7.227   7.724 -0.0218 -0.4639  0.3454
   30MOL   C21411292   0.168   7.243   7.958 -0.1335 -0.3899  0.5604
   30MOL   O21511293   0.251   7.266   8.069 -0.5612 -0.2498 -0.2633
   30MOL   C21611294   0.193   7.265   0.024  0.8047 -0.4026  0.3210
   30MOL   C21711295   0.099   7.162   0.055  0.1897 -0.2967 -0.2632
   30MOL   C21811296   0.044   7.156   0.187  0.9578 -1.2175  0.0456
   30MOL   C21911297   0.085   7.249   0.286 -0.0935  0.3796  0.2956
   30MOL   C22011298   0.165   7.358   0.246  0.1115 -0.0864 -0.1627
   30MOL   C22111299   0.227   7.364   0.118  0.0122  0.4047  0.2599
   30MOL   H22211300   0.190   7.397   7.627 -0.6243  1.4682  0.8319
   30MOL   H22311301   0.295   7.387   7.870 -1.1460  1.2794  1.5868
   30MOL   H22411302   0.160   7.135   7.944 -0.7570 -0.2695 -0.0711
   30MOL   H22511303   0.069   7.289   7.956  0.4323  0.7985 -0.2282
   30MOL   H22611304   0.074   7.088   8.150 -2.1444 -0.3846  0.5626
   30MOL   H22711305   8.149   7.071   0.204 -0.8009  0.2358  0.7847
   30MOL   H22811306   0.043   7.242   0.385  0.4062  0.2226  0.5020
   30MOL   H22911307   0.191   7.430   0.322  3.1206  0.1085 -1.2959
   30MOL   C23011308   0.331   7.470   0.082 -0.4609 -0.0966 -0.3794
   30MOL   C23111309   0.291   7.596   0.004 -0.7247  0.7082  0.2932
   30MOL   O23211310   0.308   7.593   0.141  0.1996 -0.0934  0.1130
   30MOL   C23311311   0.153   7.620   8.117 -0.0113  0.1936 -0.4728
   30MOL   O23411312   0.110   7.759   8.124 -0.0697 -0.2104  0.8307
   30MOL   C23511313   0.049   7.804   0.069 -0.1381  0.2443  0.3890
   30MOL   C23611314   0.020   7.729   0.188  0.1292  0.3495  0.1491
   30MOL   C23711315   8.127   7.789   0.298 -0.1098 -0.3222  0.0125
   30MOL   C23811316   8.102   7.923   0.298 -0.0236  0.1023  0.0755
   30MOL   C23911317   8.129   8.001   0.184  0.4756  0.2914  0.5182
   30MOL   C24011318   0.025   7.943   0.070  1.1122 -0.0166  0.0916
   30MOL   H24111319   0.434   7.436   0.070  0.4137  1.3349  2.5398
   30MOL   H24211320   0.370   7.649   8.121 -0.9863  0.5040 -0.3119
   30MOL   H24311321   0.087   7.555   0.005  2.4902  1.6576  4.3872
   30MOL   H24411322   0.145   7.585   8.014  0.2017 -0.3009 -0.3231
   30MOL   H24511323   0.029   7.622   0.181 -0.3671  0.2692  0.7119
   30MOL   H24611324   8.093   7.733   0.384 -0.3197 -1.4858 -0.8139
   30MOL   H24711325   8.058   7.973   0.383  1.2839 -1.4694  1.7116
   30MOL   H24811326   8.100   8.105   0.187  0.4481  0.4730 -3.2466
   30MOL   C24911327   0.056   8.030   8.125 -0.2200  0.5696 -0.3722
   30MOL   C25011328   8.148   8.034   7.996  0.0956 -0.2391  0.0438
   30MOL   O25111329   8.126   8.127   8.101 -0.0709 -0.0985 -0.2582
   30MOL   C25211330   8.031   7.940   7.952  0.4381  0.4509 -0.2229
   30MOL   O25311331   7.968   7.986   7.834 -0.1787 -0.3288  0.2624
   30MOL   C25411332   7.920   8.114   7.834 -0.0872  0.3086 -0.0407
   30MOL   C25511333   7.869   0.013   7.948 -0.4080  0.3111  0.6578
   30MOL   C25611334   7.831   0.151   7.947  0.5967 -0.6231  0.0619
   30MOL   C25711335   7.834   0.220   7.822 -0.5631 -0.2509 -0.0448
   30MOL   C25811336   7.888   0.147   7.711  0.3182 -0.0293  0.1561
   30MOL   C25911337   7.930   0.015   7.716  0.5147 -0.4436 -0.5913
   30MOL   H26011338   0.160   8.058   8.112  0.0617  0.4576  1.6201
   30MOL   H26111339   0.035   8.073   7.912 -1.0375  0.2807 -0.4954
   30MOL   H26211340   7.961   7.921   8.033 -1.2470  1.8229 -1.3292
   30MOL   H26311341   8.064   7.837   7.936  1.8106  0.5624  1.6997
   30MOL   H26411342   7.860   8.129   8.041 -0.2814 -1.8498 -0.5460
   30MOL   H26511343   7.790   0.189   8.039 -0.0050 -0.1082 -0.4064
   30MOL   H26611344   7.803   0.323   7.812  2.1978  0.5912 -0.4806
   30MOL   H26711345   7.905   0.202   7.620 -0.1423  1.2731  0.8544
   30MOL   C26811346   7.986   8.125   7.591  0.4453  0.2151  0.0545
   30MOL   C26911347   7.904   8.064   7.476 -0.0705  0.0851 -0.8090
   30MOL   O27011348   7.953   0.027   7.471 -0.1105 -0.1404  0.1228
   30MOL   C27111349   7.752   8.056   7.477 -0.2420 -0.4159 -0.4625
   30MOL   O27211350   7.726   7.936   7.549  0.1361  0.3073  0.5840
   30MOL   C27311351   7.603   7.881   7.509 -0.1952  0.1111 -0.1404
   30MOL   C27411352   7.491   7.960   7.493 -0.1159 -0.0572  0.1260
   30MOL   C27511353   7.368   7.896   7.463  0.2661 -0.0638  0.4787
   30MOL   C27611354   7.351   7.761   7.447 -0.1593 -0.4631 -0.3743
   30MOL   C27711355   7.468   7.682   7.449 -0.1529  0.4039  0.0677
   30MOL   C27811356   7.589   7.740   7.495 -0.0697 -0.8286  0.0156
   30MOL   H27911357   8.093   8.105   7.599  0.8714  2.5988  0.5148
   30MOL   H28011358   7.949   7.993   7.407  0.2324 -1.2342  0.7305
   30MOL   H28111359   7.714   8.053   7.375 -1.0645 -0.6502 -0.1552
   30MOL   H28211360   7.703   8.137   7.532 -1.6026 -1.2415 -0.4309
   30MOL   H28311361   7.490   8.066   7.512 -1.0569  0.0836 -0.6614
   30MOL   H28411362   7.281   7.961   7.463 -0.2404 -0.7382  0.5433
   30MOL   H28511363   7.251   7.731   7.420 -0.0706  0.0800 -1.3380
   30MOL   H28611364   7.465   7.575   7.459  0.1568  0.3828 -0.0697
   30MOL   C28711365   7.715   7.659   7.518 -1.1244 -0.6237  0.0489
   30MOL   C28811366   7.771   7.603   7.648 -0.5635 -0.4037 -0.2890
   30MOL   O28911367   7.690   7.521   7.563  0.1710  0.0086 -0.7378
   30MOL   C29011368   7.703   7.633   7.779 -0.0270 -0.6572  0.0778
   30MOL   O29111369   7.786   7.596   7.891  0.4240 -0.1804 -0.4044
   30MOL   C29211370   7.813   7.464   7.917  0.2245  0.1377 -0.3708
   30MOL   C29311371   7.757   7.352   7.845 -0.1554  0.3294  0.7961
   30MOL   C29411372   7.791   7.223   7.897  0.6205 -0.6218 -0.2318
   30MOL   C29511373   7.871   7.196   8.002 -0.1098  0.4245  0.8566
   30MOL   C29611374   7.937   7.310   8.064  0.0471  0.7386 -0.8520
   30MOL   C29711375   7.902   7.441   8.023  0.6696  0.1486  0.4569
   30MOL   H29811376   7.766   7.667   7.423 -0.6313 -2.4875  0.1483
   30MOL   H29911377   7.876   7.575   7.640 -0.7442 -1.3624  0.5300
   30MOL   H30011378   7.604   7.588   7.781  0.3692 -1.5728 -0.6921
   30MOL   H30111379   7.687   7.741   7.786 -0.7401 -0.8385  1.4309
   30MOL   H30211380   7.681   7.367   7.770 -0.3171  1.2692  1.1320
   30MOL   H30311381   7.750   7.139   7.843  0.5106 -0.0296 -1.0801
   30MOL   H30411382   7.905   7.099   8.035  0.7840  0.4791  0.1155
   30MOL   H30511383   8.012   7.297   8.140 -0.5444 -1.9731 -0.7126
   30MOL   C30611384   7.968   7.553   8.094 -0.3771 -0.7844  0.2982
   30MOL   C30711385   7.916   7.618   0.050  0.4650 -0.0950  0.3015
   30MOL   O30811386   8.015   7.520   0.057  0.3146 -0.3762  0.1796
   30MOL   C30911387   7.782   7.583   0.113 -0.1661 -0.8345  0.0054
   30MOL   O31011388   7.767   7.664   0.236 -0.1979 -0.1599  0.2980
   30MOL   C31111389   7.818   7.619   0.355  0.2775 -0.2016  0.2506
   30MOL   C31211390   7.873   7.491   0.377 -0.3187 -0.1945  0.2398
   30MOL   C31311391   7.932   7.455   0.496  0.4194 -0.0406  0.6813
   30MOL   C31411392   7.930   7.542   0.604 -0.5611  0.5325 -0.4031
   30MOL   C31511393   7.883   7.674   0.586 -0.5617  0.6960 -0.0432
   30MOL   C31611394   7.825   7.709   0.462  0.5264  0.0297 -0.6685
   30MOL   H31711395   8.045   7.597   8.031 -0.1083 -1.9736 -0.2240
   30MOL   H31811396   7.951   7.718   0.074  1.4001 -0.4405  0.4059
   30MOL   H31911397   7.771   7.476   0.134 -0.7280 -1.2676 -2.4180
   30MOL   H32011398   7.696   7.612   0.054  0.3076  1.1130  0.2459
   30MOL   H32111399   7.864   7.415   0.301  0.1941 -0.8937  0.8747
   30MOL   H32211400   7.965   7.352   0.504 -1.1007 -0.5941  0.0493
   30MOL   H32311401   7.961   7.518   0.705 -0.7629 -1.7377 -0.8445
   30MOL   H32411402   7.887   7.733   0.676 -0.6943  1.0170 -0.2467
   30MOL   C32511403   7.768   7.850   0.439  0.5949 -0.1310  0.4389
   30MOL   C32611404   7.620   7.890   0.469 -0.0277  0.0513  0.7146
   30MOL   O32711405   7.731   7.918   0.559  0.1620  0.2313 -0.1267
   30MOL   C32811406   7.526   7.792   0.524  0.7076 -0.1737 -0.8471
   30MOL   O32911407   7.415   7.743   0.434  0.3756 -0.4682 -0.2482
   30MOL   C33011408   7.327   7.845   0.396 -0.0743  0.2336  0.7399
   30MOL   C33111409   7.286   7.950   0.477 -0.2259 -0.9930 -0.7378
   30MOL   C33211410   7.205   8.055   0.420 -0.0704  0.3855 -0.0629
   30MOL   C33311411   7.152   8.042   0.297  0.2455  0.3332 -0.0193
   30MOL   C33411412   7.196   7.935   0.217  0.3022 -0.3273 -0.1742
   30MOL   C33511413   7.283   7.835   0.263 -0.1640 -0.3599  0.5463
   30MOL   H33611414   7.825   7.913   0.370 -2.3282 -0.2943 -2.2673
   30MOL   H33711415   7.590   7.979   0.414 -1.0970 -1.6702 -1.5535
   30MOL   H33811416   7.498   7.831   0.622  2.1164 -0.1895 -0.4242
   30MOL   H33911417   7.579   7.702   0.555  2.3542  0.9786 -0.2174
   30MOL   H34011418   7.318   7.942   0.580 -2.8662  1.5742  0.3398
   30MOL   H34111419   7.172   8.133   0.487  1.5671  0.1003  1.1167
   30MOL   H34211420   7.079   8.112   0.258 -0.5204 -0.6595 -0.4103
   30MOL   H34311421   7.171   7.932   0.112  2.4171  0.4544 -0.7184
   30MOL   C34411422   7.337   7.723   0.177  0.3203  0.3828  0.2798
   30MOL   C34511423   7.249   7.615   0.128 -0.0347 -0.8577  0.0430
   30MOL   O34611424   7.280   7.728   0.045 -0.4695 -0.2949 -0.2678
   30MOL   C34711425   7.108   7.612   0.180 -0.6560 -0.3827  0.4525
   30MOL   O34811426   7.039   7.523   0.100  0.0009  0.6201 -0.4391
   30MOL   C34911427   6.905   7.493   0.128 -0.9149 -0.0470  0.5771
   30MOL   C35011428   6.826   7.573   0.222  0.4008  0.1387 -0.0519
   30MOL   C35111429   6.686   7.546   0.234 -0.0694  0.1613  0.3494
   30MOL   C35211430   6.625   7.452   0.147  0.1026 -0.2117 -0.4024
   30MOL   C35311431   6.704   7.369   0.066 -0.2526 -0.1443 -0.8766
   30MOL   C35411432   6.842   7.390   0.053  0.6942  0.8157  0.4879
   30MOL   H35511433   7.445   7.709   0.182  0.3978  0.7658 -0.3078
   30MOL   H35611434   7.300   7.521   0.108 -0.4891 -1.0450 -0.2304
   30MOL   H35711435   7.063   7.708   0.203 -1.1023 -0.3628 -0.4825
   30MOL   H35811436   7.112   7.570   0.281 -2.1098 -0.0514  0.6605
   30MOL   H35911437   6.864   7.666   0.262  1.6026  0.0065 -0.8685
   30MOL   H36011438   6.621   7.611   0.292  2.1579  1.8281  1.0511
   30MOL   H36111439   6.520   7.428   0.140  0.7199 -2.9315 -0.6278
   30MOL   H36211440   6.656   7.286   0.017 -2.4229  1.0270 -0.8050
   30MOL   C36311441   6.920   7.300   8.128 -0.2052  0.1119  0.1192
   30MOL   C36411442   6.960   7.159   8.154  0.3706  0.4347 -0.4959
   30MOL   O36511443   6.841   7.190   8.083 -0.0695  0.0444 -0.8418
   30MOL   C36611444   6.947   7.098   0.124 -0.4651 -0.8130  0.6250
   30MOL   O36711445   6.984   6.962   0.098  0.4734  0.0529  0.8051
   30MOL   C36811446   7.000   6.872   0.199 -0.5665 -0.0234 -0.1745
   30MOL   C36911447   7.068   6.750   0.168  0.6796 -0.0644 -0.1723
   30MOL   C37011448   7.095   6.652   0.268 -0.0588 -0.8186 -0.1772
   30MOL   C37111449   7.064   6.681   0.401  0.3132  0.1339 -0.4407
   30MOL   C37211450   6.989   6.795   0.436  0.6150  0.1077  0.0620
   30MOL   C37311451   6.964   6.892   0.341  0.1393  0.1760 -0.1900
   30MOL   H37411452   6.951   7.359   8.042  2.3428 -0.7852  0.3776
   30MOL   H37511453   7.032   7.111   8.089  0.4000 -0.1537 -0.0350
   30MOL   H37611454   6.849   7.104   0.171 -1.5868 -0.6438 -1.6782
   30MOL   H37711455   7.013   7.145   0.197  0.4988  1.1025 -1.4202
   30MOL   H37811456   7.095   6.737   0.064 -1.8316 -1.9635 -0.6548
   30MOL   H37911457   7.145   6.559   0.246  1.5416 -0.0454  0.1129
   30MOL   H38011458   7.080   6.609   0.480  0.5731  0.2431 -0.3932
   30MOL   H38111459   6.965   6.809   0.540 -0.0352 -2.0239  0.2293
   30MOL   H38211460   6.922   6.987   0.372 -0.8519 -0.1725 -0.4655
   31MOL     C111461   2.046   4.326   6.610 -0.3416  0.0879  0.7501
   31MOL     C211462   2.129   4.455   6.615  0.4084  0.0284  0.8105
   31MOL     O311463   2.108   4.371   6.731  0.3738  0.1091  0.1011
   31MOL     C411464   2.086   4.600   6.628 -0.3303  0.0056 -0.0043
   31MOL     O511465   2.186   4.668   6.706 -0.1094 -0.3593  0.1942
   31MOL     C611466   2.271   4.751   6.638  0.1553  0.2262  0.4839
   31MOL     C711467   2.296   4.748   6.498 -0.6799 -0.9385  0.3883
   31MOL     C811468   2.392   4.829   6.444 -0.2424 -0.6570 -0.0006
   31MOL     C911469   2.472   4.912   6.525 -0.2986 -0.4625  0.2443
   31MOL    C1011470   2.450   4.912   6.659  0.1626 -0.1902 -0.1348
   31MOL    C1111471   2.347   4.839   6.716 -0.6197 -0.6928 -0.1581
   31MOL    H1211472   2.098   4.238   6.573 -0.0506  0.6818 -0.2600
   31MOL    H1311473   2.225   4.445   6.565  0.4185 -0.2272  0.8810
   31MOL    H1411474   1.987   4.610   6.671 -2.0648 -0.5207 -3.6317
   31MOL    H1511475   2.068   4.633   6.525  1.9950  3.4321  0.6187
   31MOL    H1611476   2.247   4.679   6.431  0.1580  2.2025 -3.5973
   31MOL    H1711477   2.419   4.816   6.340  4.8343 -0.5619  1.1294
   31MOL    H1811478   2.542   4.980   6.479 -0.2303  0.1392  1.2274
   31MOL    H1911479   2.509   4.982   6.716 -0.7093  0.4319  0.0109
   31MOL    H2011480   1.939   4.341   6.607 -0.4735 -0.8547  0.6504
   31MOL    C2111481   2.323   4.840   6.862 -0.6391  0.2551  0.3887
   31MOL    C2211482   2.381   4.737   6.957  0.7807  0.3127 -0.1400
   31MOL    O2311483   2.444   4.865   6.936  0.4986  0.7997 -0.2793
   31MOL    C2411484   2.472   4.620   6.912 -0.4002  0.1072 -0.0553
   31MOL    O2511485   2.539   4.570   7.034 -0.5183  0.0264 -0.3780
   31MOL    C2611486   2.623   4.465   7.033  0.0832  0.2186 -0.4215
   31MOL    C2711487   2.662   4.401   6.918  0.1175  0.6406 -0.0842
   31MOL    C2811488   2.759   4.297   6.925 -0.6339 -0.0240  0.1726
   31MOL    C2911489   2.810   4.263   7.051 -0.6470  0.0847 -0.4630
   31MOL    C3011490   2.769   4.327   7.173 -0.4099  1.0108  0.6875
   31MOL    C3111491   2.669   4.429   7.165  0.8130  0.0877  0.8039
   31MOL    H3211492   2.251   4.914   6.896 -0.2806 -0.2210  2.2361
   31MOL    H3311493   2.310   4.718   7.037  0.0497  2.3448 -0.2870
   31MOL    H3411494   2.540   4.664   6.839  1.9543 -1.3545  1.1598
   31MOL    H3511495   2.406   4.543   6.872 -0.5487  0.0780  0.2400
   31MOL    H3611496   2.617   4.430   6.825 -1.2019 -0.0534  0.3147
   31MOL    H3711497   2.804   4.255   6.836  0.6220  2.0202 -0.1882
   31MOL    H3811498   2.883   4.186   7.066  0.0835  0.8629  0.0493
   31MOL    H3911499   2.810   4.283   7.262  0.4514  1.7397  0.6682
   31MOL    C4011500   2.602   4.488   7.281 -0.4068  0.2176  0.5321
   31MOL    C4111501   2.476   4.435   7.351 -0.5553  0.2395  0.2790
   31MOL    O4211502   2.615   4.410   7.396  0.2318  0.1826 -0.3024
   31MOL    C4311503   2.406   4.308   7.311  0.0227  0.5896  0.4536
   31MOL    O4411504   2.290   4.338   7.238 -0.0380  0.2127 -0.3655
   31MOL    C4511505   2.162   4.373   7.290 -0.6707 -0.0751 -0.0727
   31MOL    C4611506   2.144   4.390   7.427 -0.1778 -0.2543 -0.7269
   31MOL    C4711507   2.017   4.386   7.482  0.4278 -0.1945  0.7821
   31MOL    C4811508   1.905   4.397   7.400 -0.1435  0.0003  0.6205
   31MOL    C4911509   1.925   4.383   7.258  0.8108  0.5312 -1.1817
   31MOL    C5011510   2.053   4.366   7.203  0.1428  0.3021 -0.9157
   31MOL    H5111511   2.630   4.592   7.299  0.6356  0.2747 -1.2634
   31MOL    H5211512   2.424   4.500   7.422  0.6675 -0.7424  2.1378
   31MOL    H5311513   2.391   4.240   7.395  1.3109 -0.5800 -0.2415
   31MOL    H5411514   2.468   4.244   7.248  1.4499  1.8355  0.5643
   31MOL    H5511515   2.229   4.378   7.493 -0.0025  0.6476 -0.7833
   31MOL    H5611516   2.009   4.398   7.589 -0.8122  0.6743  0.6047
   31MOL    H5711517   1.808   4.398   7.447 -0.4452  3.2279  0.0264
   31MOL    H5811518   1.842   4.385   7.188  0.9065  2.2910 -1.2833
   31MOL    C5911519   2.079   4.337   7.058 -0.2957  0.3277  0.0737
   31MOL    C6011520   2.100   4.198   6.999 -0.7665 -0.3218 -0.0565
   31MOL    O6111521   1.968   4.256   7.006 -0.6074  0.4610  0.3449
   31MOL    C6211522   2.112   4.084   7.086  0.4938  0.3697 -0.5028
   31MOL    O6311523   2.091   3.974   6.999  0.4102  0.0574  0.1233
   31MOL    C6411524   2.042   3.853   7.049  0.7645  0.3939 -0.7543
   31MOL    C6511525   1.953   3.841   7.157 -0.1925  0.7811  0.1361
   31MOL    C6611526   1.891   3.719   7.188  0.0264 -0.1743 -0.0264
   31MOL    C6711527   1.929   3.605   7.115  0.1521 -0.4754 -0.3525
   31MOL    C6811528   2.019   3.612   7.008  0.6359  1.1634  0.5281
   31MOL    C6911529   2.073   3.734   6.971 -0.5052 -0.0148  0.0557
   31MOL    H7011530   2.121   4.425   7.010  0.5143 -0.1149 -0.0331
   31MOL    H7111531   2.143   4.190   6.899  1.8678 -1.1325  1.0980
   31MOL    H7211532   2.040   4.088   7.167  0.8748  0.0697 -0.1428
   31MOL    H7311533   2.216   4.074   7.119  0.1458  1.5975  0.9946
   31MOL    H7411534   1.928   3.919   7.227 -1.0850 -0.9169  1.7689
   31MOL    H7511535   1.815   3.718   7.265 -0.7432 -0.6590 -0.7712
   31MOL    H7611536   1.879   3.514   7.143 -0.2830  0.1095  0.8264
   31MOL    H7711537   2.048   3.527   6.947 -0.2660 -0.0770  1.7930
   31MOL    C7811538   2.159   3.747   6.846 -0.9912 -0.3432  0.4837
   31MOL    C7911539   2.307   3.797   6.843  0.0322 -0.0572  0.8057
   31MOL    O8011540   2.269   3.658   6.862  0.1397  0.0618 -0.4245
   31MOL    C8111541   2.391   3.862   6.958  0.2751  0.0036  0.1473
   31MOL    O8211542   2.531   3.827   6.948 -0.2316  0.2329 -0.3580
   31MOL    C8311543   2.620   3.867   7.040  0.0258 -0.0735 -0.8026
   31MOL    C8411544   2.579   3.957   7.145  0.5738  0.0969 -0.2011
   31MOL    C8511545   2.665   3.998   7.244  0.5404 -0.4801  0.4770
   31MOL    C8611546   2.803   3.967   7.239 -0.3933 -0.3950  0.6548
   31MOL    C8711547   2.848   3.886   7.131  0.1586 -0.4348  0.0685
   31MOL    C8811548   2.754   3.836   7.031  0.3924 -0.3963 -0.1014
   31MOL    H8911549   2.108   3.730   6.751 -0.4062  0.6656 -0.0251
   31MOL    H9011550   2.355   3.817   6.747 -0.2640 -0.6576  0.5315
   31MOL    H9111551   2.349   3.838   7.056 -0.1526  0.7965  0.1631
   31MOL    H9211552   2.384   3.971   6.954 -2.1652 -0.1256 -0.3196
   31MOL    H9311553   2.478   3.985   7.171  0.2268 -0.6938 -0.6860
   31MOL    H9411554   2.615   4.055   7.321 -4.0678 -0.8154 -2.0736
   31MOL    H9511555   2.870   4.004   7.315 -0.4537 -0.0081  0.5176
   31MOL    H9611556   2.954   3.871   7.117  0.3758 -0.1380  1.4092
   31MOL    C9711557   2.790   3.748   6.917 -0.1242  0.0772 -0.2077
   31MOL    C9811558   2.858   3.791   6.783 -0.0203  0.5122  0.1557
   31MOL    O9911559   2.931   3.743   6.900 -0.5984 -0.2591 -0.2721
   31MOL   C10011560   2.867   3.937   6.744  0.7166  0.0947  0.2542
   31MOL   O10111561   2.787   3.954   6.625  0.3926 -0.0367  0.1982
   31MOL   C10211562   2.650   3.989   6.640  0.3710 -0.7395 -0.5354
   31MOL   C10311563   2.591   4.067   6.749 -0.4325 -0.5214 -0.1960
   31MOL   C10411564   2.467   4.127   6.743  0.5871  0.0411 -0.7122
   31MOL   C10511565   2.387   4.087   6.637  0.4730  0.3590 -0.1995
   31MOL   C10611566   2.429   3.994   6.541 -0.4666 -0.0346 -0.5497
   31MOL   C10711567   2.559   3.946   6.542  0.1391  0.0268  0.2987
   31MOL   H10811568   2.755   3.646   6.925  0.4421 -0.1191 -0.1985
   31MOL   H10911569   2.862   3.717   6.704 -0.1202  5.3293 -4.6595
   31MOL   H11011570   2.967   3.956   6.705  1.3310  1.3185  2.3139
   31MOL   H11111571   2.840   4.003   6.827  0.1337 -0.9658  0.9207
   31MOL   H11211572   2.646   4.091   6.839 -1.7576  3.2198 -0.3078
   31MOL   H11311573   2.428   4.187   6.823  1.6806  2.8640 -2.2244
   31MOL   H11411574   2.284   4.121   6.631  0.4653  0.9315  2.6297
   31MOL   H11511575   2.364   3.957   6.464 -1.7187 -1.2272  1.0299
   31MOL   C11611576   2.612   3.850   6.431 -0.1448 -0.2943 -0.7308
   31MOL   C11711577   2.602   3.702   6.451 -0.0232 -0.1432 -0.2506
   31MOL   O11811578   2.512   3.772   6.361  0.7064  0.2545  0.8503
   31MOL   C11911579   2.533   3.640   6.576 -0.2655 -0.0167  0.1351
   31MOL   O12011580   2.529   3.505   6.571  0.0621  0.6509 -0.8395
   31MOL   C12111581   2.641   3.445   6.627 -0.0053 -0.2926  0.0797
   31MOL   C12211582   2.775   3.458   6.582 -0.0671  0.5014  0.2225
   31MOL   C12311583   2.883   3.403   6.648  0.0377 -0.4620 -0.4971
   31MOL   C12411584   2.850   3.335   6.767 -0.2322  0.4263  0.0061
   31MOL   C12511585   2.722   3.318   6.816  0.9990 -0.4610 -0.1331
   31MOL   C12611586   2.616   3.371   6.746  0.0558 -0.2797 -0.4228
   31MOL   H12711587   2.690   3.896   6.371 -1.4984  2.4540 -0.4619
   31MOL   H12811588   2.672   3.638   6.397 -1.2278  0.0052 -2.0439
   31MOL   H12911589   2.428   3.665   6.583 -0.6468 -1.5127 -0.0807
   31MOL   H13011590   2.579   3.668   6.671 -0.1065 -0.2922  0.1398
   31MOL   H13111591   2.808   3.513   6.496 -0.9309 -0.0219 -0.4478
   31MOL   H13211592   2.984   3.393   6.611  0.9925  0.8933  1.6298
   31MOL   H13311593   2.937   3.291   6.814 -0.3351  0.1574 -0.0568
   31MOL   H13411594   2.705   3.249   6.897 -0.0255  0.2879  0.3027
   31MOL   C13511595   2.472   3.355   6.792 -0.7518  0.6452  0.3632
   31MOL   C13611596   2.376   3.264   6.715 -0.7017 -0.2263  0.2875
   31MOL   O13711597   2.449   3.213   6.829 -0.1660  0.3999 -0.0420
   31MOL   C13811598   2.421   3.182   6.593  0.3447 -1.0922 -0.3761
   31MOL   O13911599   2.311   3.114   6.533 -0.5553  0.0103 -0.3573
   31MOL   C14011600   2.224   3.189   6.455 -0.3093 -0.6330  0.0758
   31MOL   C14111601   2.237   3.329   6.426 -0.6012 -0.2257 -0.0953
   31MOL   C14211602   2.132   3.405   6.372  0.3019  0.2191  1.2183
   31MOL   C14311603   2.020   3.329   6.319  0.5760  0.4949 -0.2329
   31MOL   C14411604   2.006   3.187   6.344 -0.3734  0.8186  0.7493
   31MOL   C14511605   2.110   3.121   6.408 -0.7380  1.1414 -0.1998
   31MOL   H14611606   2.451   3.428   6.870 -1.8969  0.2582  0.4392
   31MOL   H14711607   2.269   3.259   6.732 -0.9055 -1.2906 -1.2734
   31MOL   H14811608   2.485   3.099   6.621  2.5830  1.2574  1.7202
   31MOL   H14911609   2.484   3.244   6.529 -1.0530  0.7935  0.0321
   31MOL   H15011610   2.323   3.386   6.456  0.2462 -0.2460 -2.3939
   31MOL   H15111611   2.135   3.511   6.356 -1.1603  0.3931  2.0357
   31MOL   H15211612   1.951   3.384   6.257 -0.0160  0.1209  0.0808
   31MOL   H15311613   1.920   3.126   6.318  0.2123  0.7210 -1.0443
   31MOL   C15411614   2.106   2.968   6.433  0.0415 -0.9603 -0.4299
   31MOL   C15511615   2.034   2.909   6.555  0.6751 -0.2088  0.2550
   31MOL   O15611616   1.971   2.910   6.431 -0.0203 -0.1355 -0.0014
   31MOL   C15711617   1.963   3.002   6.651 -0.4857 -0.3955 -0.3755
   31MOL   O15811618   1.935   2.947   6.780 -0.7173 -0.4148 -0.2156
   31MOL   C15911619   1.907   3.029   6.881  0.6896  0.7286 -0.2336
   31MOL   C16011620   1.881   3.171   6.860  0.0209  0.3024 -0.7999
   31MOL   C16111621   1.840   3.250   6.968 -0.0528 -0.0396 -1.1326
   31MOL   C16211622   1.833   3.196   7.099  0.3950  0.1152  0.0233
   31MOL   C16311623   1.867   3.057   7.122 -0.2067 -0.4318  0.0657
   31MOL   C16411624   1.905   2.978   7.016  0.1166  1.4170 -0.4487
   31MOL   H16511625   2.188   2.913   6.389  1.3394 -0.5929  1.4773
   31MOL   H16611626   2.060   2.808   6.585 -1.6389 -1.4970 -1.9522
   31MOL   H16711627   1.886   3.058   6.598  0.4578  0.8178 -0.4899
   31MOL   H16811628   2.048   3.062   6.682  1.0036 -2.1749 -0.9011
   31MOL   H16911629   1.885   3.219   6.763  1.3339  0.6706 -0.5627
   31MOL   H17011630   1.816   3.356   6.968  0.5130  0.0958  0.0292
   31MOL   H17111631   1.805   3.256   7.184  1.0725  0.2128  0.1802
   31MOL   H17211632   1.861   3.019   7.223  1.8649 -0.6894  0.1002
   31MOL   C17311633   1.917   2.828   7.052 -0.2333 -0.2115 -0.0483
   31MOL   C17411634   2.057   2.774   7.094 -0.1794  0.8949  0.7139
   31MOL   O17511635   1.949   2.798   7.184 -0.4648  0.1270 -0.1003
   31MOL   C17611636   2.180   2.866   7.097  0.1645  0.1205  0.4383
   31MOL   O17711637   2.275   2.814   7.192  0.0347  0.2061 -0.3347
   31MOL   C17811638   2.377   2.899   7.219  0.4308  0.4699 -0.1395
   31MOL   C17911639   2.457   2.955   7.119  0.2497 -0.7951  0.4346
   31MOL   C18011640   2.548   3.050   7.149  0.4539  0.2976  0.9514
   31MOL   C18111641   2.569   3.092   7.279 -0.1842 -0.0115 -0.6732
   31MOL   C18211642   2.505   3.031   7.385 -0.8375  0.3708  0.2598
   31MOL   C18311643   2.406   2.936   7.355  0.9988  0.2616  0.3859
   31MOL   H18411644   1.856   2.761   6.992 -1.0913 -0.3616  0.9925
   31MOL   H18511645   2.080   2.670   7.074  0.2180  1.0980  0.0981
   31MOL   H18611646   2.152   2.967   7.126 -0.3050 -0.6798  2.8890
   31MOL   H18711647   2.226   2.869   6.998 -1.0743  1.3842 -0.1026
   31MOL   H18811648   2.449   2.930   7.015  1.7910  0.9344 -0.1390
   31MOL   H18911649   2.611   3.081   7.066  0.3913 -3.5549 -0.6045
   31MOL   H19011650   2.649   3.160   7.302  1.3461 -1.7261 -0.8429
   31MOL   H19111651   2.519   3.072   7.484  3.3295  1.1477 -0.5649
   31MOL   C19211652   2.316   2.889   7.469 -0.0952 -0.3797 -0.1364
   31MOL   C19311653   2.311   2.751   7.536 -0.0708  0.6799  0.9568
   31MOL   O19411654   2.379   2.861   7.592  0.4970  0.5876  0.3340
   31MOL   C19511655   2.417   2.642   7.513 -0.4582  0.8767  0.5328
   31MOL   O19611656   2.353   2.530   7.457 -0.7528  0.4127 -0.3275
   31MOL   C19711657   2.437   2.432   7.414 -0.7706  0.2035  0.0384
   31MOL   C19811658   2.565   2.418   7.463  0.4426  0.1484 -0.5953
   31MOL   C19911659   2.645   2.314   7.424  0.1358  0.8934  0.7338
   31MOL   C20011660   2.592   2.215   7.335  0.1416 -0.4948  0.9657
   31MOL   C20111661   2.464   2.230   7.280  0.4920  0.1825  0.1789
   31MOL   C20211662   2.389   2.344   7.319 -0.5164  0.1849  0.4340
   31MOL   H20311663   2.235   2.958   7.491  0.5982  0.3915  0.0192
   31MOL   H20411664   2.229   2.715   7.598  0.2623  0.1506  1.0913
   31MOL   H20511665   2.461   2.624   7.611  1.3032 -0.7067 -0.5271
   31MOL   H20611666   2.499   2.684   7.455 -0.4535  1.1800  0.7643
   31MOL   H20711667   2.591   2.472   7.553  0.1140  0.6102 -0.7760
   31MOL   H20811668   2.739   2.289   7.470 -0.4953 -2.1202  0.4870
   31MOL   H20911669   2.648   2.125   7.316 -3.1740 -2.5481  0.5616
   31MOL   H21011670   2.422   2.159   7.211  0.0943  0.4708  0.1235
   31MOL   C21111671   2.252   2.352   7.260  0.3368 -0.1897  0.6523
   31MOL   C21211672   2.224   2.431   7.136 -0.1890  0.0591  0.2726
   31MOL   O21311673   2.241   2.293   7.127  0.0398 -0.1042  0.0571
   31MOL   C21411674   2.325   2.512   7.060  0.2454 -0.1645  0.1920
   31MOL   O21511675   2.326   2.489   6.920 -0.1181  0.3268 -0.0301
   31MOL   C21611676   2.356   2.594   6.836 -0.1238  0.3419  0.1277
   31MOL   C21711677   2.442   2.704   6.868  0.4327 -0.2946  0.3659
   31MOL   C21811678   2.456   2.811   6.777 -0.7233 -0.2373 -0.7411
   31MOL   C21911679   2.400   2.808   6.654  0.2711 -0.3132  0.0973
   31MOL   C22011680   2.329   2.694   6.619 -0.3526  0.7605 -0.3846
   31MOL   C22111681   2.303   2.588   6.705 -0.2764 -0.5955  0.0955
   31MOL   H22211682   2.179   2.312   7.329 -0.9885  0.5170 -0.3177
   31MOL   H22311683   2.124   2.470   7.121 -0.1934 -0.5827 -1.4864
   31MOL   H22411684   2.428   2.491   7.089  1.1937  1.8026 -1.6256
   31MOL   H22511685   2.292   2.615   7.076  0.9642  0.0844  0.1074
   31MOL   H22611686   2.484   2.708   6.968  1.4374  1.7586 -0.1081
   31MOL   H22711687   2.521   2.890   6.813 -0.9090 -0.9388  1.2370
   31MOL   H22811688   2.435   2.875   6.577  0.7732  0.3697  0.9140
   31MOL   H22911689   2.297   2.683   6.517 -1.3113 -0.8396  0.0645
   31MOL   C23011690   2.230   2.478   6.649  0.6528  1.5211 -0.6782
   31MOL   C23111691   2.084   2.448   6.690 -0.4228  0.0224 -0.8396
   31MOL   O23211692   2.119   2.518   6.569  0.3334  0.6341  0.1068
   31MOL   C23311693   2.005   2.530   6.788 -0.6300 -0.0019  0.3717
   31MOL   O23411694   1.860   2.501   6.795  0.4947  0.1064  0.7407
   31MOL   C23511695   1.759   2.581   6.746  0.5683  0.0025  0.2111
   31MOL   C23611696   1.778   2.683   6.647 -0.3802 -0.1794 -0.5748
   31MOL   C23711697   1.665   2.748   6.588  0.2917 -0.1465  0.3756
   31MOL   C23811698   1.535   2.716   6.625  0.2888  0.3516  0.3907
   31MOL   C23911699   1.516   2.605   6.711 -0.1087  0.5313 -0.0219
   31MOL   C24011700   1.628   2.541   6.772 -0.1500 -0.5356 -0.2218
   31MOL   H24111701   2.296   2.402   6.609 -0.2699  0.1389  0.3591
   31MOL   H24211702   2.047   2.348   6.669 -0.8805 -0.0654  0.3296
   31MOL   H24311703   2.021   2.634   6.759 -0.1633 -0.4101 -0.8978
   31MOL   H24411704   2.037   2.526   6.892 -2.6757 -0.8766  0.9868
   31MOL   H24511705   1.874   2.721   6.615  0.6893 -0.9919  1.5971
   31MOL   H24611706   1.678   2.828   6.517  2.5640  1.1141  2.1384
   31MOL   H24711707   1.453   2.773   6.584  0.9619  0.6050 -0.6119
   31MOL   H24811708   1.413   2.582   6.735 -0.5923  2.8953  0.2278
   31MOL   C24911709   1.607   2.419   6.858 -0.0157 -0.8046  0.3072
   31MOL   C25011710   1.613   2.433   7.006  0.4137 -0.3456 -0.8321
   31MOL   O25111711   1.489   2.413   6.935 -0.4929  0.2302  0.6075
   31MOL   C25211712   1.617   2.568   7.079 -0.6501  0.4286 -0.0822
   31MOL   O25311713   1.515   2.570   7.182  0.1760  0.0777  0.3356
   31MOL   C25411714   1.502   2.687   7.254 -0.3134 -0.8192 -0.1363
   31MOL   C25511715   1.569   2.807   7.235 -0.3404  0.0210 -0.2663
   31MOL   C25611716   1.533   2.925   7.305 -0.1842 -0.0287 -0.1913
   31MOL   C25711717   1.426   2.919   7.397  0.1078 -0.5887 -0.2487
   31MOL   C25811718   1.358   2.798   7.419  0.6455  0.4738 -0.2943
   31MOL   C25911719   1.397   2.680   7.355 -0.0062  0.3447  0.1191
   31MOL   H26011720   1.641   2.329   6.807 -3.2588 -3.0684  1.9410
   31MOL   H26111721   1.643   2.346   7.064 -0.2022  0.4028  0.6582
   31MOL   H26211722   1.583   2.645   7.010 -1.1482  0.7518  0.5096
   31MOL   H26311723   1.718   2.590   7.114 -0.8183 -0.2598  0.8659
   31MOL   H26411724   1.653   2.817   7.167  0.1054  0.3925  0.3412
   31MOL   H26511725   1.602   3.005   7.287  2.2529 -2.2802 -1.2406
   31MOL   H26611726   1.416   3.008   7.457 -0.3874 -1.6657  1.2990
   31MOL   H26711727   1.282   2.795   7.495  0.5359  0.2645 -0.4116
   31MOL   C26811728   1.326   2.553   7.381 -0.0023 -0.3070 -0.1952
   31MOL   C26911729   1.355   2.470   7.502  0.6349  0.0940 -1.0828
   31MOL   O27011730   1.246   2.562   7.504 -0.1060  0.3337 -0.4850
   31MOL   C27111731   1.470   2.502   7.590 -0.3699 -1.2266 -0.0346
   31MOL   O27211732   1.423   2.459   7.721  0.2601 -0.2388 -0.2999
   31MOL   C27311733   1.506   2.465   7.823 -0.1811 -0.4728 -0.5298
   31MOL   C27411734   1.651   2.475   7.812  0.0075  0.1834  0.4261
   31MOL   C27511735   1.739   2.466   7.921 -0.5644  0.2410 -0.6907
   31MOL   C27611736   1.690   2.464   8.053  0.0505 -0.6527 -0.6543
   31MOL   C27711737   1.548   2.474   8.073  0.1243 -0.6737  0.2224
   31MOL   C27811738   1.456   2.470   7.960 -0.0427  0.2841  1.0154
   31MOL   H27911739   1.274   2.503   7.299 -1.1065  0.0266  0.2889
   31MOL   H28011740   1.331   2.366   7.483 -0.6830 -0.3621  2.8144
   31MOL   H28111741   1.501   2.606   7.578  0.7224 -1.5399  0.0431
   31MOL   H28211742   1.557   2.450   7.551 -0.3692 -1.4560  0.2771
   31MOL   H28311743   1.708   2.467   7.720 -1.8030 -2.4512 -0.5004
   31MOL   H28411744   1.845   2.451   7.907 -0.4571  0.6478 -0.3219
   31MOL   H28511745   1.753   2.470   8.141  1.2018  2.0192 -1.6090
   31MOL   H28611746   1.519   2.473   0.007 -0.2548  2.9256  0.1934
   31MOL   C28711747   1.305   2.464   7.976 -0.1450 -0.9248 -0.2793
   31MOL   C28811748   1.231   2.328   8.004  0.4944 -0.1419 -0.1277
   31MOL   O28911749   1.253   2.428   8.105 -0.3033  0.6141  0.5938
   31MOL   C29011750   1.300   2.201   8.038  0.2602  0.1460  0.3240
   31MOL   O29111751   1.270   2.084   7.957 -0.2152  0.5713 -0.5574
   31MOL   C29211752   1.140   2.035   7.954  0.0551  0.0907 -0.4573
   31MOL   C29311753   1.055   2.041   8.066  0.0650 -0.3730 -0.2656
   31MOL   C29411754   0.932   1.973   8.074  0.4230 -0.3159  0.3437
   31MOL   C29511755   0.880   1.907   7.962 -0.2397  0.2504 -1.2708
   31MOL   C29611756   0.957   1.905   7.845 -0.5840  0.4693 -0.3116
   31MOL   C29711757   1.082   1.970   7.837 -0.5557 -0.4012 -0.0706
   31MOL   H29811758   1.252   2.540   7.919 -2.0878 -1.9083  0.1833
   31MOL   H29911759   1.124   2.325   7.983  1.1777  1.9511 -4.4060
   31MOL   H30011760   1.267   2.189   8.141 -0.7081 -3.6682 -0.3453
   31MOL   H30111761   1.407   2.210   8.056  0.4551 -2.8151  0.8552
   31MOL   H30211762   1.087   2.079   8.162 -1.1862  1.4734 -0.5534
   31MOL   H30311763   0.876   1.983   8.166  0.8530 -2.0567  0.8165
   31MOL   H30411764   0.781   1.865   7.972  0.1447 -0.0123  2.4507
   31MOL   H30511765   0.912   1.854   7.761 -0.0880 -2.0727  0.8926
   31MOL   C30611766   1.155   1.960   7.703  0.3053 -0.3885  0.1511
   31MOL   C30711767   1.111   2.010   7.569 -0.8470 -0.0129 -0.5027
   31MOL   O30811768   1.206   2.084   7.654  0.3017  0.3024 -0.3561
   31MOL   C30911769   0.978   2.065   7.551 -0.9196  0.3829  0.3440
   31MOL   O31011770   0.957   2.088   7.408 -0.0224 -0.4066  0.3335
   31MOL   C31111771   0.972   2.216   7.354 -0.2631 -0.1511  0.2126
   31MOL   C31211772   0.993   2.340   7.421 -0.1459 -0.1546 -0.4084
   31MOL   C31311773   0.985   2.464   7.352 -1.0921  0.4742  0.6212
   31MOL   C31411774   0.995   2.465   7.214  0.3685  0.1957  0.5830
   31MOL   C31511775   0.982   2.342   7.147  0.1036 -0.2935  0.2647
   31MOL   C31611776   0.966   2.218   7.210 -0.4669  0.0891 -1.1021
   31MOL   H31711777   1.213   1.868   7.705  0.4185 -0.3250 -0.1017
   31MOL   H31811778   1.152   1.955   7.484  1.3325  1.5124 -0.4752
   31MOL   H31911779   0.971   2.155   7.612 -0.1867  0.5996  0.1206
   31MOL   H32011780   0.904   1.994   7.588 -0.4099  0.4205  1.4596
   31MOL   H32111781   0.997   2.341   7.529 -0.4550 -2.6042 -0.3466
   31MOL   H32211782   0.993   2.557   7.406 -0.0442 -0.2726  1.7954
   31MOL   H32311783   1.030   2.553   7.162  2.9975 -1.4946 -0.6599
   31MOL   H32411784   0.977   2.334   7.039 -0.0828  0.0255  0.2511
   31MOL   C32511785   0.979   2.087   7.145  0.6303 -0.4374 -0.4026
   31MOL   C32611786   0.869   1.982   7.131  0.1758 -0.4425 -0.4564
   31MOL   O32711787   0.910   2.068   7.023 -0.6491  0.7300  0.3101
   31MOL   C32811788   0.729   2.016   7.174 -0.4339 -0.4087 -0.2535
   31MOL   O32911789   0.640   1.914   7.124 -0.1773  0.0599 -0.5401
   31MOL   C33011790   0.598   1.912   6.995  0.9302 -0.5214  0.2136
   31MOL   C33111791   0.578   2.026   6.917  0.9686  0.1075 -0.9373
   31MOL   C33211792   0.518   2.018   6.789 -0.5737  1.0639  0.1094
   31MOL   C33311793   0.477   1.892   6.737 -0.2133 -0.0672  0.4827
   31MOL   C33411794   0.503   1.780   6.813 -0.0596 -0.8663  0.4672
   31MOL   C33511795   0.552   1.789   6.944 -0.5183  0.3157 -1.2859
   31MOL   H33611796   1.086   2.067   7.141  1.1991  2.3582 -0.4280
   31MOL   H33711797   0.883   1.874   7.127  1.0786 -0.3331 -0.4637
   31MOL   H33811798   0.699   2.116   7.143  0.7802 -0.2409 -0.9507
   31MOL   H33911799   0.718   2.023   7.282  0.3906  0.0062 -0.1867
   31MOL   H34011800   0.611   2.123   6.950  1.5449  1.0274 -4.0526
   31MOL   H34111801   0.504   2.100   6.719  0.6035  0.5606 -0.7385
   31MOL   H34211802   0.425   1.901   6.643  1.2187 -0.0655 -0.3225
   31MOL   H34311803   0.471   1.684   6.775 -0.4305  0.2228 -2.0287
   31MOL   C34411804   0.557   1.666   7.030  0.3515  0.4778  0.1113
   31MOL   C34511805   0.467   1.627   7.156  0.1930 -0.0277  0.0683
   31MOL   O34611806   0.432   1.592   7.018  0.1621  0.2626  0.1955
   31MOL   C34711807   0.392   1.732   7.228 -0.0707 -0.4561  0.5747
   31MOL   O34811808   0.306   1.682   7.329  0.2651  0.4473 -0.5938
   31MOL   C34911809   0.183   1.628   7.296 -0.3550  0.5076  0.6343
   31MOL   C35011810   0.129   1.625   7.163  0.3263 -0.3602  0.0313
   31MOL   C35111811   0.000   1.571   7.133  0.0216 -0.2581 -0.1879
   31MOL   C35211812   8.098   1.517   7.242  1.4280  0.6342  0.3814
   31MOL   C35311813   8.153   1.511   7.374  0.0914  0.1777  0.3944
   31MOL   C35411814   0.105   1.571   7.398  0.1592  0.9240  0.3769
   31MOL   H35511815   0.640   1.605   6.995 -1.5586 -1.7050 -0.7200
   31MOL   H35611816   0.499   1.540   7.214  0.1312  0.5141  0.9194
   31MOL   H35711817   0.345   1.784   7.144  2.5058  0.1165 -0.5810
   31MOL   H35811818   0.467   1.800   7.270  0.4486 -0.7396  0.1214
   31MOL   H35911819   0.188   1.660   7.079 -0.2361 -2.8133 -1.4426
   31MOL   H36011820   8.125   1.571   7.035  0.9374 -1.1307 -0.6196
   31MOL   H36111821   8.006   1.467   7.216  1.0636  0.7084  1.4880
   31MOL   H36211822   8.098   1.462   7.453 -0.3384  0.2798  0.1648
   31MOL   C36311823   0.151   1.572   7.546 -0.3193 -0.1153 -0.3286
   31MOL   C36411824   0.151   1.694   7.643  0.2406  0.6383  0.1384
   31MOL   O36511825   0.045   1.593   7.643  0.2332  0.3162 -0.1159
   31MOL   C36611826   0.122   1.826   7.581 -0.2755  0.9520 -0.1415
   31MOL   O36711827   0.115   1.916   7.691 -0.8283  0.6070  0.3447
   31MOL   C36811828   0.095   2.048   7.653 -0.0803  0.0636  0.0737
   31MOL   C36911829   0.093   2.095   7.518  0.1030 -0.4007 -0.2774
   31MOL   C37011830   0.056   2.230   7.496 -0.6466  0.2979 -0.1119
   31MOL   C37111831   0.046   2.319   7.607  0.1369 -0.0969 -0.2776
   31MOL   C37211832   0.057   2.273   7.737  0.1658  0.1620  0.0223
   31MOL   C37311833   0.075   2.135   7.764  0.2751 -0.4610  0.0536
   31MOL   H37411834   0.214   1.487   7.570 -0.8676 -0.3296  0.3721
   31MOL   H37511835   0.223   1.689   7.724 -0.3026  1.0714  0.6461
   31MOL   H37611836   0.028   1.823   7.526 -1.0272  0.3974  1.1692
   31MOL   H37711837   0.205   1.848   7.514 -0.8151  0.3059 -1.0383
   31MOL   H37811838   0.096   2.026   7.435  2.6294 -1.5711  0.7308
   31MOL   H37911839   0.044   2.260   7.392  0.5931  1.5774  0.1014
   31MOL   H38011840   0.033   2.426   7.594 -0.3144 -0.0047  0.8775
   31MOL   H38111841   0.042   2.335   7.824 -2.4206  0.0400 -0.2936
   31MOL   H38211842   0.073   2.087   7.861 -0.6801 -1.0159 -0.2369
   32MOL     C111843   5.399   7.654   5.693  0.3171  0.3557 -0.1804
   32MOL     C211844   5.497   7.611   5.801 -0.9009  0.4815  0.3355
   32MOL     O311845   5.406   7.516   5.743  0.3702 -0.6686 -0.4684
   32MOL     C411846   5.476   7.650   5.946  0.0538  0.1242  0.2490
   32MOL     O511847   5.362   7.724   5.971 -0.4336  0.2548 -0.2231
   32MOL     C611848   5.354   7.801   6.084 -0.8625  0.3367  0.0965
   32MOL     C711849   5.456   7.802   6.180 -0.6347  0.3662 -0.5291
   32MOL     C811850   5.444   7.868   6.303  0.1394  0.2514  0.1590
   32MOL     C911851   5.332   7.960   6.319 -0.7684 -0.0485  0.2642
   32MOL    C1011852   5.225   7.961   6.223 -0.4119  0.2015 -0.5172
   32MOL    C1111853   5.235   7.876   6.110 -0.5371  0.2637  0.7698
   32MOL    H1211854   5.438   7.666   5.593 -0.3487  0.9344 -0.3733
   32MOL    H1311855   5.598   7.595   5.765 -0.4820  0.9432  1.2933
   32MOL    H1411856   5.568   7.703   5.967  0.2508 -1.5090  4.0572
   32MOL    H1511857   5.485   7.558   6.005  5.0205  1.1448  1.2393
   32MOL    H1611858   5.544   7.743   6.160 -1.6376 -0.7901 -1.7001
   32MOL    H1711859   5.521   7.860   6.378  0.4788  2.4831  0.0619
   32MOL    H1811860   5.318   8.010   6.414 -1.4632  0.3665 -0.0574
   32MOL    H1911861   5.135   8.020   6.230 -0.7955 -0.5534  1.5040
   32MOL    H2011862   5.300   7.694   5.715 -0.1483 -1.0476  0.2994
   32MOL    C2111863   5.126   7.867   6.004  0.1448 -0.6103  0.3992
   32MOL    C2211864   5.000   7.791   6.020  0.3395  0.7166  0.3542
   32MOL    O2311865   5.001   7.933   6.045  0.4992 -0.6331  0.3422
   32MOL    C2411866   4.945   7.738   6.153 -1.0764  0.4061 -0.5374
   32MOL    O2511867   4.829   7.667   6.133  0.1556 -0.0378  0.3623
   32MOL    C2611868   4.711   7.733   6.142 -0.1281  0.3770 -1.1750
   32MOL    C2711869   4.697   7.872   6.154  0.8559 -0.1580 -0.2365
   32MOL    C2811870   4.569   7.928   6.172 -1.0193 -0.8271  0.2205
   32MOL    C2911871   4.457   7.847   6.164  0.1796  0.2450  0.0436
   32MOL    C3011872   4.474   7.705   6.167 -0.4708 -0.9884 -0.1484
   32MOL    C3111873   4.600   7.652   6.167  0.7979  0.1673  0.3427
   32MOL    H3211874   5.151   7.882   5.899  0.1494 -1.1111  0.3233
   32MOL    H3311875   4.957   7.749   5.930  0.9826 -0.9244  0.7976
   32MOL    H3411876   4.943   7.806   6.238  2.6607  1.5899 -1.2813
   32MOL    H3511877   5.015   7.659   6.183 -2.5146 -0.2683  1.0700
   32MOL    H3611878   4.780   7.940   6.154 -1.0352  2.2338 -0.8350
   32MOL    H3711879   4.567   8.035   6.181 -1.0548 -0.9404  1.5873
   32MOL    H3811880   4.356   7.885   6.169  0.8807  1.9305  1.6722
   32MOL    H3911881   4.386   7.642   6.173 -3.6285  3.0344 -1.9225
   32MOL    C4011882   4.609   7.501   6.183  0.0274 -0.0003 -0.0994
   32MOL    C4111883   4.665   7.433   6.305 -0.3418  0.9518  0.2378
   32MOL    O4211884   4.527   7.461   6.289  0.0757 -0.2083  0.0521
   32MOL    C4311885   4.732   7.518   6.420  0.3918  0.0481  0.2263
   32MOL    O4411886   4.765   7.436   6.535 -0.1870 -0.3436 -0.0385
   32MOL    C4511887   4.683   7.459   6.643 -0.2306  0.3464 -0.2811
   32MOL    C4611888   4.544   7.444   6.625  0.0910  1.1399  0.6256
   32MOL    C4711889   4.466   7.466   6.739 -0.4649  0.0936 -0.6298
   32MOL    C4811890   4.518   7.521   6.859  0.2871 -0.2005  0.3024
   32MOL    C4911891   4.659   7.533   6.872 -0.9250 -0.4418 -0.1589
   32MOL    C5011892   4.742   7.499   6.767 -0.0356 -0.1353  0.2740
   32MOL    H5111893   4.614   7.453   6.086  1.2880 -0.8391  0.3631
   32MOL    H5211894   4.689   7.327   6.295 -3.6111  0.3272 -1.7613
   32MOL    H5311895   4.660   7.597   6.440 -0.8751 -0.6540 -1.4705
   32MOL    H5411896   4.826   7.560   6.385 -1.1177  0.9113 -3.0181
   32MOL    H5511897   4.497   7.406   6.536 -1.3408  1.9833  0.9959
   32MOL    H5611898   4.360   7.444   6.742 -0.0838 -1.5756  3.0276
   32MOL    H5711899   4.449   7.544   6.939  2.3057  1.5413  1.5893
   32MOL    H5811900   4.694   7.578   6.964 -1.8434  0.0460 -0.0316
   32MOL    C5911901   4.891   7.526   6.780  0.1745 -0.7139 -0.3775
   32MOL    C6011902   4.967   7.652   6.841 -0.4867  0.5461  0.0159
   32MOL    O6111903   4.936   7.542   6.917  0.2573  0.1520  0.0529
   32MOL    C6211904   4.899   7.788   6.863 -0.1900  0.0851 -0.0111
   32MOL    O6311905   4.823   7.828   6.752  0.0553 -0.4193  0.0084
   32MOL    C6411906   4.763   7.949   6.773  0.3572 -0.2298  0.2866
   32MOL    C6511907   4.798   8.043   6.873 -0.1032  0.8283 -0.0423
   32MOL    C6611908   4.740   8.167   6.881  0.0376 -0.0189 -0.4243
   32MOL    C6711909   4.633   0.024   6.790  1.0660  0.0930  0.1304
   32MOL    C6811910   4.588   8.100   6.695  0.1641  0.3010 -0.3361
   32MOL    C6911911   4.663   7.980   6.679  0.1430 -0.2780  0.0742
   32MOL    H7011912   4.949   7.455   6.722  0.0809  0.0946 -1.4641
   32MOL    H7111913   5.072   7.663   6.814 -0.5252  2.3970  0.5907
   32MOL    H7211914   4.981   7.850   6.901 -0.8839 -0.4020  2.3939
   32MOL    H7311915   4.842   7.781   6.956 -1.5809  0.2890 -0.8384
   32MOL    H7411916   4.880   8.029   6.943  0.4290  0.4479 -0.7326
   32MOL    H7511917   4.772   0.067   6.956 -0.0663 -0.5816  0.1433
   32MOL    H7611918   4.578   0.116   6.802  1.7599  0.5766 -0.3580
   32MOL    H7711919   4.495   8.123   6.645 -0.4203 -2.4549 -0.6079
   32MOL    C7811920   4.626   7.880   6.580 -0.0950 -0.3284 -0.2232
   32MOL    C7911921   4.488   7.821   6.554  0.6049  0.0876  0.1853
   32MOL    O8011922   4.533   7.938   6.482  0.5144  0.2241  0.2302
   32MOL    C8111923   4.364   7.833   6.644 -0.0452 -0.0719  0.7708
   32MOL    O8211924   4.258   7.860   6.559 -0.6698 -0.1157  0.0679
   32MOL    C8311925   4.161   7.770   6.545 -0.4762  0.6449 -0.9986
   32MOL    C8411926   4.193   7.630   6.544  0.1588  0.6604  0.1171
   32MOL    C8511927   4.083   7.543   6.524  0.4709  0.7492  0.1629
   32MOL    C8611928   3.954   7.582   6.500  0.4084 -0.3478  0.3738
   32MOL    C8711929   3.921   7.723   6.498 -0.0743  0.1396 -0.2397
   32MOL    C8811930   4.027   7.814   6.516  0.3266 -0.4482 -0.0044
   32MOL    H8911931   4.714   7.839   6.530  1.9736  3.4229  0.1146
   32MOL    H9011932   4.484   7.731   6.494 -1.6257  1.9021 -2.5336
   32MOL    H9111933   4.366   7.919   6.711 -0.5835  1.7078 -1.3930
   32MOL    H9211934   4.348   7.755   6.718  0.5032 -1.6491 -0.7398
   32MOL    H9311935   4.290   7.583   6.551  0.4692  0.7039 -3.1123
   32MOL    H9411936   4.096   7.437   6.509  0.7118  0.5475  1.7113
   32MOL    H9511937   3.871   7.518   6.476  0.8378 -1.0301  0.7033
   32MOL    H9611938   3.821   7.762   6.492 -0.4357 -0.9009 -0.8629
   32MOL    C9711939   3.995   7.961   6.524  0.1830 -0.3528 -0.1211
   32MOL    C9811940   4.024   8.053   6.412  0.2835 -0.3053  0.2631
   32MOL    O9911941   3.887   8.011   6.444  0.2387 -0.4430  0.4274
   32MOL   C10011942   4.067   8.013   6.277 -0.7889 -0.0680  0.3176
   32MOL   O10111943   4.057   8.126   6.191  1.0421  0.1233 -0.2725
   32MOL   C10211944   4.167   0.045   6.194  0.7895  0.3861 -0.1619
   32MOL   C10311945   4.298   0.006   6.218  0.1825 -0.3546  0.9634
   32MOL   C10411946   4.398   0.110   6.225  0.1262 -0.2595  0.0867
   32MOL   C10511947   4.361   0.245   6.230 -0.6131 -0.0395 -0.1381
   32MOL   C10611948   4.227   0.280   6.200 -0.0784  0.9395  0.2865
   32MOL   C10711949   4.126   0.180   6.179  0.0516  0.3907 -0.1895
   32MOL   H10811950   4.003   7.999   6.626  1.0530 -1.7179  0.3400
   32MOL   H10911951   4.051   8.157   6.433 -0.6141  0.3025 -1.5365
   32MOL   H11011952   3.988   7.947   6.241 -3.1000  1.3853  2.5570
   32MOL   H11111953   4.155   7.948   6.273 -1.5171 -0.9903 -1.1733
   32MOL   H11211954   4.331   8.075   6.241  1.3513  0.1496  1.5927
   32MOL   H11311955   4.500   0.080   6.242  0.6236  1.0383 -0.5613
   32MOL   H11411956   4.434   0.324   6.244 -3.0297  2.7180 -2.2297
   32MOL   H11511957   4.203   0.385   6.192  0.0827  1.0030  0.6335
   32MOL   C11611958   3.985   0.211   6.157 -0.3189  0.0706 -0.9180
   32MOL   C11711959   3.891   0.266   6.263  0.0520  0.0794 -0.4039
   32MOL   O11811960   3.962   0.350   6.173 -0.1984  0.1420  0.8707
   32MOL   C11911961   3.938   0.279   6.403  0.2840  0.0702 -0.4257
   32MOL   O12011962   3.876   0.394   6.471  0.0838  0.6917 -0.0215
   32MOL   C12111963   3.750   0.377   6.530  0.1496  0.1086 -0.0742
   32MOL   C12211964   3.674   0.260   6.536 -0.6654 -0.8751 -0.6521
   32MOL   C12311965   3.561   0.252   6.623  0.1103  0.4424  0.1402
   32MOL   C12411966   3.525   0.366   6.694 -0.2521  0.3953 -0.6766
   32MOL   C12511967   3.591   0.488   6.682  1.3099  0.5263  0.0182
   32MOL   C12611968   3.700   0.497   6.593  0.2603 -0.3060 -0.4222
   32MOL   H12711969   3.934   0.158   6.077 -0.1399  0.5838 -1.3705
   32MOL   H12811970   3.783   0.254   6.251  0.2251 -0.1020 -1.8841
   32MOL   H12911971   4.046   0.292   6.415  0.4922  1.5265 -3.5289
   32MOL   H13011972   3.918   0.191   6.465 -0.3199  2.0758  2.3491
   32MOL   H13111973   3.702   0.163   6.498 -1.7733 -1.0641 -1.0160
   32MOL   H13211974   3.519   0.153   6.633 -0.2694  0.5193 -0.7229
   32MOL   H13311975   3.440   0.365   6.761  0.0700  0.0300 -0.2689
   32MOL   H13411976   3.559   0.575   6.738 -0.6270 -0.0950 -0.0948
   32MOL   C13511977   3.760   0.632   6.557  0.1177  0.1421 -0.0942
   32MOL   C13611978   3.753   0.697   6.418  0.1864  0.4053 -0.4353
   32MOL   O13711979   3.655   0.727   6.518 -0.0117  0.2403 -0.4333
   32MOL   C13811980   3.725   0.613   6.298  0.1512 -0.1496  0.1194
   32MOL   O13911981   3.741   0.688   6.173  0.3858  0.1351 -0.1205
   32MOL   C14011982   3.640   0.773   6.130  0.0771 -0.5056 -0.1213
   32MOL   C14111983   3.523   0.787   6.203 -0.5111  0.6024  0.2436
   32MOL   C14211984   3.420   0.863   6.148 -0.3370  0.2445 -0.1526
   32MOL   C14311985   3.438   0.943   6.034  0.7922 -0.3849  0.4775
   32MOL   C14411986   3.563   0.936   5.964 -0.5691  0.1959 -0.3772
   32MOL   C14511987   3.665   0.852   6.016  0.6197 -0.1272 -0.8501
   32MOL   H14611988   3.822   0.664   6.641 -0.6405 -0.8783  0.8648
   32MOL   H14711989   3.833   0.766   6.395  1.7501 -0.9549  0.7855
   32MOL   H14811990   3.630   0.561   6.298  0.5018 -0.8013  1.2928
   32MOL   H14911991   3.807   0.541   6.298  0.5244  0.2762  0.9873
   32MOL   H15011992   3.504   0.737   6.297  1.2592  3.1713  2.0358
   32MOL   H15111993   3.322   0.869   6.193 -0.3956  0.8677 -0.3684
   32MOL   H15211994   3.357   1.006   6.002  2.2529  1.9212  1.1522
   32MOL   H15311995   3.584   1.005   5.884 -3.4850  0.1457 -1.2614
   32MOL   C15411996   3.795   0.836   5.944 -0.2659 -0.5153 -0.4270
   32MOL   C15511997   3.809   0.732   5.842  0.3516  0.2366 -0.2863
   32MOL   O15611998   3.786   0.866   5.807 -0.1263 -0.3527  0.1162
   32MOL   C15711999   3.694   0.640   5.797  0.4095  0.2211  0.7896
   32MOL   O15812000   3.731   0.570   5.676 -0.3296 -0.3020 -0.1098
   32MOL   C15912001   3.668   0.449   5.644  0.4830 -0.7381 -0.8199
   32MOL   C16012002   3.542   0.420   5.699  0.7054  0.0307  0.0853
   32MOL   C16112003   3.482   0.291   5.666  0.7979  0.1152  0.2590
   32MOL   C16212004   3.543   0.199   5.577 -0.1637  0.6671  0.0860
   32MOL   C16312005   3.671   0.229   5.528  0.8456 -0.1465 -0.2606
   32MOL   C16412006   3.732   0.352   5.564  0.4628 -0.4294 -0.1577
   32MOL   H16512007   3.883   0.839   6.007 -0.6376 -1.0197  0.1188
   32MOL   H16612008   3.910   0.691   5.832  1.0532  1.7698  0.2558
   32MOL   H16712009   3.606   0.704   5.784  0.4731 -0.1351 -1.5001
   32MOL   H16812010   3.677   0.562   5.872 -0.4119 -0.0512  0.3300
   32MOL   H16912011   3.489   0.493   5.757 -0.7122 -2.5762  2.1868
   32MOL   H17012012   3.383   0.278   5.708  0.8246 -0.3971  0.1609
   32MOL   H17112013   3.495   0.104   5.557 -1.0453  0.5384  2.5614
   32MOL   H17212014   3.732   0.151   5.485  0.5491 -0.9687  0.7606
   32MOL   C17312015   3.866   0.384   5.506 -0.1379  0.1637  0.0338
   32MOL   C17412016   3.990   0.348   5.577 -0.0271  0.1146 -0.2370
   32MOL   O17512017   3.938   0.273   5.463 -0.1724 -0.8160  0.8801
   32MOL   C17612018   4.000   0.274   5.708 -0.9902 -0.3090 -0.3985
   32MOL   O17712019   4.143   0.238   5.722  0.1349  0.9707  0.4171
   32MOL   C17812020   4.171   0.122   5.784 -0.1711 -0.0462 -0.4102
   32MOL   C17912021   4.082   0.034   5.853 -0.1360 -0.3801 -0.2205
   32MOL   C18012022   4.125   8.084   5.901  0.7650  1.1620  0.1395
   32MOL   C18112023   4.256   8.046   5.888 -0.2789  0.0886 -0.2926
   32MOL   C18212024   4.346   8.135   5.831  0.5682  0.4032  0.2481
   32MOL   C18312025   4.302   0.082   5.768  0.3174 -0.2796  0.3278
   32MOL   H18412026   3.865   0.472   5.442  0.6053  0.8743  0.9926
   32MOL   H18512027   4.069   0.420   5.556  0.7583 -0.6156  0.2067
   32MOL   H18612028   3.919   0.203   5.723 -1.2549  0.2820  1.0222
   32MOL   H18712029   3.995   0.351   5.785  0.1822  1.0404 -1.6423
   32MOL   H18812030   3.980   0.066   5.869 -0.0283 -0.7988  1.3943
   32MOL   H18912031   4.045   8.030   5.950  1.3914  0.8730  0.8691
   32MOL   H19012032   4.304   7.961   5.934 -2.2739 -1.1513 -0.4857
   32MOL   H19112033   4.449   8.101   5.834 -0.1007 -1.9526 -1.3982
   32MOL   C19212034   4.401   0.160   5.693 -0.4789 -0.1773  0.2284
   32MOL   C19312035   4.510   0.239   5.754 -0.2193  0.4675  0.0584
   32MOL   O19412036   4.536   0.113   5.689  0.5479 -0.4953  0.0385
   32MOL   C19512037   4.545   0.244   5.906  0.9412 -0.1812 -0.0575
   32MOL   O19612038   4.682   0.277   5.931 -0.5106  0.3519  0.5043
   32MOL   C19712039   4.724   0.405   5.898 -0.5794  0.0333 -0.5112
   32MOL   C19812040   4.643   0.509   5.858 -0.1959  0.6400  0.4022
   32MOL   C19912041   4.692   0.633   5.819 -0.1394  0.0696 -0.0142
   32MOL   C20012042   4.828   0.650   5.824 -0.2438 -0.5385 -0.1659
   32MOL   C20112043   4.915   0.545   5.852 -0.2652 -0.0316  0.0101
   32MOL   C20212044   4.866   0.424   5.902  0.3986  0.2099 -0.2609
   32MOL   H20312045   4.363   0.201   5.600 -0.1271 -1.0313 -0.2999
   32MOL   H20412046   4.550   0.322   5.697 -1.0918  0.7478 -0.1518
   32MOL   H20512047   4.527   0.144   5.945 -0.7799 -0.9090 -2.6196
   32MOL   H20612048   4.487   0.322   5.956 -0.5272 -0.3085 -1.5612
   32MOL   H20712049   4.535   0.497   5.859  0.0472 -1.8664  0.8304
   32MOL   H20812050   4.630   0.714   5.783 -0.7506 -0.2709  0.2726
   32MOL   H20912051   4.869   0.743   5.786 -1.0023 -0.5846 -1.1110
   32MOL   H21012052   5.018   0.576   5.846 -0.9659  2.2946 -0.2958
   32MOL   C21112053   4.958   0.313   5.953 -0.6412  0.2135 -0.2810
   32MOL   C21212054   4.988   0.193   5.867 -0.3317 -0.9374  0.0578
   32MOL   O21312055   5.078   0.305   5.873  0.6533 -0.0943  0.0817
   32MOL   C21412056   4.921   0.170   5.729  0.7242  0.0015 -0.0806
   32MOL   O21512057   4.969   0.061   5.658 -0.2376  0.1573  0.1935
   32MOL   C21612058   4.918   8.107   5.694 -0.4230  0.4789 -0.3803
   32MOL   C21712059   4.823   8.082   5.800  0.4426 -0.2444  0.3540
   32MOL   C21812060   4.765   7.953   5.808 -0.5576  0.0034  0.3452
   32MOL   C21912061   4.814   7.844   5.727 -0.0372 -0.4277 -0.0023
   32MOL   C22012062   4.914   7.872   5.633  0.6072 -0.0908 -0.3554
   32MOL   C22112063   4.967   8.002   5.614 -0.6996 -0.3798 -0.3715
   32MOL   H22212064   4.986   0.323   6.058  0.7157 -1.3942 -0.4635
   32MOL   H22312065   5.023   0.100   5.911 -1.6622 -1.1298  0.7159
   32MOL   H22412066   4.933   0.255   5.662 -0.9329  0.6525  0.4171
   32MOL   H22512067   4.812   0.168   5.743  0.7840 -0.8132  0.2899
   32MOL   H22612068   4.791   8.158   5.870 -2.3925 -0.8956 -0.1993
   32MOL   H22712069   4.683   7.943   5.877 -0.7046  0.2195  0.2060
   32MOL   H22812070   4.773   7.744   5.731 -0.2043 -0.4232 -1.2701
   32MOL   H22912071   4.948   7.790   5.572 -1.1399 -1.8264  0.9571
   32MOL   C23012072   5.075   8.026   5.505  0.2163 -0.5846  0.7634
   32MOL   C23112073   5.221   8.052   5.522  0.2716 -0.1179 -0.2830
   32MOL   O23212074   5.165   7.920   5.512  0.4767 -0.3040 -0.0911
   32MOL   C23312075   5.277   8.087   5.656  0.5830 -0.1792 -0.0017
   32MOL   O23412076   5.418   8.081   5.657 -0.2301  0.0548  0.0417
   32MOL   C23512077   5.479   8.075   5.784 -1.2963 -0.4212  0.1879
   32MOL   C23612078   5.418   8.136   5.896  0.1444 -0.0881 -0.5785
   32MOL   C23712079   5.486   8.129   6.024 -0.1329  1.2838  0.1781
   32MOL   C23812080   5.617   8.078   6.026 -0.0542 -0.5105  0.3092
   32MOL   C23912081   5.668   8.015   5.911 -0.0823  0.8921  0.5392
   32MOL   C24012082   5.600   8.008   5.790  0.3541 -0.0120  0.5091
   32MOL   H24112083   5.038   8.050   5.406  2.2488 -1.5309 -0.2401
   32MOL   H24212084   5.283   8.072   5.436  0.6182 -1.8185 -0.4510
   32MOL   H24312085   5.232   8.018   5.727  0.0708  1.4678  1.2838
   32MOL   H24412086   5.240   0.018   5.674 -0.1906 -0.4671  0.0259
   32MOL   H24512087   5.320   0.011   5.900  0.3645  0.3919 -0.6606
   32MOL   H24612088   5.447   8.169   6.116 -4.0629 -0.9936 -0.4166
   32MOL   H24712089   5.685   8.087   6.110 -1.1338  0.4206  1.1003
   32MOL   H24812090   5.770   7.979   5.911 -0.7298 -1.0019 -0.3034
   32MOL   C24912091   5.648   7.938   5.665 -0.4735  0.7547 -0.0720
   32MOL   C25012092   5.724   8.004   5.557 -0.2316  0.3121  0.4269
   32MOL   O25112093   5.794   7.923   5.660 -0.1983  0.0259  0.0072
   32MOL   C25212094   5.740   8.147   5.550  0.6509 -0.5220 -0.5480
   32MOL   O25312095   5.811   0.020   5.436  0.2924  0.0181 -0.3090
   32MOL   C25412096   5.748   0.028   5.314 -0.7841 -0.5191  0.1008
   32MOL   C25512097   5.619   8.154   5.290 -0.1426  0.1610  0.3052
   32MOL   C25612098   5.558   0.000   5.166  0.4035  0.2474  0.1057
   32MOL   C25712099   5.627   0.068   5.066 -0.2173 -0.3273 -0.1024
   32MOL   C25812100   5.756   0.123   5.089 -0.2287  0.1348  0.1000
   32MOL   C25912101   5.812   0.114   5.215 -0.4726  0.0317  0.1486
   32MOL   H26012102   5.588   7.849   5.645  1.2756 -0.6903  0.9427
   32MOL   H26112103   5.698   7.954   5.464  0.3041  0.4911  0.1763
   32MOL   H26212104   5.774   0.008   5.649  0.4367 -1.5382 -0.1483
   32MOL   H26312105   5.641   0.020   5.534  0.9860  0.0227 -1.2000
   32MOL   H26412106   5.558   8.116   5.371  0.6597 -1.8217  0.0005
   32MOL   H26512107   5.459   8.132   5.147 -0.3668  2.1277  0.2532
   32MOL   H26612108   5.577   0.086   4.972  1.1807  3.9325 -0.1562
   32MOL   H26712109   5.802   0.183   5.013  2.8761 -1.1227  0.9347
   32MOL   C26812110   5.947   0.176   5.245 -0.0542 -0.3611  0.2664
   32MOL   C26912111   6.076   0.119   5.197  0.6574 -0.2197  0.0691
   32MOL   O27012112   6.023   0.238   5.134  0.2004  0.2816  0.3993
   32MOL   C27112113   6.098   0.001   5.102  0.2970 -0.0651  0.0911
   32MOL   O27212114   5.990   8.092   5.055 -0.2880 -0.2344  0.3471
   32MOL   C27312115   6.012   7.979   4.978  0.2961  0.0999 -0.6581
   32MOL   C27412116   6.139   7.957   4.918 -0.2873  0.1925  0.2191
   32MOL   C27512117   6.169   7.838   4.851  0.3813  0.4007 -0.5524
   32MOL   C27612118   6.069   7.752   4.825  0.0261  0.2382 -0.3186
   32MOL   C27712119   5.936   7.782   4.871 -0.4133  0.4595 -0.0751
   32MOL   C27812120   5.905   7.889   4.952  0.5368  0.3547 -0.2085
   32MOL   H27912121   5.948   0.234   5.337 -2.5120  3.2533 -1.8836
   32MOL   H28012122   6.167   0.140   5.253  0.8616 -0.4013 -0.1988
   32MOL   H28112123   6.174   8.109   5.148  0.7691  0.0010 -0.5867
   32MOL   H28212124   6.152   0.036   5.014 -2.4867  2.3835 -0.7494
   32MOL   H28312125   6.222   8.026   4.930  0.4432 -0.4350 -1.2032
   32MOL   H28412126   6.267   7.804   4.819  0.0018 -1.0929 -0.1733
   32MOL   H28512127   6.079   7.654   4.781  0.9230 -0.7992  2.1306
   32MOL   H28612128   5.870   7.699   4.855  0.1926 -0.4790  2.2030
   32MOL   C28712129   5.758   7.906   4.996 -0.3028 -0.5149  0.1722
   32MOL   C28812130   5.647   7.949   4.903 -0.2058  0.1333  0.0653
   32MOL   O28912131   5.677   7.812   4.917  0.0135 -0.1382 -0.3341
   32MOL   C29012132   5.672   7.998   4.766  0.2688  0.3346 -0.6842
   32MOL   O29112133   5.570   7.962   4.678 -0.1813  0.1014 -0.0007
   32MOL   C29212134   5.608   7.959   4.548 -0.7595  0.0214  0.4688
   32MOL   C29312135   5.657   8.071   4.471  0.4177 -0.0749  0.6468
   32MOL   C29412136   5.692   8.054   4.337  0.4241 -0.3595  0.6641
   32MOL   C29512137   5.678   7.930   4.268 -0.2701 -0.3973 -0.9141
   32MOL   C29612138   5.644   7.815   4.348  0.5355  0.7686  0.2056
   32MOL   C29712139   5.599   7.829   4.481  0.5410  0.0987 -0.5988
   32MOL   H29812140   5.744   7.903   5.104  0.2293 -0.7137  0.2345
   32MOL   H29912141   5.550   7.978   4.943 -1.5865 -1.8102 -1.7776
   32MOL   H30012142   5.771   7.966   4.734  0.5964 -0.3432  0.9247
   32MOL   H30112143   5.675   8.106   4.759  2.1281  0.3601  0.1195
   32MOL   H30212144   5.653   8.170   4.515  1.3090  0.5635 -0.6782
   32MOL   H30312145   5.728   8.141   4.284 -0.9333 -0.4458 -0.4190
   32MOL   H30412146   5.701   7.919   4.164 -0.2895  0.0702 -0.9710
   32MOL   H30512147   5.639   7.720   4.297 -2.6208  0.3047  1.2780
   32MOL   C30612148   5.571   7.707   4.564 -0.5417  0.3566 -0.1890
   32MOL   C30712149   5.436   7.638   4.588  0.1996  0.2749 -0.1763
   32MOL   O30812150   5.536   7.587   4.499  0.1265  0.1459  0.3231
   32MOL   C30912151   5.310   7.690   4.526 -0.3021 -0.4986 -0.5558
   32MOL   O31012152   5.213   7.582   4.533 -0.2433 -0.0598 -0.0800
   32MOL   C31112153   5.139   7.570   4.418 -0.2704  1.1037  0.5655
   32MOL   C31212154   5.076   7.681   4.352  0.3416  0.6386 -0.7263
   32MOL   C31312155   4.996   7.660   4.237 -0.3720  0.1488 -0.3866
   32MOL   C31412156   4.982   7.533   4.192 -0.4582 -0.5036 -0.3859
   32MOL   C31512157   5.047   7.423   4.251 -0.5182  0.5735  0.4246
   32MOL   C31612158   5.122   7.440   4.371 -0.1073  0.1000  0.3036
   32MOL   H31712159   5.649   7.696   4.640  1.0227 -0.1936 -1.8544
   32MOL   H31812160   5.423   7.596   4.688 -2.2296  2.8042  0.6265
   32MOL   H31912161   5.323   7.718   4.421 -0.2092 -2.3599 -1.0558
   32MOL   H32012162   5.273   7.775   4.584  0.4213 -1.5489  1.4967
   32MOL   H32112163   5.089   7.778   4.398  0.1598  0.7854 -0.9852
   32MOL   H32212164   4.942   7.746   4.198 -0.3472 -0.7253 -2.4389
   32MOL   H32312165   4.919   7.520   4.105  0.8491  0.7538 -1.5425
   32MOL   H32412166   5.032   7.332   4.195 -2.3152  0.7491  0.6036
   32MOL   C32512167   5.184   7.329   4.441 -1.0905  0.0542  0.1721
   32MOL   C32612168   5.108   7.211   4.496  0.0159 -0.2722  0.3850
   32MOL   O32712169   5.185   7.202   4.372 -0.0139  0.7613 -0.5916
   32MOL   C32812170   4.960   7.183   4.480  0.2018  0.5080  0.1289
   32MOL   O32912171   4.925   7.050   4.504  0.3915  0.1503  0.1067
   32MOL   C33012172   4.958   6.954   4.415 -0.2628  0.4511 -0.3590
   32MOL   C33112173   5.003   6.990   4.285 -0.0935  0.7055  0.2882
   32MOL   C33212174   5.046   6.895   4.187  0.1475  0.3154  0.1040
   32MOL   C33312175   5.030   6.754   4.220 -0.0976  0.0152  0.5714
   32MOL   C33412176   4.971   6.716   4.349 -0.2849 -0.5683 -0.1207
   32MOL   C33512177   4.940   6.816   4.441  0.2956  0.2070  0.3162
   32MOL   H33612178   5.281   7.356   4.482 -1.2332  0.9490 -0.0836
   32MOL   H33712179   5.153   7.157   4.579  1.0781 -1.2031 -0.7603
   32MOL   H33812180   4.913   7.207   4.385  0.4425  0.8937  0.1097
   32MOL   H33912181   4.925   7.248   4.560  0.1997  0.4439  0.1804
   32MOL   H34012182   5.016   7.092   4.253  1.3647  1.0801  1.9689
   32MOL   H34112183   5.076   6.918   4.086 -0.4531 -0.9966 -0.3890
   32MOL   H34212184   5.064   6.684   4.146  0.7349 -1.1828  2.0659
   32MOL   H34312185   4.962   6.610   4.369  4.5066 -1.1890 -0.5508
   32MOL   C34412186   4.891   6.784   4.572 -0.0369 -0.0136 -0.4159
   32MOL   C34512187   4.753   6.805   4.629 -0.3704  0.3964  0.0692
   32MOL   O34612188   4.802   6.674   4.575 -0.0951  0.6632 -0.0758
   32MOL   C34712189   4.645   6.859   4.545  0.3192 -0.1192 -0.5011
   32MOL   O34812190   4.518   6.816   4.579 -1.0904 -0.2948 -0.6687
   32MOL   C34912191   4.465   6.870   4.695  0.3162  0.1476  0.5654
   32MOL   C35012192   4.473   7.010   4.738  0.5450 -0.2457 -0.3296
   32MOL   C35112193   4.411   7.042   4.861  0.4401  0.4478  0.3553
   32MOL   C35212194   4.355   6.940   4.942  0.3151 -0.5705  0.5154
   32MOL   C35312195   4.346   6.807   4.898 -0.2154 -0.0907  0.3675
   32MOL   C35412196   4.404   6.769   4.774  0.3639  0.0569  0.1370
   32MOL   H35512197   4.974   6.764   4.640 -0.0102  0.9583 -0.1463
   32MOL   H35612198   4.739   6.806   4.737 -1.0946  4.6293  0.0057
   32MOL   H35712199   4.670   6.826   4.444 -0.7095 -0.6041 -0.5963
   32MOL   H35812200   4.650   6.968   4.540 -1.2871  0.0254  0.6878
   32MOL   H35912201   4.530   7.081   4.679  1.6848 -0.0617  0.9787
   32MOL   H36012202   4.410   7.145   4.896  1.3739 -0.1314  2.1580
   32MOL   H36112203   4.306   6.966   5.035  2.2164  0.8751  1.1417
   32MOL   H36212204   4.309   6.732   4.966 -0.5300 -0.9925 -0.7925
   32MOL   C36312205   4.394   6.622   4.727  0.0832 -0.0653 -0.1571
   32MOL   C36412206   4.502   6.517   4.751 -0.3423  0.0865  0.3396
   32MOL   O36512207   4.387   6.528   4.832 -0.6135 -0.1302  0.0076
   32MOL   C36612208   4.630   6.536   4.820  0.8065 -0.1885  0.3710
   32MOL   O36712209   4.677   6.434   4.910  0.0647  0.2317 -0.3966
   32MOL   C36812210   4.714   6.308   4.871  0.4903 -0.1928  0.6746
   32MOL   C36912211   4.728   6.265   4.739  0.5478  0.9696  0.3203
   32MOL   C37012212   4.768   6.130   4.708  0.8605  0.0900  0.7154
   32MOL   C37112213   4.791   6.035   4.808  0.1967 -0.9096  0.3490
   32MOL   C37212214   4.772   6.077   4.944 -0.7216  0.4800  0.1698
   32MOL   C37312215   4.737   6.212   4.972 -0.4908 -0.0598  0.0335
   32MOL   H37412216   4.318   6.603   4.651 -0.0511 -1.0618  0.2174
   32MOL   H37512217   4.503   6.432   4.684  1.9863 -0.8384  1.4845
   32MOL   H37612218   4.626   6.624   4.884 -2.3157 -0.4911  0.6806
   32MOL   H37712219   4.707   6.569   4.751  1.6343 -0.8656  0.9625
   32MOL   H37812220   4.708   6.329   4.654 -1.7574 -0.6278 -0.3972
   32MOL   H37912221   4.771   6.097   4.605 -3.8839  0.8761  0.2391
   32MOL   H38012222   4.826   5.935   4.785 -2.7525 -1.6989 -0.9260
   32MOL   H38112223   4.784   6.006   5.025  0.6990  0.7318  0.1959
   32MOL   H38212224   4.727   6.228   5.078  0.0056  2.2496 -0.2389
   33MOL     C112225   3.665   4.333   0.901  0.0865  0.0906  0.0721
   33MOL     C212226   3.641   4.220   0.995  0.4751  0.2419 -0.0181
   33MOL     O312227   3.769   4.280   0.985 -0.5713 -0.0859  0.0446
   33MOL     C412228   3.632   4.078   0.941 -0.0663  0.5988  0.2174
   33MOL     O512229   3.660   3.994   1.049 -0.5224 -0.0894 -0.5746
   33MOL     C612230   3.711   3.864   1.029 -0.1258  0.0778  0.3969
   33MOL     C712231   3.690   3.794   0.910 -0.2964 -0.0689 -0.7713
   33MOL     C812232   3.730   3.658   0.903 -0.5674 -0.2446  0.2173
   33MOL     C912233   3.791   3.595   1.008  0.9231  0.2458  0.1448
   33MOL    C1012234   3.808   3.666   1.131  0.3526 -0.6343  0.7201
   33MOL    C1112235   3.770   3.803   1.141  0.0438  0.1207  0.3614
   33MOL    H1212236   3.612   4.425   0.923 -2.0232 -0.4799 -2.4297
   33MOL    H1312237   3.598   4.235   1.094 -0.0547 -0.1763 -0.1841
   33MOL    H1412238   3.697   4.061   0.855  2.0584  1.3044  1.6494
   33MOL    H1512239   3.533   4.052   0.902  0.5781 -1.2386 -0.2238
   33MOL    H1612240   3.657   3.844   0.820 -0.5796  0.1937 -0.5187
   33MOL    H1712241   3.715   3.597   0.816 -2.5338  0.6208 -0.0751
   33MOL    H1812242   3.825   3.493   1.010  1.6521  0.4816  0.0586
   33MOL    H1912243   3.855   3.627   1.220 -0.2110 -1.4479  0.6634
   33MOL    H2012244   3.676   4.294   0.800  1.3026 -2.8460  1.2750
   33MOL    C2112245   3.786   3.884   1.266 -0.4866 -0.3766 -0.2753
   33MOL    C2212246   3.717   3.846   1.399 -0.5993 -0.7692 -0.5700
   33MOL    O2312247   3.851   3.806   1.367 -0.0352  0.3330 -0.1206
   33MOL    C2412248   3.617   3.728   1.419 -0.3595  0.2461  0.6415
   33MOL    O2512249   3.626   3.667   1.545 -0.4583  0.3431 -0.0235
   33MOL    C2612250   3.558   3.543   1.562  0.1371  0.2368  0.2571
   33MOL    C2712251   3.441   3.509   1.493 -0.0994 -0.3522 -0.3257
   33MOL    C2812252   3.385   3.383   1.510  0.1196 -0.0523  0.1251
   33MOL    C2912253   3.441   3.291   1.609  0.0639  0.0251  0.1945
   33MOL    C3012254   3.556   3.324   1.682 -0.0064 -0.1874  0.4455
   33MOL    C3112255   3.612   3.451   1.657 -0.2135  0.4010  0.4313
   33MOL    H3212256   3.811   3.989   1.251  0.3275 -0.3395  1.2251
   33MOL    H3312257   3.698   3.934   1.461  1.3208 -0.4902 -0.3539
   33MOL    H3412258   3.630   3.653   1.341  1.1904  3.0055 -1.8758
   33MOL    H3512259   3.520   3.775   1.400 -1.1103 -0.3303  2.9510
   33MOL    H3612260   3.404   3.580   1.420  0.9387 -0.1731 -0.6928
   33MOL    H3712261   3.309   3.348   1.441  1.8362 -1.0258 -1.3285
   33MOL    H3812262   3.393   3.196   1.623 -0.2327  0.1729  0.1954
   33MOL    H3912263   3.607   3.253   1.745  0.7615 -0.5036 -0.5403
   33MOL    C4012264   3.732   3.482   1.734 -0.8026 -0.0858 -0.2107
   33MOL    C4112265   3.724   3.545   1.873  0.6792  0.0095  0.4592
   33MOL    O4212266   3.755   3.404   1.848 -0.4856 -0.4230  0.2812
   33MOL    C4312267   3.591   3.581   1.926 -0.6909 -0.0397 -0.0580
   33MOL    O4412268   3.618   3.608   2.059 -0.3346 -0.0912  0.1708
   33MOL    C4512269   3.516   3.619   2.149 -0.0391 -0.2020 -0.0101
   33MOL    C4612270   3.379   3.616   2.110 -0.9154  0.0594 -0.2573
   33MOL    C4712271   3.277   3.626   2.207 -0.0368 -0.0942 -0.4753
   33MOL    C4812272   3.316   3.650   2.343  0.5806  0.0679 -0.2848
   33MOL    C4912273   3.448   3.644   2.385 -0.2349  0.1638  0.4260
   33MOL    C5012274   3.551   3.645   2.287  0.0547 -0.2198  0.5364
   33MOL    H5112275   3.810   3.526   1.672 -0.9116  1.7048  0.8967
   33MOL    H5212276   3.807   3.608   1.906  0.5727  0.3158  0.1439
   33MOL    H5312277   3.521   3.497   1.918 -3.9333  2.5676 -0.1916
   33MOL    H5412278   3.541   3.667   1.882 -0.2876  0.0439 -0.3504
   33MOL    H5512279   3.341   3.596   2.011  4.2979 -1.7536 -2.0738
   33MOL    H5612280   3.173   3.625   2.180  0.3383 -1.5085 -1.9305
   33MOL    H5712281   3.244   3.667   2.422 -0.6740  0.3087 -1.4737
   33MOL    H5812282   3.477   3.642   2.489 -1.4547 -0.4000  0.7673
   33MOL    C5912283   3.692   3.681   2.326 -0.5354 -0.8511  0.2584
   33MOL    C6012284   3.744   3.756   2.447 -0.5560  1.2526 -0.3180
   33MOL    O6112285   3.747   3.613   2.446  0.0469 -0.2535 -0.4745
   33MOL    C6212286   3.653   3.818   2.551 -0.0220  0.0722  1.2052
   33MOL    O6312287   3.717   3.908   2.641  0.2212 -1.0945  0.1210
   33MOL    C6412288   3.740   4.035   2.606  0.5011  0.0988 -0.0732
   33MOL    C6512289   3.727   4.081   2.470  0.6416 -0.5125  0.1754
   33MOL    C6612290   3.771   4.209   2.439 -0.0215 -0.2575 -0.1148
   33MOL    C6712291   3.811   4.298   2.543 -0.0604 -0.0746 -0.4344
   33MOL    C6812292   3.821   4.253   2.675  0.0453  0.3542  0.5264
   33MOL    C6912293   3.793   4.120   2.707  0.4244 -0.0757  0.3069
   33MOL    H7012294   3.765   3.681   2.246 -0.8774 -0.4973 -0.0521
   33MOL    H7112295   3.835   3.812   2.429  1.1965 -1.4653 -0.2223
   33MOL    H7212296   3.615   3.745   2.622  0.4849  1.9141  3.4410
   33MOL    H7312297   3.565   3.870   2.513  0.6967  0.4722  0.0559
   33MOL    H7412298   3.712   4.018   2.383 -0.2854  0.7499 -0.5905
   33MOL    H7512299   3.767   4.245   2.337 -0.6760 -0.7595 -0.2654
   33MOL    H7612300   3.831   4.402   2.526  2.0993 -0.3267  0.4154
   33MOL    H7712301   3.873   4.318   2.744 -0.6742  1.2833  0.2033
   33MOL    C7812302   3.823   4.058   2.840  0.6003  0.3731  1.1472
   33MOL    C7912303   3.936   3.965   2.875  0.5436  0.7217 -0.4986
   33MOL    O8012304   3.945   4.104   2.888 -0.2790 -0.3839 -0.2440
   33MOL    C8112305   4.023   3.908   2.768 -0.9859  0.1413  0.3946
   33MOL    O8212306   4.135   3.848   2.832  0.0476  0.1854 -0.0785
   33MOL    C8312307   4.216   3.767   2.756 -0.1631 -0.5253 -0.1243
   33MOL    C8412308   4.195   3.742   2.617  0.0172  0.2972 -0.0809
   33MOL    C8512309   4.293   3.679   2.543 -0.1873  0.2879  0.2567
   33MOL    C8612310   4.404   3.622   2.610  0.0705  0.4600  0.4221
   33MOL    C8712311   4.424   3.631   2.750  0.5996 -0.0747 -0.0565
   33MOL    C8812312   4.324   3.704   2.823  0.0204 -0.1895  0.6142
   33MOL    H8912313   3.744   4.068   2.915  1.4423 -0.8282  2.2163
   33MOL    H9012314   3.926   3.903   2.964 -1.9464  0.0460 -1.2121
   33MOL    H9112315   4.063   3.983   2.699  0.7323 -2.0203 -1.0209
   33MOL    H9212316   3.963   3.833   2.716 -2.2158 -0.4248  2.5930
   33MOL    H9312317   4.114   3.784   2.560 -0.3083  0.1867  0.2975
   33MOL    H9412318   4.280   3.662   2.437 -0.7419 -1.8488  0.6292
   33MOL    H9512319   4.472   3.561   2.552 -0.6570 -1.5144  1.5630
   33MOL    H9612320   4.497   3.567   2.798  0.0418  1.2009  2.5638
   33MOL    C9712321   4.331   3.729   2.965  0.0212 -0.3449  1.3586
   33MOL    C9812322   4.258   3.648   3.069 -0.5167  0.7437  0.2467
   33MOL    O9912323   4.396   3.624   3.040  0.0266  0.2448 -0.7435
   33MOL   C10012324   4.171   3.526   3.038  0.1162 -0.0784  0.0712
   33MOL   O10112325   4.144   3.459   3.156 -0.2286  0.5778 -0.1922
   33MOL   C10212326   4.086   3.334   3.157 -0.1636  0.2677  0.1229
   33MOL   C10312327   4.017   3.275   3.043 -0.9027 -0.3540 -0.7922
   33MOL   C10412328   3.950   3.155   3.061  0.3607 -0.3524 -0.2067
   33MOL   C10512329   3.959   3.085   3.184  0.3178 -0.0619 -1.0043
   33MOL   C10612330   4.030   3.141   3.291 -0.5740 -0.9101 -0.4208
   33MOL   C10712331   4.081   3.274   3.287 -0.0909 -0.3451  0.2542
   33MOL   H10812332   4.379   3.823   2.992  1.2558 -0.5337 -0.0981
   33MOL   H10912333   4.235   3.694   3.165 -0.1523  0.4594  0.4729
   33MOL   H11012334   4.225   3.460   2.970 -0.5113 -0.1730 -0.3374
   33MOL   H11112335   4.077   3.551   2.989 -0.3792 -0.8970  0.6009
   33MOL   H11212336   4.017   3.319   2.945  1.8335  1.3394 -0.0928
   33MOL   H11312337   3.888   3.118   2.981  0.7481 -1.1181 -0.1658
   33MOL   H11412338   3.906   2.992   3.191  2.2238 -1.1907 -1.0984
   33MOL   H11512339   4.041   3.085   3.382  1.1373  0.6364  0.3569
   33MOL   C11612340   4.148   3.346   3.405 -0.6245  0.3989 -0.0803
   33MOL   C11712341   4.087   3.457   3.483 -0.0249 -1.2077 -0.3124
   33MOL   O11812342   4.075   3.315   3.520 -0.3504 -0.1547 -0.3878
   33MOL   C11912343   3.966   3.532   3.440  0.5568 -0.4827  0.1812
   33MOL   O12012344   3.931   3.621   3.545  0.6422 -0.0351 -0.1495
   33MOL   C12112345   3.893   3.579   3.668 -0.2820 -0.3343  0.0014
   33MOL   C12212346   3.847   3.449   3.695  0.3271  0.0227  0.4793
   33MOL   C12312347   3.809   3.401   3.816  0.4599  0.6453  0.2015
   33MOL   C12412348   3.816   3.490   3.925 -0.0567  0.7113  0.2319
   33MOL   C12512349   3.866   3.623   3.904 -0.2582 -0.0005  0.3637
   33MOL   C12612350   3.898   3.668   3.774  0.2614  0.9503 -0.2117
   33MOL   H12712351   4.252   3.314   3.406 -0.1413  1.9156 -1.0210
   33MOL   H12812352   4.167   3.510   3.536 -0.4963 -0.1018 -0.6845
   33MOL   H12912353   3.891   3.454   3.423 -2.0323  1.8137  0.7929
   33MOL   H13012354   3.986   3.587   3.348  0.3400 -1.2412 -0.3308
   33MOL   H13112355   3.831   3.387   3.608  1.8427 -1.6022  1.3322
   33MOL   H13212356   3.761   3.305   3.828 -1.4772  1.5385 -0.2812
   33MOL   H13312357   3.776   3.461   4.021 -1.4421 -2.3005 -1.2021
   33MOL   H13412358   3.857   3.691   3.987  1.3539  2.9281 -1.7527
   33MOL   C13512359   3.917   3.811   3.754  0.2043 -0.7203  0.6434
   33MOL   C13612360   3.814   3.920   3.717  0.4956  0.4854  0.2616
   33MOL   O13712361   3.852   3.892   3.853 -0.0751 -0.1499 -0.4248
   33MOL   C13812362   3.665   3.909   3.690  0.1949  0.1852  0.2564
   33MOL   O13912363   3.627   3.911   3.556  0.0448  0.1375  0.2500
   33MOL   C14012364   3.604   3.797   3.490  0.6576  0.6225  0.2688
   33MOL   C14112365   3.585   3.674   3.553 -0.5310 -0.0803  0.4710
   33MOL   C14212366   3.582   3.554   3.471  0.9348  0.7982 -0.1005
   33MOL   C14312367   3.589   3.552   3.334  0.0917 -0.1298  0.3154
   33MOL   C14412368   3.606   3.675   3.275  0.7936 -0.2161  0.0551
   33MOL   C14512369   3.616   3.800   3.343  0.2033 -0.2168  0.2022
   33MOL   H14612370   4.023   3.829   3.738  0.3891 -0.8140  1.7645
   33MOL   H14712371   3.851   4.020   3.698 -0.3471  0.5375 -1.1340
   33MOL   H14812372   3.635   4.005   3.733  0.9882  0.7291 -0.3782
   33MOL   H14912373   3.618   3.831   3.751  0.3160  0.8214  1.1731
   33MOL   H15012374   3.594   3.658   3.659 -0.1986 -2.4893  0.1156
   33MOL   H15112375   3.565   3.467   3.532 -1.3154  1.3341  0.0790
   33MOL   H15212376   3.580   3.461   3.276  1.7179 -0.5514  0.7052
   33MOL   H15312377   3.612   3.681   3.167  0.9224  2.3584  0.1683
   33MOL   C15412378   3.623   3.935   3.283  0.1477  0.2783 -0.4942
   33MOL   C15512379   3.758   4.009   3.272  0.2052  0.0393  0.1160
   33MOL   O15612380   3.699   3.933   3.163  0.1533  0.0780  0.1262
   33MOL   C15712381   3.879   3.960   3.330 -0.2793 -0.3857 -0.2170
   33MOL   O15812382   3.996   4.032   3.288  0.2270  0.0640 -0.2129
   33MOL   C15912383   4.119   3.979   3.320 -0.1677  0.0118  0.6052
   33MOL   C16012384   4.136   3.886   3.427 -0.4839  0.1088  0.4859
   33MOL   C16112385   4.267   3.841   3.447  0.5698  0.3161 -0.7789
   33MOL   C16212386   4.371   3.875   3.358 -0.6508  0.3076  0.6666
   33MOL   C16312387   4.353   3.968   3.250  0.4953 -0.1617 -0.0531
   33MOL   C16412388   4.225   4.026   3.233  0.3268 -0.5498 -0.0765
   33MOL   H16512389   3.533   3.994   3.293 -0.6453 -0.5863 -2.2055
   33MOL   H16612390   3.751   4.116   3.252 -0.5773 -0.0278 -0.0138
   33MOL   H16712391   3.882   3.853   3.311 -0.9925 -0.8517  2.1892
   33MOL   H16812392   3.878   3.977   3.438  0.7252  0.7324 -0.3681
   33MOL   H16912393   4.056   3.860   3.495 -0.6726 -0.8972 -0.1126
   33MOL   H17012394   4.276   3.780   3.536  1.1543  2.0907  0.4221
   33MOL   H17112395   4.473   3.842   3.374 -0.2971  1.5849  1.1384
   33MOL   H17212396   4.433   3.990   3.182  0.0691 -0.4285 -0.6462
   33MOL   C17312397   4.201   4.122   3.125  0.2834  0.3370  0.5169
   33MOL   C17412398   4.179   4.272   3.136 -0.0137  0.1342  0.4260
   33MOL   O17512399   4.313   4.219   3.123  0.1826 -0.0337  0.3667
   33MOL   C17612400   4.151   4.347   3.263 -0.1467 -0.0280  0.4800
   33MOL   O17712401   4.014   4.327   3.281  0.0942 -0.6922  0.2439
   33MOL   C17812402   3.945   4.450   3.293  1.3371 -0.2191 -0.4274
   33MOL   C17912403   3.956   4.555   3.200 -0.3626 -0.1344 -0.3726
   33MOL   C18012404   3.894   4.681   3.231  0.1459  0.1907  0.5652
   33MOL   C18112405   3.822   4.702   3.347 -0.0269  0.0106  0.4424
   33MOL   C18212406   3.819   4.594   3.442  1.2839  0.4952  0.3489
   33MOL   C18312407   3.875   4.468   3.414  0.4497  0.9284 -0.2532
   33MOL   H18412408   4.192   4.055   3.039 -1.4919  0.8286  0.3127
   33MOL   H18512409   4.140   4.313   3.043  1.5926 -0.2212 -0.4223
   33MOL   H18612410   4.187   4.449   3.249  1.8068 -0.5104  1.6739
   33MOL   H18712411   4.204   4.297   3.345 -2.0470 -1.7268  0.7085
   33MOL   H18812412   4.006   4.537   3.106  0.6694  0.5734  0.0221
   33MOL   H18912413   3.914   4.763   3.162  3.8342  0.5571  1.9395
   33MOL   H19012414   3.767   4.794   3.366  0.1717  0.4207 -0.8970
   33MOL   H19112415   3.776   4.618   3.538  1.0901 -0.5938  0.5329
   33MOL   C19212416   3.876   4.370   3.527  0.0459  0.9811 -0.5346
   33MOL   C19312417   3.756   4.283   3.570 -0.2852 -0.4847 -0.4409
   33MOL   O19412418   3.859   4.233   3.486  0.0041  0.4762  0.4496
   33MOL   C19512419   3.623   4.256   3.510  0.4234  0.2590 -0.3768
   33MOL   O19612420   3.592   4.337   3.401  0.2927 -0.1486  0.1504
   33MOL   C19712421   3.541   4.467   3.403 -0.6799  0.8601  0.4367
   33MOL   C19812422   3.503   4.525   3.525  0.6532  0.8335 -0.7288
   33MOL   C19912423   3.456   4.656   3.525  0.5430  0.9210  0.0647
   33MOL   C20012424   3.464   4.730   3.408  0.5254 -0.4890  0.5689
   33MOL   C20112425   3.494   4.670   3.285 -0.0511  0.3251 -0.2942
   33MOL   C20212426   3.528   4.535   3.285 -0.6704  0.4242  0.3385
   33MOL   H20312427   3.963   4.372   3.592 -1.4429 -1.2098  1.6494
   33MOL   H20412428   3.761   4.264   3.677 -2.6123  2.8681  0.3477
   33MOL   H20512429   3.543   4.281   3.580  1.8540  1.5079  0.8785
   33MOL   H20612430   3.615   4.149   3.497 -1.9532  0.2538  0.8442
   33MOL   H20712431   3.465   4.469   3.609  0.2290  0.4365 -1.1798
   33MOL   H20812432   3.417   4.705   3.613 -0.6821  2.0920 -1.1143
   33MOL   H20912433   3.427   4.832   3.408 -1.6321 -1.2315 -1.4495
   33MOL   H21012434   3.498   4.724   3.191 -0.6816  0.7951 -0.0590
   33MOL   C21112435   3.587   4.470   3.166  0.4397  0.3068  0.3688
   33MOL   C21212436   3.511   4.378   3.074  0.4062  0.3525  0.1910
   33MOL   O21312437   3.536   4.520   3.043  0.1860  0.2235  0.6450
   33MOL   C21412438   3.373   4.324   3.104 -0.0695  0.2430 -0.1833
   33MOL   O21512439   3.309   4.284   2.981  0.0121 -0.0830  0.7382
   33MOL   C21612440   3.330   4.163   2.911  0.0127 -0.4676  0.0279
   33MOL   C21712441   3.418   4.064   2.957  0.1760 -0.5615 -0.7549
   33MOL   C21812442   3.435   3.948   2.880 -0.4240  0.0133  0.1614
   33MOL   C21912443   3.363   3.936   2.755 -0.4575 -0.0656  0.1406
   33MOL   C22012444   3.288   4.045   2.706 -0.2241  0.7781  0.2910
   33MOL   C22112445   3.266   4.153   2.787  0.0874  0.3259 -0.6966
   33MOL   H22212446   3.694   4.483   3.171  0.6691 -1.5199  0.3285
   33MOL   H22312447   3.565   4.313   3.006 -1.6848 -0.5973 -0.5841
   33MOL   H22412448   3.318   4.406   3.150 -0.8769 -0.2091 -0.3295
   33MOL   H22512449   3.364   4.245   3.178  0.3196  0.4428  0.0776
   33MOL   H22612450   3.476   4.077   3.047 -0.9945  2.5218 -0.3973
   33MOL   H22712451   3.503   3.873   2.917  2.2300  1.1487 -2.2635
   33MOL   H22812452   3.363   3.845   2.697 -0.7769  0.5252 -0.7935
   33MOL   H22912453   3.247   4.048   2.606  0.6727 -1.1439 -0.1610
   33MOL   C23012454   3.183   4.262   2.743 -0.0100  0.0295  0.1788
   33MOL   C23112455   3.223   4.359   2.641  1.0305 -0.1079  0.0824
   33MOL   O23212456   3.135   4.250   2.608 -0.0562 -0.0130 -0.3378
   33MOL   C23312457   3.370   4.357   2.581  0.1656 -0.7885  0.2211
   33MOL   O23412458   3.388   4.434   2.460 -0.5180  0.2011 -0.0094
   33MOL   C23512459   3.457   4.554   2.468 -0.8492 -0.0132  0.0993
   33MOL   C23612460   3.443   4.647   2.573 -0.0361  0.0499 -0.2918
   33MOL   C23712461   3.524   4.763   2.575  0.6091  0.1040  0.3927
   33MOL   C23812462   3.620   4.782   2.471 -0.3232 -0.0776  0.1917
   33MOL   C23912463   3.627   4.697   2.360 -0.0396 -0.2250  0.0273
   33MOL   C24012464   3.541   4.581   2.355 -0.2095 -0.0374 -0.0556
   33MOL   H24112465   3.097   4.278   2.807  0.1583  0.6468  0.2592
   33MOL   H24212466   3.177   4.458   2.644 -0.3979 -0.7950  2.4803
   33MOL   H24312467   3.397   4.256   2.550  0.6250 -0.7536  0.4945
   33MOL   H24412468   3.444   4.372   2.659  0.9881 -1.5093 -0.4067
   33MOL   H24512469   3.386   4.636   2.664 -0.3749  2.4758 -0.1731
   33MOL   H24612470   3.527   4.833   2.657 -0.9410 -0.4515  0.9562
   33MOL   H24712471   3.673   4.876   2.474 -1.2777  0.4572  0.2365
   33MOL   H24812472   3.688   4.715   2.273  2.1639 -1.8538  1.1948
   33MOL   C24912473   3.554   4.481   2.247 -0.3293  0.8233 -0.6718
   33MOL   C25012474   3.448   4.426   2.151 -0.1119  0.1380 -0.2585
   33MOL   O25112475   3.523   4.546   2.119  0.2337  0.1143  0.1226
   33MOL   C25212476   3.303   4.449   2.170 -0.4579 -0.2626  0.3134
   33MOL   O25312477   3.232   4.449   2.044 -0.6936 -0.0831  0.4582
   33MOL   C25412478   3.096   4.443   2.039  0.5712  0.2496  0.3218
   33MOL   C25512479   3.012   4.488   2.140  0.0476 -0.1571 -0.3554
   33MOL   C25612480   2.875   4.492   2.124 -0.0727  0.6326  0.0378
   33MOL   C25712481   2.816   4.458   2.003  0.7039 -0.2185 -0.2741
   33MOL   C25812482   2.898   4.415   1.899 -0.3268  0.0160 -0.2730
   33MOL   C25912483   3.040   4.403   1.916  0.0027 -0.3670 -0.0176
   33MOL   H26012484   3.636   4.411   2.261  0.5752  2.0226  0.2166
   33MOL   H26112485   3.479   4.336   2.098  0.0704 -0.0253  0.1263
   33MOL   H26212486   3.284   4.543   2.221  0.8887  0.7458 -1.0114
   33MOL   H26312487   3.262   4.372   2.236 -2.2582  1.0759  0.7802
   33MOL   H26412488   3.055   4.518   2.234 -0.2376  0.6802 -0.4842
   33MOL   H26512489   2.815   4.551   2.192 -0.7405  3.7656 -3.1293
   33MOL   H26612490   2.709   4.460   1.992  0.2148 -1.0620  3.6968
   33MOL   H26712491   2.835   4.394   1.814 -1.1679  0.6996  0.1745
   33MOL   C26812492   3.122   4.368   1.800 -0.6255 -0.4103  0.1383
   33MOL   C26912493   3.187   4.234   1.795  0.7614 -0.1922  0.5014
   33MOL   O27012494   3.069   4.262   1.714 -0.5091 -0.0666 -0.1259
   33MOL   C27112495   3.160   4.122   1.895 -0.1792  0.7052 -0.5330
   33MOL   O27212496   3.244   4.138   2.013  0.0930  0.2114 -0.7629
   33MOL   C27312497   3.369   4.066   2.014  0.2868  0.2941 -0.2952
   33MOL   C27412498   3.428   4.015   1.895  0.6373  0.6657  0.2562
   33MOL   C27512499   3.555   3.955   1.897 -0.7257 -0.1695 -0.8993
   33MOL   C27612500   3.625   3.943   2.018  0.2544  0.3920 -0.2718
   33MOL   C27712501   3.565   3.992   2.138 -0.1349 -0.2215 -0.1925
   33MOL   C27812502   3.437   4.057   2.134  0.2931  0.6637  0.2442
   33MOL   H27912503   3.172   4.452   1.751 -0.8547 -0.8731 -0.8975
   33MOL   H28012504   3.275   4.219   1.732  0.3991 -1.1960  0.2249
   33MOL   H28112505   3.170   4.025   1.846 -0.7441 -0.6597  1.9795
   33MOL   H28212506   3.059   4.120   1.936  0.1268  3.2846  0.4552
   33MOL   H28312507   3.395   4.022   1.792  2.4430  2.4698 -0.2405
   33MOL   H28412508   3.595   3.920   1.803  0.9803 -0.4449 -0.0797
   33MOL   H28512509   3.717   3.885   2.021 -0.3649 -0.5785  0.4845
   33MOL   H28612510   3.622   3.986   2.230  0.8461  0.0186 -0.7870
   33MOL   C28712511   3.394   4.102   2.272 -0.1561  0.7296  0.2276
   33MOL   C28812512   3.267   4.053   2.343  0.1931  0.2614  0.3462
   33MOL   O28912513   3.398   3.992   2.366 -0.1460  0.1989 -0.5668
   33MOL   C29012514   3.164   3.962   2.287 -0.6769 -0.1536  0.1903
   33MOL   O29112515   3.038   4.036   2.277  0.6552 -0.0369 -0.0755
   33MOL   C29212516   2.941   3.963   2.214 -0.2568 -0.0266  0.1438
   33MOL   C29312517   2.970   3.890   2.098 -0.4573 -0.2895  0.5523
   33MOL   C29412518   2.863   3.823   2.033  0.4395  0.1477 -1.1669
   33MOL   C29512519   2.734   3.832   2.088  0.2973  0.1789 -0.0512
   33MOL   C29612520   2.708   3.908   2.204  0.1405  0.1553 -0.4034
   33MOL   C29712521   2.813   3.971   2.268 -0.6090  0.2982 -0.1572
   33MOL   H29812522   3.438   4.192   2.314  0.5597  0.8140 -0.7044
   33MOL   H29912523   3.238   4.115   2.427 -0.2435 -0.3036  0.6126
   33MOL   H30012524   3.156   3.868   2.342 -2.4732 -0.8365 -1.2001
   33MOL   H30112525   3.202   3.945   2.186  0.7700 -1.8896  1.0009
   33MOL   H30212526   3.068   3.897   2.053  0.7697  0.5877  3.2629
   33MOL   H30312527   2.883   3.785   1.933 -1.7475  0.8217 -1.8937
   33MOL   H30412528   2.650   3.783   2.041 -0.2363  0.0749  1.0086
   33MOL   H30512529   2.609   3.906   2.247  0.1515 -0.0979 -0.3928
   33MOL   C30612530   2.803   4.068   2.386 -0.4249 -0.3544 -0.1339
   33MOL   C30712531   2.723   4.196   2.393 -0.4844  0.6176 -1.0035
   33MOL   O30812532   2.671   4.070   2.441  0.5971 -0.4647 -0.4516
   33MOL   C30912533   2.660   4.253   2.267  0.0359  0.2115  0.9793
   33MOL   O31012534   2.586   4.377   2.287  0.1166 -0.3196 -0.1456
   33MOL   C31112535   2.464   4.363   2.347 -0.4973 -0.1844 -0.2287
   33MOL   C31212536   2.409   4.236   2.385 -0.0307  0.2676 -0.5319
   33MOL   C31312537   2.292   4.231   2.467  0.4975 -0.8975 -0.0940
   33MOL   C31412538   2.227   4.351   2.511 -0.3810 -0.4658 -0.4394
   33MOL   C31512539   2.278   4.474   2.470  1.1048 -0.1236  0.2807
   33MOL   C31612540   2.394   4.482   2.390 -0.3087  0.4466 -0.6023
   33MOL   H31712541   2.867   4.030   2.466  1.6547 -0.2075 -1.6851
   33MOL   H31812542   2.737   4.269   2.472 -1.1787 -1.3529  0.9659
   33MOL   H31912543   2.601   4.176   2.216 -2.1174  0.5726  2.8585
   33MOL   H32012544   2.747   4.266   2.202 -0.1521 -0.9109  0.4843
   33MOL   H32112545   2.457   4.140   2.374  0.3720 -0.1120  3.7156
   33MOL   H32212546   2.251   4.132   2.483 -2.9726  0.4966  0.0427
   33MOL   H32312547   2.138   4.355   2.572  1.8369  1.0588  2.8549
   33MOL   H32412548   2.234   4.558   2.521  1.0715  0.4803 -0.7384
   33MOL   C32512549   2.451   4.620   2.382 -1.1221  0.5683 -0.6050
   33MOL   C32612550   2.455   4.709   2.259  0.5187 -0.4039  0.2875
   33MOL   O32712551   2.343   4.707   2.349 -0.1818 -0.0421 -0.2185
   33MOL   C32812552   2.433   4.648   2.125  0.5671  0.3438  0.3222
   33MOL   O32912553   2.432   4.755   2.030  0.4559 -0.0726 -0.1117
   33MOL   C33012554   2.312   4.834   2.031  0.5199  1.0281  0.2497
   33MOL   C33112555   2.194   4.800   2.102 -0.2033  0.0774 -0.3982
   33MOL   C33212556   2.088   4.893   2.090  0.2548 -0.3796  0.5122
   33MOL   C33312557   2.089   5.000   2.001 -0.0613  0.1743 -0.6796
   33MOL   C33412558   2.196   5.028   1.930 -0.1316  0.2375  0.5732
   33MOL   C33512559   2.319   4.951   1.947  0.1437  0.3918  0.1131
   33MOL   H33612560   2.488   4.657   2.477 -0.7291 -0.2408 -0.4389
   33MOL   H33712561   2.525   4.792   2.267  1.7101 -1.2608 -1.0021
   33MOL   H33812562   2.339   4.592   2.122  0.2544  0.8688  0.2361
   33MOL   H33912563   2.520   4.591   2.095  0.8395 -0.6926  2.9350
   33MOL   H34012564   2.186   4.723   2.178 -0.0040  2.5455  2.2220
   33MOL   H34112565   2.000   4.875   2.150  1.3121 -2.4947  1.4795
   33MOL   H34212566   2.003   5.064   1.987 -1.3537 -0.8928  2.1586
   33MOL   H34312567   2.189   5.105   1.854 -3.3954 -0.2891  0.2761
   33MOL   C34412568   2.438   4.975   1.861 -0.4519  0.3404  0.1844
   33MOL   C34512569   2.475   4.907   1.727  1.2348  0.1310 -0.0294
   33MOL   O34612570   2.404   5.034   1.734  0.0036  0.1019 -0.4425
   33MOL   C34712571   2.384   4.799   1.670  0.0780  1.2353 -0.9438
   33MOL   O34812572   2.330   4.823   1.547  0.1229  0.7728  0.1005
   33MOL   C34912573   2.199   4.774   1.531  0.7225 -0.1190 -0.4826
   33MOL   C35012574   2.173   4.635   1.515  1.0194 -0.1082  0.3819
   33MOL   C35112575   2.043   4.588   1.485  0.1887  0.4733 -0.3943
   33MOL   C35212576   1.936   4.675   1.486  0.4804  0.6102 -0.0487
   33MOL   C35312577   1.958   4.806   1.519 -0.2973 -0.2126 -0.9345
   33MOL   C35412578   2.084   4.860   1.544 -0.9040  0.1127 -0.5870
   33MOL   H35512579   2.516   5.033   1.912 -1.7534  1.9240  0.4128
   33MOL   H35612580   2.572   4.925   1.682  0.5725  1.4681 -0.9824
   33MOL   H35712581   2.308   4.776   1.746 -0.0143 -0.0483 -1.4071
   33MOL   H35812582   2.440   4.705   1.670  0.4293  1.3775  2.0294
   33MOL   H35912583   2.256   4.566   1.512  1.2976  0.1547  1.4685
   33MOL   H36012584   2.036   4.483   1.462  3.1199 -0.2762  1.8533
   33MOL   H36112585   1.832   4.648   1.474 -0.0390  2.5682 -0.1807
   33MOL   H36212586   1.875   4.867   1.551  0.1707 -0.0190 -0.0548
   33MOL   C36312587   2.094   4.992   1.586  0.2790  0.2394 -0.0840
   33MOL   C36412588   2.166   5.104   1.509  0.2963  0.9842  0.1195
   33MOL   O36512589   2.024   5.079   1.495  0.1115  0.0076  0.0639
   33MOL   C36612590   2.246   5.084   1.387  0.0131  0.1379 -0.2924
   33MOL   O36712591   2.283   5.206   1.324  0.2217 -0.0543  0.4504
   33MOL   C36812592   2.191   5.261   1.229 -0.8733  0.4189  0.1455
   33MOL   C36912593   2.065   5.206   1.196  0.6643  0.1000  0.1493
   33MOL   C37012594   1.982   5.267   1.096 -0.4629  0.6278 -0.0988
   33MOL   C37112595   2.016   5.391   1.044  0.3665 -0.2523  0.4517
   33MOL   C37212596   2.145   5.441   1.070 -0.4234 -0.4104 -0.2920
   33MOL   C37312597   2.230   5.383   1.167 -0.0734  0.0061 -0.2779
   33MOL   H37412598   2.059   5.000   1.688  0.2851  0.2444 -0.0823
   33MOL   H37512599   2.183   5.195   1.567 -0.3033  1.3789 -0.3129
   33MOL   H37612600   2.205   5.015   1.315  0.0036  0.4538 -0.5930
   33MOL   H37712601   2.332   5.032   1.429 -0.1959  0.5087  0.6216
   33MOL   H37812602   2.033   5.116   1.247 -1.4549  0.5163 -0.4160
   33MOL   H37912603   1.887   5.229   1.063  0.7416 -2.2669 -0.3652
   33MOL   H38012604   1.945   5.441   0.981  1.2002 -0.1381 -0.4190
   33MOL   H38112605   2.175   5.529   1.016  0.1151 -0.2205  0.3056
   33MOL   H38212606   2.332   5.416   1.182 -0.3124  0.3744  0.6224
   34MOL     C112607   2.314   1.350   3.195  0.7810 -0.4978 -0.3788
   34MOL     C212608   2.350   1.456   3.288  0.2605  0.1825  0.2776
   34MOL     O312609   2.346   1.479   3.145 -0.5687 -0.0401 -0.8187
   34MOL     C412610   2.487   1.474   3.354 -0.4212 -0.1306 -0.4383
   34MOL     O512611   2.485   1.585   3.443  0.0777  0.4777  0.3280
   34MOL     C612612   2.489   1.716   3.400 -0.1379 -0.3377  0.0224
   34MOL     C712613   2.520   1.755   3.268 -0.5806 -0.1499  0.2513
   34MOL     C812614   2.525   1.888   3.232 -0.6554 -0.1690  0.3736
   34MOL     C912615   2.478   1.986   3.320  0.5415 -0.0115  0.5329
   34MOL    C1012616   2.448   1.948   3.454 -0.0760  0.0133  0.5405
   34MOL    C1112617   2.460   1.814   3.495  0.5321  0.7452 -0.2726
   34MOL    H1212618   2.207   1.328   3.190  0.9065 -1.1782 -0.0180
   34MOL    H1312619   2.270   1.508   3.340 -1.2492 -0.8185 -1.0496
   34MOL    H1412620   2.574   1.481   3.289 -0.6019  0.5645 -0.6135
   34MOL    H1512621   2.511   1.390   3.420 -0.4692  1.1281  1.2215
   34MOL    H1612622   2.548   1.679   3.196  0.3837 -1.2412  1.7367
   34MOL    H1712623   2.553   1.917   3.131  0.0864 -0.9282  0.3624
   34MOL    H1812624   2.463   2.088   3.289  0.4965  0.4200  1.9142
   34MOL    H1912625   2.424   2.029   3.522  0.9112  1.6801 -1.0583
   34MOL    H2012626   2.388   1.273   3.176  2.1676  1.0753 -1.5450
   34MOL    C2112627   2.417   1.772   3.627 -0.1726  0.1548  0.0828
   34MOL    C2212628   2.505   1.705   3.726  0.1282 -0.4095 -0.9051
   34MOL    O2312629   2.483   1.848   3.728  0.1016 -0.3300  0.3342
   34MOL    C2412630   2.649   1.667   3.703  0.5559 -0.1849  0.2983
   34MOL    O2512631   2.715   1.618   3.823  0.3960  0.5414  0.1336
   34MOL    C2612632   2.823   1.692   3.868 -0.0408 -0.0353  0.1657
   34MOL    C2712633   2.817   1.837   3.863 -0.5258  0.6816  0.3764
   34MOL    C2812634   2.935   1.909   3.907 -0.0208 -0.2332  0.1293
   34MOL    C2912635   3.046   1.839   3.959 -0.3240  0.6173 -0.5413
   34MOL    C3012636   3.044   1.697   3.976 -0.0662 -0.7419  0.3817
   34MOL    C3112637   2.934   1.625   3.924  0.7388  0.0544 -0.3639
   34MOL    H3212638   2.310   1.756   3.639 -0.4995  1.1688 -1.4192
   34MOL    H3312639   2.449   1.642   3.794  0.9870  1.1596  1.3289
   34MOL    H3412640   2.704   1.749   3.657  1.0074 -0.6691 -0.0312
   34MOL    H3512641   2.656   1.587   3.630  0.5761 -0.2551  0.3773
   34MOL    H3612642   2.723   1.882   3.836 -1.1682 -0.6279  0.3824
   34MOL    H3712643   2.930   2.016   3.916  1.7235 -0.2974  2.2409
   34MOL    H3812644   3.134   1.892   3.993  0.6476 -0.2378 -1.6372
   34MOL    H3912645   3.123   1.643   4.027  1.1291  1.5288  1.0192
   34MOL    C4012646   2.937   1.476   3.931 -0.4838 -1.1148 -0.1235
   34MOL    C4112647   2.967   1.394   3.809  0.4354 -0.3124  0.2858
   34MOL    O4212648   3.067   1.432   3.903  0.3823 -0.2318 -0.1725
   34MOL    C4312649   2.968   1.457   3.668 -0.2901 -0.5378 -0.0473
   34MOL    O4412650   3.049   1.383   3.578 -0.1884  0.0224  0.0489
   34MOL    C4512651   3.187   1.402   3.587 -0.2411 -0.0839 -0.0868
   34MOL    C4612652   3.243   1.523   3.634 -0.6035 -0.8259  0.1776
   34MOL    C4712653   3.378   1.544   3.644 -0.6947  0.0739  0.2683
   34MOL    C4812654   3.465   1.441   3.606  0.6773 -0.5718  0.4378
   34MOL    C4912655   3.413   1.324   3.552 -0.8860  0.3733 -0.1306
   34MOL    C5012656   3.274   1.303   3.545 -0.2664  0.8289  0.8657
   34MOL    H5112657   2.896   1.426   4.018  2.9054 -0.3916  2.0018
   34MOL    H5212658   2.947   1.287   3.814  1.4912 -0.5146  0.4093
   34MOL    H5312659   2.982   1.565   3.675 -1.1085 -0.3715 -0.9168
   34MOL    H5412660   2.866   1.451   3.631 -0.2976  1.4860 -0.4418
   34MOL    H5512661   3.188   1.611   3.663 -0.2677 -0.2529 -0.9251
   34MOL    H5612662   3.418   1.635   3.686 -1.2719  1.1097 -1.3652
   34MOL    H5712663   3.573   1.450   3.598  0.3979  2.4055 -0.5536
   34MOL    H5812664   3.479   1.244   3.524  0.2271  0.8109  1.1966
   34MOL    C5912665   3.217   1.179   3.481  0.1698 -0.2022  0.2729
   34MOL    C6012666   3.238   1.139   3.335  0.1445  0.2082 -0.6090
   34MOL    O6112667   3.320   1.091   3.441 -1.2763 -0.3941  0.0545
   34MOL    C6212668   3.317   1.224   3.241 -0.9440  0.3309 -0.2117
   34MOL    O6312669   3.357   1.145   3.128  0.1132 -0.4009  0.3690
   34MOL    C6412670   3.442   1.204   3.037  0.0077  0.4617 -0.5444
   34MOL    C6512671   3.498   1.330   3.054 -0.0724 -0.1434  0.3222
   34MOL    C6612672   3.582   1.391   2.952 -0.5459 -0.2724  0.5762
   34MOL    C6712673   3.600   1.322   2.830 -0.5597 -0.4100  0.1603
   34MOL    C6812674   3.541   1.193   2.818 -0.1418  0.4983  0.7682
   34MOL    C6912675   3.469   1.127   2.920 -0.1923  0.6770  0.2315
   34MOL    H7012676   3.134   1.134   3.535 -1.8682  0.1339 -2.4689
   34MOL    H7112677   3.179   1.064   3.283 -1.3037  1.8586 -1.3920
   34MOL    H7212678   3.395   1.282   3.291 -0.9641  0.3848 -0.2422
   34MOL    H7312679   3.251   1.296   3.193  0.3578  2.3372  0.9051
   34MOL    H7412680   3.496   1.384   3.147  0.3205 -0.1796  0.3533
   34MOL    H7512681   3.634   1.482   2.979 -1.0507  0.5258 -1.0683
   34MOL    H7612682   3.653   1.372   2.750 -0.2961 -1.8416 -0.5787
   34MOL    H7712683   3.554   1.138   2.727 -1.7438  0.0458  0.7912
   34MOL    C7812684   3.396   0.994   2.920 -0.4454  0.3367 -0.5230
   34MOL    C7912685   3.256   0.966   2.869 -0.5627 -0.6691 -0.4354
   34MOL    O8012686   3.378   0.940   2.788  0.1017 -1.4422  0.1988
   34MOL    C8112687   3.170   1.087   2.824 -0.4197  0.4559 -0.0213
   34MOL    O8212688   3.094   1.050   2.704 -0.0440 -0.0289 -0.3017
   34MOL    C8312689   3.031   1.156   2.636 -0.0064  0.0459  0.1514
   34MOL    C8412690   2.979   1.276   2.698  0.1670  0.2328  0.1711
   34MOL    C8512691   2.923   1.376   2.615  0.3131  0.2815  0.2642
   34MOL    C8612692   2.908   1.355   2.477 -0.0052 -0.2997 -0.2837
   34MOL    C8712693   2.927   1.231   2.420 -0.2377  0.5995 -0.5630
   34MOL    C8812694   2.988   1.129   2.499  1.1535  0.2013  0.5042
   34MOL    H8912695   3.431   0.932   3.003 -0.3137 -0.8518 -1.4504
   34MOL    H9012696   3.206   0.879   2.910 -0.7959 -0.8000 -0.9927
   34MOL    H9112697   3.233   1.174   2.806 -0.7037  0.6210 -0.2103
   34MOL    H9212698   3.103   1.117   2.904 -1.0206  1.2871 -0.8322
   34MOL    H9312699   3.001   1.302   2.801 -1.0672  0.6397  0.3363
   34MOL    H9412700   2.896   1.472   2.656  0.6200  0.6507 -0.3828
   34MOL    H9512701   2.852   1.425   2.416 -1.0050 -3.0356 -2.6216
   34MOL    H9612702   2.893   1.222   2.318  0.1988 -1.2949 -0.5591
   34MOL    C9712703   3.013   0.999   2.432  0.6827  0.5370 -0.5111
   34MOL    C9812704   2.910   0.886   2.435 -0.2168  0.1687 -0.8849
   34MOL    O9912705   2.937   0.966   2.313  0.0458  0.2178  0.0800
   34MOL   C10012706   2.770   0.898   2.488  0.1752 -0.1433 -0.6840
   34MOL   O10112707   2.772   0.904   2.635  0.2126  0.7158 -0.7537
   34MOL   C10212708   2.657   0.938   2.701 -0.0702  0.6516  0.1844
   34MOL   C10312709   2.587   1.051   2.656  0.4914  0.6161 -0.4619
   34MOL   C10412710   2.463   1.093   2.713 -0.5383  0.1211  0.6866
   34MOL   C10512711   2.419   1.018   2.825  0.3169 -0.4171  0.4723
   34MOL   C10612712   2.485   0.899   2.868  0.6338  0.0561  0.7865
   34MOL   C10712713   2.607   0.863   2.811 -0.6274 -0.2183  0.3254
   34MOL   H10812714   3.119   0.971   2.428  0.6311  0.0674  1.0788
   34MOL   H10912715   2.951   0.785   2.431  0.7532  0.4893  0.4849
   34MOL   H11012716   2.705   0.818   2.454 -0.2862 -0.1282  0.1559
   34MOL   H11112717   2.735   0.992   2.444  1.7957 -0.4379 -2.6825
   34MOL   H11212718   2.641   1.115   2.587  0.7150  0.4814 -0.4140
   34MOL   H11312719   2.411   1.178   2.672 -0.5328 -0.2131 -0.0208
   34MOL   H11412720   2.323   1.037   2.870  0.8730  0.4346  1.3244
   34MOL   H11512721   2.430   0.843   2.942 -1.9867  1.4732 -0.0103
   34MOL   C11612722   2.675   0.738   2.852  0.2547 -0.1214 -0.0590
   34MOL   C11712723   2.815   0.739   2.920  0.4951 -0.3479  0.8218
   34MOL   O11812724   2.686   0.730   2.996  0.6168 -0.1025  0.2617
   34MOL   C11912725   2.889   0.872   2.934 -0.8928 -0.3516  0.2906
   34MOL   O12012726   2.973   0.866   3.049  0.2599 -0.1293  0.2734
   34MOL   C12112727   2.936   0.924   3.166  0.3566 -0.7004  1.0105
   34MOL   C12212728   2.920   1.064   3.168  0.1878  0.2040 -0.6537
   34MOL   C12312729   2.882   1.130   3.290  0.3779  0.2826  0.8785
   34MOL   C12412730   2.879   1.055   3.409  0.5196 -0.3617  0.3338
   34MOL   C12512731   2.897   0.917   3.407  0.1589 -0.7850 -0.0049
   34MOL   C12612732   2.922   0.849   3.283 -0.1840 -0.4224  0.2088
   34MOL   H12712733   2.631   0.647   2.813  2.6079 -0.4273 -2.0408
   34MOL   H12812734   2.876   0.651   2.934 -0.0376 -0.7586  0.5791
   34MOL   H12912735   2.820   0.956   2.940  0.2399  0.6221 -0.1158
   34MOL   H13012736   2.940   0.881   2.839 -0.5488  3.3037  0.7395
   34MOL   H13112737   2.920   1.118   3.074 -0.3344  0.1512 -0.6851
   34MOL   H13212738   2.861   1.236   3.297 -1.1161  0.2179 -2.0043
   34MOL   H13312739   2.875   1.113   3.500  0.6896 -0.3298  0.3218
   34MOL   H13412740   2.899   0.862   3.500  0.5790  3.9967  2.9214
   34MOL   C13512741   2.938   0.702   3.277  0.2032  0.2131 -0.9617
   34MOL   C13612742   3.070   0.637   3.284  0.0730  0.3278  0.3036
   34MOL   O13712743   2.988   0.646   3.399  0.1621 -0.0628  0.5145
   34MOL   C13812744   3.194   0.719   3.281 -0.0250  0.0320 -0.0685
   34MOL   O13912745   3.303   0.632   3.292 -0.0072  0.0043 -0.0612
   34MOL   C14012746   3.421   0.690   3.245 -0.2130  0.5092  0.4704
   34MOL   C14112747   3.456   0.825   3.257 -0.1387 -0.5821  0.1069
   34MOL   C14212748   3.577   0.873   3.205 -0.2617  0.2952  0.4562
   34MOL   C14312749   3.654   0.791   3.119  0.0123  0.0392 -0.1650
   34MOL   C14412750   3.623   0.657   3.117 -0.4695 -0.1350 -0.4951
   34MOL   C14512751   3.504   0.608   3.172 -0.4074 -0.1342 -0.1168
   34MOL   H14612752   2.855   0.651   3.228 -0.4121  0.5187 -0.2527
   34MOL   H14712753   3.076   0.536   3.244 -0.1246 -0.2314  1.6390
   34MOL   H14812754   3.198   0.795   3.359 -1.2216  0.1927 -0.1585
   34MOL   H14912755   3.186   0.763   3.181  0.5925 -0.5523 -0.3799
   34MOL   H15012756   3.392   0.896   3.307 -1.4216 -1.1839 -0.6447
   34MOL   H15112757   3.602   0.978   3.204  0.1054  0.2098  0.0203
   34MOL   H15212758   3.742   0.830   3.070 -0.0868  1.5309  0.7922
   34MOL   H15312759   3.683   0.588   3.060 -0.5371  1.1295 -2.1407
   34MOL   C15412760   3.467   0.466   3.136  0.4959 -0.2796 -0.6681
   34MOL   C15512761   3.349   0.436   3.044 -0.0692 -0.2038 -0.0170
   34MOL   O15612762   3.480   0.422   3.001 -0.2312  0.2245  0.3427
   34MOL   C15712763   3.268   0.538   2.969  0.1302  0.0275 -0.2657
   34MOL   O15812764   3.204   0.467   2.859 -0.5863 -0.1217  0.0804
   34MOL   C15912765   3.250   0.491   2.730  0.4733  0.1434  0.8467
   34MOL   C16012766   3.240   0.624   2.684  1.0775  0.3168  0.0525
   34MOL   C16112767   3.286   0.652   2.556 -0.4675  0.0784 -0.5296
   34MOL   C16212768   3.349   0.550   2.484 -0.1692 -0.3530  0.1946
   34MOL   C16312769   3.355   0.417   2.531 -0.7334  0.4317  0.2531
   34MOL   C16412770   3.295   0.386   2.652  0.6487 -0.3472  0.0434
   34MOL   H16512771   3.484   0.395   3.216  2.8957  0.7534 -0.2338
   34MOL   H16612772   3.300   0.340   3.056 -0.3355 -0.0873 -0.1703
   34MOL   H16712773   3.338   0.613   2.931  1.3359 -1.8745 -1.9052
   34MOL   H16812774   3.188   0.574   3.032 -0.4683  1.3443 -1.7356
   34MOL   H16912775   3.199   0.707   2.739 -0.5253 -0.1400 -0.4328
   34MOL   H17012776   3.283   0.751   2.513 -0.4016  1.2372  2.0404
   34MOL   H17112777   3.395   0.566   2.387  0.0828  1.0796  0.5379
   34MOL   H17212778   3.397   0.340   2.468 -1.3723  1.2889 -1.2463
   34MOL   C17312779   3.312   0.244   2.699 -0.2705 -0.5749  0.1281
   34MOL   C17412780   3.207   0.160   2.750 -0.7243 -0.6117  0.4524
   34MOL   O17512781   3.259   0.137   2.619 -0.1685  0.0616 -0.1064
   34MOL   C17612782   3.062   0.180   2.755  0.2435  0.5655 -0.2746
   34MOL   O17712783   2.984   0.064   2.757  0.1864 -0.5815  0.3027
   34MOL   C17812784   2.858   0.073   2.703  0.5218 -0.2420 -0.0752
   34MOL   C17912785   2.774   0.186   2.716  0.2463 -0.2297 -0.2771
   34MOL   C18012786   2.651   0.201   2.648 -0.1478  0.0339 -0.1518
   34MOL   C18112787   2.600   0.094   2.587 -0.0116  0.7740 -0.5509
   34MOL   C18212788   2.669   8.140   2.592  0.4161  0.1252 -0.0400
   34MOL   C18312789   2.802   8.125   2.646 -0.3373 -0.4156 -1.2454
   34MOL   H18412790   3.414   0.241   2.739  0.6793  0.3546 -2.1300
   34MOL   H18512791   3.246   0.107   2.837  0.6147  1.2503  1.0240
   34MOL   H18612792   3.042   0.235   2.663 -2.6030  0.0247 -0.0299
   34MOL   H18712793   3.031   0.236   2.843  0.5611  0.3793 -0.0466
   34MOL   H18812794   2.806   0.271   2.774 -0.5665 -0.4862  0.5548
   34MOL   H18912795   2.603   0.297   2.646  0.4457  0.3968  1.9149
   34MOL   H19012796   2.507   0.098   2.532 -0.2709  2.5440  0.0055
   34MOL   H19112797   2.632   8.052   2.540  0.6854 -2.3997  3.8316
   34MOL   C19212798   2.879   7.993   2.645 -0.2449  0.4232 -0.2491
   34MOL   C19312799   2.872   7.903   2.766 -0.1251  0.0437 -0.3205
   34MOL   O19412800   2.794   7.877   2.646 -0.2516  0.5271 -0.0275
   34MOL   C19512801   2.791   7.934   2.895 -0.2110 -0.1087 -0.3256
   34MOL   O19612802   2.855   7.867   3.010 -0.3407 -0.0427  0.4548
   34MOL   C19712803   2.789   7.866   3.129 -0.2615  0.1627 -0.6593
   34MOL   C19812804   2.655   7.908   3.149  0.6082 -0.7419  0.7830
   34MOL   C19912805   2.600   7.902   3.279 -0.7278  0.3390 -0.9933
   34MOL   C20012806   2.683   7.854   3.385  0.4660  0.0612  0.6226
   34MOL   C20112807   2.811   7.801   3.364  0.1778  1.2023  0.1316
   34MOL   C20212808   2.865   7.804   3.233 -0.6180  0.2903  0.2257
   34MOL   H20312809   2.974   7.983   2.594  1.1773 -0.1485  2.3864
   34MOL   H20412810   2.951   7.829   2.779  0.9384  1.4118  1.1911
   34MOL   H20512811   2.692   7.891   2.886  0.8921 -3.0583  0.9887
   34MOL   H20612812   2.787   8.041   2.914 -1.7772  0.0722 -1.5810
   34MOL   H20712813   2.606   7.955   3.065  1.6042  0.2581  0.7450
   34MOL   H20812814   2.504   7.946   3.300 -0.3646  1.5395 -1.8258
   34MOL   H20912815   2.644   7.859   3.486 -0.3767 -2.6220  0.4449
   34MOL   H21012816   2.852   7.761   3.456  0.3094  0.4310 -0.2547
   34MOL   C21112817   2.995   7.745   3.203 -0.4907 -0.5456 -0.3139
   34MOL   C21212818   3.109   7.832   3.166 -0.5387 -0.2887  0.8946
   34MOL   O21312819   3.102   7.776   3.297 -0.1753  0.2935  0.2548
   34MOL   C21412820   3.106   7.985   3.167  0.2772  0.6089  0.1858
   34MOL   O21512821   3.235   8.028   3.132  0.8535  0.4246  0.0691
   34MOL   C21612822   3.284   8.042   3.003 -0.2196 -0.5510  0.1919
   34MOL   C21712823   3.219   7.994   2.888 -0.2456 -0.0599 -0.5357
   34MOL   C21812824   3.283   8.020   2.764  0.1477 -0.2368 -0.0411
   34MOL   C21912825   3.418   8.063   2.756  0.0592  0.6041 -0.2777
   34MOL   C22012826   3.487   8.095   2.874 -0.7859 -0.3689  0.4110
   34MOL   C22112827   3.418   8.092   2.996  0.0321 -0.0140 -0.2327
   34MOL   H22212828   2.992   7.637   3.191 -2.1381 -0.7693  1.8131
   34MOL   H22312829   3.169   7.785   3.089 -1.6221 -0.0265 -0.1143
   34MOL   H22412830   3.100   8.011   3.273  0.0534 -2.9767  1.1381
   34MOL   H22512831   3.015   8.029   3.126 -0.9123  0.1857  2.3073
   34MOL   H22612832   3.116   7.963   2.897  0.3109 -1.7675  0.1348
   34MOL   H22712833   3.226   7.998   2.675 -0.7697 -0.3285  0.5626
   34MOL   H22812834   3.472   8.062   2.662 -0.2738  0.2985 -0.4660
   34MOL   H22912835   3.590   8.129   2.882 -1.1300  1.0382 -0.8000
   34MOL   C23012836   3.493   8.153   3.116  0.2571  0.1899 -0.2978
   34MOL   C23112837   3.547   8.072   3.229  0.1593 -0.2644  0.4443
   34MOL   O23212838   3.629   8.117   3.111 -0.3716 -0.4575  0.6950
   34MOL   C23312839   3.536   7.918   3.241 -0.3408  0.2783  0.3597
   34MOL   O23412840   3.659   7.859   3.298 -0.5748 -0.5272  0.0675
   34MOL   C23512841   3.653   7.726   3.339 -0.2417 -0.8212  0.2927
   34MOL   C23612842   3.533   7.641   3.342 -0.1854  0.5412  0.3484
   34MOL   C23712843   3.532   7.513   3.398  0.9871  0.3116  0.0914
   34MOL   C23812844   3.656   7.458   3.446 -0.8612  0.5633 -0.0396
   34MOL   C23912845   3.779   7.530   3.440  0.3186 -0.2133  0.1373
   34MOL   C24012846   3.771   7.664   3.391 -0.1555  0.2587  0.3813
   34MOL   H24112847   3.466   0.086   3.138 -1.8231  0.1201 -2.3973
   34MOL   H24212848   3.571   8.125   3.321 -2.1642  0.4975  0.6429
   34MOL   H24312849   3.502   7.867   3.151 -2.3226  1.3607  0.4595
   34MOL   H24412850   3.461   7.902   3.319 -0.0293  1.6218  0.9481
   34MOL   H24512851   3.438   7.677   3.304 -0.4730 -0.9004 -0.3527
   34MOL   H24612852   3.447   7.448   3.407  0.5119  0.8946 -0.1491
   34MOL   H24712853   3.647   7.360   3.490  0.6861  0.3289 -0.2359
   34MOL   H24812854   3.871   7.494   3.484  1.4080  0.9909 -1.1258
   34MOL   C24912855   3.896   7.750   3.396 -0.7265 -0.3412 -0.4491
   34MOL   C25012856   3.938   7.823   3.528  0.6558 -0.1904  0.1670
   34MOL   O25112857   4.001   7.697   3.487  0.6040 -0.4553 -0.6177
   34MOL   C25212858   3.836   7.824   3.641 -0.5575  0.6894  0.5726
   34MOL   O25312859   3.896   7.800   3.767  0.0874  0.1530 -0.0401
   34MOL   C25412860   3.968   7.905   3.832  0.7700 -0.7407 -0.3850
   34MOL   C25512861   3.938   8.044   3.811  0.1366  0.0423 -0.6618
   34MOL   C25612862   4.007   8.143   3.875 -0.4268  0.0998  0.5640
   34MOL   C25712863   4.110   8.109   3.966 -0.4079 -0.2783 -0.2265
   34MOL   C25812864   4.144   7.975   3.990  0.4208 -0.2077  0.0174
   34MOL   C25912865   4.073   7.873   3.926  0.0669  0.2504  0.6808
   34MOL   H26012866   3.946   7.779   3.304 -0.2734  0.3877  0.0252
   34MOL   H26112867   4.001   7.911   3.527 -0.8888  0.9401 -0.0371
   34MOL   H26212868   3.774   7.737   3.618  2.3699 -0.8932 -1.7120
   34MOL   H26312869   3.777   7.913   3.622 -1.2814  0.5023  1.9065
   34MOL   H26412870   3.847   8.068   3.758  0.6261 -2.2156 -2.6077
   34MOL   H26512871   3.979   0.077   3.866 -0.2621  0.0737 -0.3528
   34MOL   H26612872   4.162   0.018   4.018 -0.1628 -0.4364 -0.2329
   34MOL   H26712873   4.219   7.961   4.066  0.1159  1.3183  0.6358
   34MOL   C26812874   4.107   7.726   3.946  0.0244  0.1130  0.6186
   34MOL   C26912875   4.198   7.650   3.857  0.1234 -0.2877 -0.6125
   34MOL   O27012876   4.245   7.696   3.985 -0.4228  0.0198 -0.3515
   34MOL   C27112877   4.253   7.721   3.734 -0.2221  0.4664 -0.3559
   34MOL   O27212878   4.361   7.640   3.694  0.2048 -0.1834 -0.7634
   34MOL   C27312879   4.474   7.708   3.655 -1.2813 -0.9319 -0.7878
   34MOL   C27412880   4.516   7.708   3.522  0.4332  0.2768 -0.3641
   34MOL   C27512881   4.628   7.792   3.484  0.1423  0.2724 -0.3023
   34MOL   C27612882   4.700   7.862   3.582  0.5766 -0.6470 -0.4794
   34MOL   C27712883   4.660   7.849   3.716  0.3194  0.2645  0.7508
   34MOL   C27812884   4.549   7.778   3.755  0.3879 -0.8077 -0.5443
   34MOL   H27912885   4.030   7.684   4.010  1.0210 -2.0943  0.4229
   34MOL   H28012886   4.195   7.542   3.850 -3.4328 -0.2645 -0.5869
   34MOL   H28112887   4.278   7.823   3.764  2.0261 -0.2826  0.3909
   34MOL   H28212888   4.189   7.721   3.646 -0.2821  0.5090 -0.3123
   34MOL   H28312889   4.454   7.669   3.443 -2.6778 -0.3864  2.2756
   34MOL   H28412890   4.650   7.808   3.380 -0.8996 -1.8605 -0.8884
   34MOL   H28512891   4.778   7.928   3.546 -1.0127  1.3981 -0.2651
   34MOL   H28612892   4.720   7.897   3.792  1.3219 -0.0711  0.1825
   34MOL   C28712893   4.513   7.790   3.905  0.0683 -0.5937 -0.1676
   34MOL   C28812894   4.547   7.677   3.994 -0.4286 -1.3125 -0.2511
   34MOL   O28912895   4.636   7.799   3.986 -0.1762  1.0600  0.0670
   34MOL   C29012896   4.623   7.553   3.947 -1.1019 -0.0707  0.1165
   34MOL   O29112897   4.648   7.469   4.058  0.6867 -0.2967  0.1692
   34MOL   C29212898   4.543   7.388   4.101 -0.3079  0.2548  0.1608
   34MOL   C29312899   4.414   7.377   4.034  0.1254  0.2034 -0.1510
   34MOL   C29412900   4.321   7.285   4.069  0.2634 -0.0124 -0.3826
   34MOL   C29512901   4.343   7.205   4.183 -0.2653 -0.5832  0.8776
   34MOL   C29612902   4.462   7.224   4.263 -0.0020  0.0588  0.0326
   34MOL   C29712903   4.562   7.315   4.217  0.5122  0.4733 -0.5773
   34MOL   H29812904   4.441   7.867   3.932 -0.1408 -0.6743 -0.4989
   34MOL   H29912905   4.485   7.669   4.083 -1.3257 -0.7248 -0.8260
   34MOL   H30012906   4.724   7.584   3.921 -0.3106 -0.8519  2.1569
   34MOL   H30112907   4.575   7.509   3.859  0.7527 -0.5737 -0.6770
   34MOL   H30212908   4.391   7.442   3.950  1.7549 -0.3450 -1.0436
   34MOL   H30312909   4.233   7.277   4.006 -0.1048 -0.7345  0.2255
   34MOL   H30412910   4.267   7.138   4.218  0.4144 -1.0309  1.4932
   34MOL   H30512911   4.486   7.170   4.354  0.0720 -3.9613 -2.2304
   34MOL   C30612912   4.688   7.335   4.294 -0.4534 -0.3816 -0.0622
   34MOL   C30712913   4.703   7.429   4.412 -0.1612 -0.4260  0.2346
   34MOL   O30812914   4.674   7.281   4.426  0.2145 -0.3427 -0.9478
   34MOL   C30912915   4.604   7.530   4.437 -0.2349 -0.2156  0.3080
   34MOL   O31012916   4.642   7.592   4.560  0.1825  0.1440  0.2508
   34MOL   C31112917   4.612   7.550   4.688  0.0250  1.4402  0.0227
   34MOL   C31212918   4.624   7.410   4.720 -0.3762 -0.4761  0.5607
   34MOL   C31312919   4.596   7.358   4.848 -0.4100 -0.4455  0.6152
   34MOL   C31412920   4.549   7.453   4.940  0.1199 -0.4025 -0.2219
   34MOL   C31512921   4.544   7.591   4.909 -0.1759  0.2643  0.0576
   34MOL   C31612922   4.582   7.640   4.785 -0.0164 -0.1888 -0.4999
   34MOL   H31712923   4.771   7.300   4.234  0.2808  0.6203  0.3636
   34MOL   H31812924   4.802   7.467   4.434 -0.0810 -0.6732  0.3028
   34MOL   H31912925   4.506   7.487   4.455 -0.6308  0.7743  0.5667
   34MOL   H32012926   4.602   7.599   4.352 -0.7644 -2.1809 -1.2943
   34MOL   H32112927   4.673   7.344   4.650 -1.1154 -0.1309 -0.2864
   34MOL   H32212928   4.606   7.255   4.877  0.6734 -0.1539  1.2803
   34MOL   H32312929   4.531   7.426   5.044  0.2695 -2.0188 -0.6065
   34MOL   H32412930   4.504   7.652   4.988 -0.5225 -0.8432  0.7476
   34MOL   C32512931   4.567   7.787   4.744 -0.3593  0.3228 -0.1792
   34MOL   C32612932   4.430   7.849   4.726  0.0219 -0.0545  0.1967
   34MOL   O32712933   4.504   7.856   4.846 -0.0731  0.0819 -0.1414
   34MOL   C32812934   4.294   7.778   4.741 -0.1323 -0.2516  0.4656
   34MOL   O32912935   4.304   7.637   4.703  0.3965 -0.3214  0.7261
   34MOL   C33012936   4.289   7.600   4.575  0.5650  0.1979  0.1462
   34MOL   C33112937   4.285   7.692   4.466  0.1948 -0.5835  0.5734
   34MOL   C33212938   4.260   7.644   4.331  0.3545  0.5842  0.5988
   34MOL   C33312939   4.242   7.507   4.303  0.0003 -0.0237 -0.0995
   34MOL   C33412940   4.245   7.419   4.412  0.4860 -0.1069 -0.3996
   34MOL   C33512941   4.269   7.458   4.549  0.0822 -0.3811 -0.5009
   34MOL   H33612942   4.651   7.832   4.691  1.5489 -3.0620 -0.2084
   34MOL   H33712943   4.417   7.951   4.690 -0.8800 -0.2419 -0.0141
   34MOL   H33812944   4.220   7.832   4.681 -0.2522 -1.5765 -0.6059
   34MOL   H33912945   4.251   7.786   4.841 -1.8632  1.3471 -0.3626
   34MOL   H34012946   4.290   7.800   4.472  1.0481 -0.6792  1.7966
   34MOL   H34112947   4.250   7.729   4.264  2.5075  0.2309 -0.2067
   34MOL   H34212948   4.228   7.477   4.201 -1.3577  0.2373 -0.0043
   34MOL   H34312949   4.237   7.314   4.390  2.7486 -0.4449  0.3011
   34MOL   C34412950   4.271   7.360   4.652  0.1585 -0.0101 -0.1527
   34MOL   C34512951   4.157   7.341   4.754 -0.0536  0.0628  0.5112
   34MOL   O34612952   4.168   7.260   4.639 -0.3435  0.0878  0.1644
   34MOL   C34712953   4.049   7.448   4.755 -0.4611  0.0386  0.4287
   34MOL   O34812954   3.941   7.405   4.832 -0.7306  0.1188 -0.1912
   34MOL   C34912955   3.866   7.304   4.784 -0.0239  0.2935 -0.0318
   34MOL   C35012956   3.867   7.253   4.650 -0.3107 -0.4836  0.0728
   34MOL   C35112957   3.778   7.154   4.610  0.2326  0.1916 -0.1768
   34MOL   C35212958   3.686   7.100   4.698 -0.3219 -0.2200  0.5287
   34MOL   C35312959   3.689   7.142   4.831  0.4813  0.3514  0.0592
   34MOL   C35412960   3.783   7.239   4.875  0.8927  0.4227  0.2775
   34MOL   H35512961   4.373   7.324   4.665 -0.1984 -0.6708  0.8668
   34MOL   H35612962   4.185   7.286   4.843 -1.2283  1.4133  1.7414
   34MOL   H35712963   4.023   7.480   4.655  1.6968 -0.1293 -0.2272
   34MOL   H35812964   4.092   7.535   4.804  0.3471 -0.7647  1.1794
   34MOL   H35912965   3.927   7.292   4.569  1.3826 -1.7486  0.6841
   34MOL   H36012966   3.778   7.125   4.506 -1.1328  0.4147 -0.2473
   34MOL   H36112967   3.616   7.023   4.668  0.4188 -0.6268 -0.1832
   34MOL   H36212968   3.615   7.100   4.897  1.7676 -2.4079 -0.1847
   34MOL   C36312969   3.783   7.284   5.020 -0.4334 -0.1417  0.2859
   34MOL   C36412970   3.686   7.385   5.089 -0.0771  0.2531  0.2348
   34MOL   O36512971   3.669   7.238   5.095  0.7952 -0.3253  0.5374
   34MOL   C36612972   3.564   7.458   5.022 -0.9242 -0.0140 -0.4343
   34MOL   O36712973   3.459   7.509   5.108 -0.4026  0.2094  0.6897
   34MOL   C36812974   3.477   7.629   5.174 -0.4530 -0.5637 -0.1347
   34MOL   C36912975   3.371   7.678   5.252 -0.2781 -0.2830 -0.0293
   34MOL   C37012976   3.379   7.799   5.318  1.1322 -0.3379  0.0849
   34MOL   C37112977   3.498   7.869   5.316  0.1195  0.1755  0.8155
   34MOL   C37212978   3.613   7.818   5.242 -0.2725 -0.0789 -0.5988
   34MOL   C37312979   3.602   7.698   5.175 -0.0988 -0.8695 -0.4436
   34MOL   H37412980   3.876   7.268   5.075 -0.3751 -0.4464  0.1027
   34MOL   H37512981   3.725   7.437   5.176  2.2471  0.1259 -0.7072
   34MOL   H37612982   3.512   7.380   4.966 -1.2732  0.1263 -0.3015
   34MOL   H37712983   3.614   7.534   4.962  1.4088 -1.1404  0.0272
   34MOL   H37812984   3.280   7.620   5.259  0.9181 -2.3784 -1.2724
   34MOL   H37912985   3.298   7.838   5.377  0.9020  0.8944 -1.0290
   34MOL   H38012986   3.505   7.970   5.356  0.4972  0.0715  1.0191
   34MOL   H38112987   3.704   7.876   5.232  0.0581 -0.6462 -0.9136
   34MOL   H38212988   3.680   7.661   5.110  0.8465 -1.0324  0.7704
   35MOL     C112989   7.102   0.779   4.015  0.1058  0.5075  0.6253
   35MOL     C212990   7.022   0.691   3.935  0.8613  0.3539  0.4260
   35MOL     O312991   7.040   0.664   4.073 -0.2078 -0.3725  0.4500
   35MOL     C412992   7.072   0.589   3.844  0.4669 -0.7252 -0.0310
   35MOL     O512993   7.201   0.556   3.891  0.1502  0.5484  0.4134
   35MOL     C612994   7.259   0.436   3.845 -0.3270  0.1726 -0.0245
   35MOL     C712995   7.207   0.360   3.739  0.2516 -0.2142  0.6503
   35MOL     C812996   7.271   0.234   3.704  1.0013  0.3989 -0.6445
   35MOL     C912997   7.388   0.192   3.772  0.8349  0.2848  1.1311
   35MOL    C1012998   7.438   0.272   3.872 -0.3319  0.7306 -0.5481
   35MOL    C1112999   7.371   0.391   3.915  0.2830 -0.4655 -0.5825
   35MOL    H1213000   7.059   0.869   4.058 -0.5937  1.2001 -1.4625
   35MOL    H1313001   6.923   0.729   3.912  1.6548  1.9423 -0.3973
   35MOL    H1413002   7.078   0.628   3.742 -0.7629  2.0870  0.9230
   35MOL    H1513003   7.010   0.500   3.855 -0.9232  0.2241  0.0410
   35MOL    H1613004   7.114   0.379   3.687  0.5119  0.5260  0.4305
   35MOL    H1713005   7.239   0.169   3.625 -0.6727  0.8656 -0.3623
   35MOL    H1813006   7.435   0.097   3.750 -3.6791 -2.4291  2.4660
   35MOL    H1913007   7.531   0.247   3.920 -0.4985  0.3755 -0.4138
   35MOL    H2013008   7.210   0.773   4.008  0.1168  1.3855  0.0270
   35MOL    C2113009   7.418   0.469   4.038 -0.0420  0.1702 -0.4325
   35MOL    C2213010   7.380   0.412   4.172 -0.2090  0.3501 -0.2148
   35MOL    O2313011   7.511   0.386   4.114  0.5194  0.1661  0.2765
   35MOL    C2413012   7.282   0.299   4.185 -0.3935 -0.2047 -0.4250
   35MOL    O2513013   7.248   0.271   4.321 -0.9360  0.4373  0.0809
   35MOL    C2613014   7.143   0.332   4.385 -0.1445 -0.4192 -1.2982
   35MOL    C2713015   7.069   0.436   4.323 -0.1410  0.9245  0.0599
   35MOL    C2813016   6.953   0.492   4.385 -0.1390  0.1824  0.2528
   35MOL    C2913017   6.907   0.437   4.512  0.2439  0.5897  1.2550
   35MOL    C3013018   6.985   0.343   4.583  0.5156 -0.2320  0.1250
   35MOL    C3113019   7.096   0.285   4.513 -0.2253  0.3258 -0.2732
   35MOL    H3213020   7.447   0.573   4.026 -2.8331  1.2187  1.4324
   35MOL    H3313021   7.374   0.483   4.255 -1.9877  0.4218 -0.3779
   35MOL    H3413022   7.335   0.213   4.143 -0.3527 -0.1775 -0.4281
   35MOL    H3513023   7.192   0.314   4.125 -0.0556 -0.9979 -1.1520
   35MOL    H3613024   7.108   0.470   4.228  0.5663 -0.3223 -0.1039
   35MOL    H3713025   6.900   0.580   4.351 -1.2588 -0.9217 -0.9104
   35MOL    H3813026   6.812   0.478   4.544 -0.0779 -1.4424  3.0049
   35MOL    H3913027   6.944   0.305   4.676  0.2083  2.6840  1.2234
   35MOL    C4013028   7.162   0.169   4.581  0.5584  0.6615 -0.3900
   35MOL    C4113029   7.252   0.192   4.695  0.4518  0.6066 -0.1792
   35MOL    O4213030   7.116   0.150   4.718 -0.4341  0.3476  0.1179
   35MOL    C4313031   7.286   0.327   4.741 -0.0128  0.5227 -0.2586
   35MOL    O4413032   7.374   0.390   4.650 -0.1435  0.3415 -0.0994
   35MOL    C4513033   7.441   0.504   4.688  0.1377 -0.1783 -0.4034
   35MOL    C4613034   7.395   0.586   4.793  0.0810 -0.6699 -0.5293
   35MOL    C4713035   7.465   0.703   4.825  0.3677 -0.1674  0.2411
   35MOL    C4813036   7.587   0.739   4.757  0.5302 -0.4158 -0.1821
   35MOL    C4913037   7.628   0.665   4.644  0.5305  0.5223 -0.5306
   35MOL    C5013038   7.555   0.542   4.610  0.1804 -0.7164 -0.2143
   35MOL    H5113039   7.167   0.076   4.525  0.4502 -0.7561  1.8686
   35MOL    H5213040   7.320   0.114   4.729 -0.2001  0.1867  0.1890
   35MOL    H5313041   7.344   0.320   4.833 -1.9056  0.8341  0.9891
   35MOL    H5413042   7.196   0.379   4.774  0.0861  0.0490  0.7612
   35MOL    H5513043   7.305   0.578   4.852  0.2218  0.6357 -0.1136
   35MOL    H5613044   7.427   0.771   4.900 -0.0462 -0.5567  0.3897
   35MOL    H5713045   7.651   0.823   4.781  0.0748 -0.3519  0.8343
   35MOL    H5813046   7.719   0.704   4.600  0.8006 -0.4448 -0.8479
   35MOL    C5913047   7.610   0.452   4.498 -0.0453  0.4096  0.5008
   35MOL    C6013048   7.662   0.491   4.360 -0.0851  0.1828  0.3717
   35MOL    O6113049   7.750   0.474   4.473  0.3000  0.2020 -0.2753
   35MOL    C6213050   7.661   0.627   4.306  0.2398  0.0498  0.0972
   35MOL    O6313051   7.521   0.675   4.299 -0.1487  0.2479  0.0443
   35MOL    C6413052   7.489   0.808   4.270 -0.5912 -0.3954  0.0037
   35MOL    C6513053   7.588   0.897   4.227 -0.0798  1.1236 -0.1644
   35MOL    C6613054   7.571   1.038   4.210  0.1890  0.0045 -0.1392
   35MOL    C6713055   7.436   1.079   4.226  0.2342  0.0820 -0.0840
   35MOL    C6813056   7.330   0.993   4.264  0.3463  0.7236 -0.4990
   35MOL    C6913057   7.358   0.855   4.285 -0.0558 -0.7134  0.0735
   35MOL    H7013058   7.580   0.349   4.519 -0.1068  0.5540  1.1441
   35MOL    H7113059   7.684   0.416   4.285  0.4403  0.4333  0.2767
   35MOL    H7213060   7.703   0.622   4.205  0.6012 -0.9768  0.2917
   35MOL    H7313061   7.735   0.685   4.361 -1.2517 -1.5755  4.0005
   35MOL    H7413062   7.686   0.852   4.215  0.8305  2.6315  1.4060
   35MOL    H7513063   7.651   1.104   4.178  0.3950  0.4519  1.2794
   35MOL    H7613064   7.418   1.181   4.196  0.0581 -0.2097 -0.9854
   35MOL    H7713065   7.229   1.028   4.274  0.4315  0.8702 -0.1544
   35MOL    C7813066   7.247   0.759   4.328  0.7144 -0.6112 -0.7994
   35MOL    C7913067   7.177   0.751   4.465  0.7874 -0.0997 -0.5995
   35MOL    O8013068   7.118   0.826   4.353 -0.4854 -0.0575 -0.5158
   35MOL    C8113069   7.202   0.849   4.579 -0.2466  0.1322 -0.3876
   35MOL    O8213070   7.076   0.895   4.630  0.6186 -0.3771  0.3050
   35MOL    C8313071   6.998   0.824   4.715  0.3845 -0.7471 -0.1162
   35MOL    C8413072   7.043   0.704   4.773 -0.4962  0.1615  0.4141
   35MOL    C8513073   6.959   0.632   4.853 -0.4504  0.0168 -0.3909
   35MOL    C8613074   6.827   0.679   4.881  0.2836 -0.3041 -0.0882
   35MOL    C8713075   6.785   0.803   4.824  0.3230  0.1185  0.4972
   35MOL    C8813076   6.869   0.874   4.736  0.2122  0.1343  0.5284
   35MOL    H8913077   7.244   0.680   4.253  1.5927 -0.1630 -1.3209
   35MOL    H9013078   7.119   0.662   4.488 -0.3818  1.5241  3.0866
   35MOL    H9113079   7.266   0.928   4.542 -0.9077  0.2788 -1.2471
   35MOL    H9213080   7.255   0.799   4.660 -0.2127 -0.4441 -0.7618
   35MOL    H9313081   7.139   0.659   4.751 -1.1892  0.0296 -2.5236
   35MOL    H9413082   6.987   0.534   4.889  0.2105  0.3077 -0.1058
   35MOL    H9513083   6.760   0.630   4.950 -0.2608  0.7954  0.1797
   35MOL    H9613084   6.683   0.837   4.834 -0.7441 -3.1112  1.2212
   35MOL    C9713085   6.825   0.990   4.652  0.7819 -0.1226  0.8678
   35MOL    C9813086   6.773   0.965   4.512 -0.6969  0.0548  0.6304
   35MOL    O9913087   6.684   0.999   4.620 -0.1888  0.0874  0.0315
   35MOL   C10013088   6.753   0.828   4.450  0.0832 -0.1984  0.0526
   35MOL   O10113089   6.630   0.833   4.387  0.0630  0.4445  0.5128
   35MOL   C10213090   6.553   0.718   4.405 -0.0229 -0.4912  0.4379
   35MOL   C10313091   6.584   0.614   4.317 -0.2802  0.0856 -0.5885
   35MOL   C10413092   6.513   0.494   4.324 -0.4696  0.0898  0.6867
   35MOL   C10513093   6.412   0.475   4.415 -0.7690 -0.0649 -1.0959
   35MOL   C10613094   6.378   0.587   4.506  0.4277  0.4350  0.0455
   35MOL   C10713095   6.450   0.706   4.499  0.0651  0.6412  0.3675
   35MOL   H10813096   6.872   1.078   4.697 -2.3228  0.6334  2.7558
   35MOL   H10913097   6.777   1.049   4.443 -0.3940  1.5388  2.4478
   35MOL   H11013098   6.755   0.755   4.531  1.0673  0.1295  0.3254
   35MOL   H11113099   6.836   0.811   4.382  0.2056 -0.3333  0.2328
   35MOL   H11213100   6.660   0.632   4.242  0.2667 -1.3478 -0.3992
   35MOL   H11313101   6.538   0.419   4.252 -0.2760 -0.2782  1.1343
   35MOL   H11413102   6.365   0.378   4.420 -1.4731  0.3557  1.4309
   35MOL   H11513103   6.302   0.571   4.581  2.2738 -1.0234  1.6664
   35MOL   C11613104   6.426   0.829   4.585  0.2670  0.1617  0.1902
   35MOL   C11713105   6.363   0.954   4.536  0.5027  0.4891 -0.3916
   35MOL   O11813106   6.282   0.852   4.595 -0.4984  0.2686 -0.1170
   35MOL   C11913107   6.330   0.981   4.390  0.3270  0.4362  0.6233
   35MOL   O12013108   6.253   1.096   4.373  0.4924  0.2237  0.1606
   35MOL   C12113109   6.225   1.144   4.247  0.6678  0.2474 -0.3086
   35MOL   C12213110   6.259   1.077   4.132 -0.5597  0.1957  0.2528
   35MOL   C12313111   6.210   1.120   4.006  0.1900 -0.3661  0.0067
   35MOL   C12413112   6.135   1.233   3.994 -0.2441 -0.3336  0.0656
   35MOL   C12513113   6.102   1.304   4.117  0.2796 -0.3901  0.2033
   35MOL   C12613114   6.150   1.263   4.240 -0.8043  0.0648  0.1749
   35MOL   H12713115   6.459   0.823   4.689 -1.3435 -3.2563  0.5889
   35MOL   H12813116   6.396   1.041   4.592  0.9222  0.4691 -0.6105
   35MOL   H12913117   6.264   0.902   4.354  0.0709  1.6557 -1.6899
   35MOL   H13013118   6.420   0.977   4.328 -0.4295 -0.4576 -0.4516
   35MOL   H13113119   6.302   0.978   4.133 -0.6137  0.1799  0.9873
   35MOL   H13213120   6.223   1.055   3.920 -0.8150 -2.1571  1.1723
   35MOL   H13313121   6.092   1.261   3.899  1.0578  1.6229  0.0304
   35MOL   H13413122   6.043   1.394   4.108  0.1617 -0.5654 -0.7868
   35MOL   C13513123   6.105   1.333   4.361  0.3246  0.2785  0.5007
   35MOL   C13613124   6.172   1.443   4.432 -0.1476 -0.2739 -0.7135
   35MOL   O13713125   6.072   1.468   4.330  0.3502 -0.2598  0.5678
   35MOL   C13813126   6.314   1.475   4.392  0.4447 -0.0012 -0.4956
   35MOL   O13913127   6.358   1.595   4.468 -0.6329  0.6517  0.5250
   35MOL   C14013128   6.312   1.723   4.444 -0.0755  0.4040  0.1573
   35MOL   C14113129   6.226   1.751   4.333 -0.0316  0.4935 -0.3090
   35MOL   C14213130   6.189   1.889   4.305  0.1493 -0.2272 -0.5958
   35MOL   C14313131   6.233   1.995   4.389 -0.1263  0.0577  0.4832
   35MOL   C14413132   6.315   1.963   4.502  0.4374  0.4195  0.0471
   35MOL   C14513133   6.350   1.831   4.533  1.5011  0.0229  0.4787
   35MOL   H14613134   6.024   1.282   4.413 -0.0332  0.9946  0.6597
   35MOL   H14713135   6.143   1.456   4.536  0.0033  0.8074 -0.7914
   35MOL   H14813136   6.320   1.497   4.286  0.4769  0.6730 -0.3562
   35MOL   H14913137   6.368   1.381   4.406 -1.3243 -0.7308  1.7811
   35MOL   H15013138   6.183   1.671   4.275  0.0404  1.8735 -2.2922
   35MOL   H15113139   6.121   1.909   4.223 -0.1366 -1.3076 -0.6315
   35MOL   H15213140   6.201   2.093   4.357  0.6692  0.2283  0.1909
   35MOL   H15313141   6.341   2.042   4.570  0.4873  0.2262  0.2539
   35MOL   C15413142   6.421   1.804   4.657 -0.3315 -0.2022  0.3898
   35MOL   C15513143   6.574   1.774   4.677 -0.4147 -1.2718 -0.2839
   35MOL   O15613144   6.520   1.909   4.693  0.6973 -0.6829  0.2204
   35MOL   C15713145   6.666   1.765   4.561  0.1905  0.0909 -0.4044
   35MOL   O15813146   6.802   1.759   4.588 -0.1643 -0.6613 -0.6555
   35MOL   C15913147   6.878   1.638   4.601  0.0429  0.3781 -0.1088
   35MOL   C16013148   6.825   1.510   4.568  0.3031 -0.2904 -0.1397
   35MOL   C16113149   6.912   1.397   4.581 -0.4380  0.2136  0.9142
   35MOL   C16213150   7.046   1.415   4.627  0.2909 -0.5330 -0.4590
   35MOL   C16313151   7.085   1.529   4.674 -0.5136 -0.9107 -0.6300
   35MOL   C16413152   7.005   1.647   4.662  0.3167  0.4527  0.1309
   35MOL   H16513153   6.348   1.769   4.730  0.3037  0.2518  1.2501
   35MOL   H16613154   6.596   1.725   4.772  2.0851 -0.2543 -0.3012
   35MOL   H16713155   6.654   1.852   4.497  1.8585  1.0655  0.5732
   35MOL   H16813156   6.630   1.683   4.499  0.5337  1.2853 -2.2121
   35MOL   H16913157   6.725   1.511   4.527 -1.1566  1.4064  3.2766
   35MOL   H17013158   6.871   1.305   4.540  0.7496  0.5145 -0.9872
   35MOL   H17113159   7.101   1.322   4.623  1.2022 -0.0661  0.8245
   35MOL   H17213160   7.179   1.530   4.728 -0.5982 -3.5690 -0.3769
   35MOL   C17313161   7.055   1.780   4.700  0.1489 -0.2671  0.4398
   35MOL   C17413162   7.000   1.856   4.814  0.1997 -0.4519 -0.3795
   35MOL   O17513163   7.128   1.793   4.824 -0.2439  0.0817 -0.4715
   35MOL   C17613164   6.905   1.804   4.917  0.6161  0.0325  0.3328
   35MOL   O17713165   6.899   1.873   5.038 -0.1955  0.4794 -0.1832
   35MOL   C17813166   6.830   1.995   5.045  0.3947  0.6364  0.0518
   35MOL   C17913167   6.711   2.021   4.975  0.8371  0.3500  0.5810
   35MOL   C18013168   6.647   2.144   4.984 -0.1368 -0.5616 -0.4109
   35MOL   C18113169   6.714   2.246   5.052 -0.4450 -0.0801 -0.1777
   35MOL   C18213170   6.819   2.219   5.143 -1.3051  0.7720 -0.2055
   35MOL   C18313171   6.878   2.093   5.141  0.5459 -0.5069 -0.1142
   35MOL   H18413172   7.093   1.839   4.617 -0.7797  0.2788  0.3950
   35MOL   H18513173   7.011   1.965   4.808 -1.1164 -0.3641 -1.4131
   35MOL   H18613174   6.941   1.702   4.927  2.6148  0.5313 -1.4703
   35MOL   H18713175   6.804   1.800   4.877 -0.0669  0.1499  1.9881
   35MOL   H18813176   6.662   1.948   4.912  2.9990 -1.0620  0.4994
   35MOL   H18913177   6.557   2.155   4.926  2.0068  0.7678 -3.6149
   35MOL   H19013178   6.673   2.346   5.048  0.5795  0.4150  1.0608
   35MOL   H19113179   6.853   2.304   5.200  1.8811  0.2824 -1.2527
   35MOL   C19213180   6.991   2.055   5.231 -0.2122  0.1167 -0.8294
   35MOL   C19313181   7.133   2.074   5.199 -0.5637 -0.2413 -0.0296
   35MOL   O19413182   7.050   2.181   5.274 -0.4292  0.3093  0.0033
   35MOL   C19513183   7.175   2.121   5.059 -0.3704 -0.2880 -0.5417
   35MOL   O19613184   7.313   2.144   5.057 -0.4713 -0.1826 -0.0891
   35MOL   C19713185   7.361   2.273   5.064  0.9537 -0.1435  1.1685
   35MOL   C19813186   7.331   2.360   5.167 -0.1001  0.5143  0.2266
   35MOL   C19913187   7.372   2.496   5.164 -0.0679  0.5016 -0.2727
   35MOL   C20013188   7.466   2.535   5.070  0.0221  0.5294 -0.1895
   35MOL   C20113189   7.501   2.445   4.966 -0.1536 -0.0455 -0.1040
   35MOL   C20213190   7.443   2.314   4.965 -0.2864 -0.5372 -0.5112
   35MOL   H20313191   6.957   2.006   5.322  0.0212  1.3968 -0.0322
   35MOL   H20413192   7.217   2.038   5.257  0.8195  0.4104 -1.5754
   35MOL   H20513193   7.121   2.207   5.020 -0.5948  0.2833  1.0034
   35MOL   H20613194   7.144   2.047   4.985 -1.2201  1.0906 -1.5970
   35MOL   H20713195   7.269   2.323   5.247  0.2597  0.9711  0.7205
   35MOL   H20813196   7.343   2.552   5.252  4.1779  3.0634 -0.3753
   35MOL   H20913197   7.519   2.629   5.071  0.7130  0.1785 -2.2753
   35MOL   H21013198   7.560   2.478   4.883 -1.5985  0.6763 -0.8630
   35MOL   C21113199   7.482   2.219   4.854 -0.3091  0.4057 -0.1929
   35MOL   C21213200   7.414   2.173   4.730  0.3445 -0.0747 -0.4357
   35MOL   O21313201   7.489   2.293   4.735 -0.0448 -0.4991 -0.0339
   35MOL   C21413202   7.267   2.197   4.710 -0.2246 -0.1966 -0.2328
   35MOL   O21513203   7.249   2.205   4.571 -0.0397 -0.0567 -0.4865
   35MOL   C21613204   7.124   2.171   4.525 -0.1448  0.0274  0.3299
   35MOL   C21713205   7.008   2.167   4.606 -0.1155 -0.0061 -0.0392
   35MOL   C21813206   6.887   2.108   4.557  0.4055  0.7041 -0.1968
   35MOL   C21913207   6.882   2.065   4.423  0.4596 -0.6397 -0.1150
   35MOL   C22013208   6.993   2.081   4.342  0.4244  0.2280  0.0978
   35MOL   C22113209   7.111   2.127   4.390  0.5420 -0.2243  0.5268
   35MOL   H22213210   7.574   2.167   4.881 -1.0232 -1.6064 -1.5110
   35MOL   H22313211   7.459   2.102   4.662  0.8316 -0.2742  0.0909
   35MOL   H22413212   7.233   2.283   4.768  1.9744 -0.6022  1.7529
   35MOL   H22513213   7.214   2.108   4.743  0.8680 -1.7104 -2.4011
   35MOL   H22613214   7.006   2.209   4.706 -0.0519 -3.0254  1.2817
   35MOL   H22713215   6.794   2.110   4.613  0.6111  2.3530  0.1193
   35MOL   H22813216   6.789   2.028   4.383  1.2416 -2.0874 -0.6427
   35MOL   H22913217   6.971   2.053   4.239 -1.0471 -1.4257  0.8180
   35MOL   C23013218   7.234   2.137   4.299 -0.3375  0.1750  0.3379
   35MOL   C23113219   7.355   2.046   4.304  0.5894 -0.5741 -0.2885
   35MOL   O23213220   7.251   2.039   4.204  0.2694  0.6011 -0.2288
   35MOL   C23313221   7.372   1.927   4.390 -0.3736  0.1609  0.1717
   35MOL   O23413222   7.477   1.845   4.333 -0.2322 -0.8006  0.5621
   35MOL   C23513223   7.429   1.716   4.312  0.2820  0.7180 -0.1857
   35MOL   C23613224   7.371   1.638   4.411  0.0276  0.1625 -0.3054
   35MOL   C23713225   7.316   1.507   4.389 -0.2980  0.1971  0.4855
   35MOL   C23813226   7.312   1.463   4.255 -0.5458  0.2083  0.1374
   35MOL   C23913227   7.381   1.534   4.153  0.2407  0.0888  0.4806
   35MOL   C24013228   7.441   1.658   4.180 -0.8804  0.7954 -0.7068
   35MOL   H24113229   7.250   2.239   4.266  2.1891 -0.2335  0.1862
   35MOL   H24213230   7.436   2.106   4.262 -1.6388  1.7174 -1.4321
   35MOL   H24313231   7.274   1.883   4.404 -1.0528  1.5246 -0.1497
   35MOL   H24413232   7.397   1.964   4.489  0.1439  1.4868 -0.4354
   35MOL   H24513233   7.377   1.680   4.510  1.6888  0.6165 -0.5845
   35MOL   H24613234   7.260   1.453   4.463  0.2212  0.8086  1.3341
   35MOL   H24713235   7.267   1.368   4.231  0.8558 -0.7076  1.0566
   35MOL   H24813236   7.393   1.494   4.053  0.8671 -0.4056  0.7535
   35MOL   C24913237   7.516   1.725   4.071 -0.5693 -0.2237 -0.7169
   35MOL   C25013238   7.661   1.690   4.061  0.2909 -0.3875  0.6802
   35MOL   O25113239   7.561   1.631   3.970  0.0461  0.2672  0.1851
   35MOL   C25213240   7.724   1.612   4.174  0.0214 -0.1740 -0.0736
   35MOL   O25313241   7.855   1.578   4.140  0.1073 -0.3434 -0.2182
   35MOL   C25413242   7.874   1.458   4.080  0.7731  0.5818 -0.7082
   35MOL   C25513243   7.777   1.388   4.000 -0.5402 -0.6018 -0.3860
   35MOL   C25613244   7.807   1.262   3.941  0.2503 -0.3843  0.1716
   35MOL   C25713245   7.932   1.204   3.955 -0.5631  0.0903  0.6369
   35MOL   C25813246   8.026   1.263   4.039  0.1573  0.6011  0.1485
   35MOL   C25913247   7.998   1.392   4.101 -0.7466  0.0866  0.8223
   35MOL   H26013248   7.481   1.819   4.029 -2.1975  0.1364  1.3447
   35MOL   H26113249   7.721   1.770   4.020 -0.6357 -0.7014 -1.3802
   35MOL   H26213250   7.662   1.526   4.199  0.5308 -0.8490 -1.0736
   35MOL   H26313251   7.726   1.680   4.258 -1.7356  3.2119 -2.6460
   35MOL   H26413252   7.682   1.436   3.984 -0.1176  0.4457  0.1470
   35MOL   H26513253   7.738   1.217   3.871  0.6587 -1.8837  0.7040
   35MOL   H26613254   7.962   1.112   3.906  0.2531  1.1796 -0.9624
   35MOL   H26713255   8.124   1.220   4.050  0.5148  1.2215 -0.6198
   35MOL   C26813256   8.101   1.455   4.191  0.3598  0.3131  0.1820
   35MOL   C26913257   8.107   1.436   4.343  0.8110 -0.4742 -0.0935
   35MOL   O27013258   0.015   1.365   4.257  0.1226  0.0606  0.2763
   35MOL   C27113259   7.991   1.366   4.418 -0.2545  0.3376 -0.6101
   35MOL   O27213260   8.018   1.358   4.560  0.0272 -0.0714  0.1877
   35MOL   C27313261   8.090   1.259   4.617 -0.4852 -0.2683 -0.3637
   35MOL   C27413262   0.012   1.176   4.542  0.5247 -0.0015  0.5521
   35MOL   C27513263   0.090   1.079   4.609  0.2127 -0.0393 -0.4556
   35MOL   C27613264   0.075   1.057   4.747 -0.5712  0.3927 -0.0274
   35MOL   C27713265   8.156   1.134   4.824 -0.3819  0.3580 -0.4781
   35MOL   C27813266   8.076   1.228   4.758  0.0681  0.1202 -0.2684
   35MOL   H27913267   8.158   1.528   4.134  0.2224  2.1113  2.3046
   35MOL   H28013268   0.003   1.488   4.413 -0.5438  2.2842 -0.7784
   35MOL   H28113269   7.963   1.266   4.387 -0.1245 -0.9558  3.2375
   35MOL   H28213270   7.900   1.427   4.416  0.3260  1.1985 -2.2492
   35MOL   H28313271   0.019   1.194   4.436 -2.2831  0.4163  0.3907
   35MOL   H28413272   0.161   1.015   4.557  1.1940  0.7712 -0.1380
   35MOL   H28513273   0.136   0.984   4.798  0.9841  1.1691 -0.7564
   35MOL   H28613274   8.146   1.122   4.930 -0.3553  2.9542 -0.1370
   35MOL   C28713275   7.988   1.315   4.848  0.3369  0.3926 -0.4237
   35MOL   C28813276   7.866   1.260   4.918  0.1188 -0.2415 -1.3763
   35MOL   O28913277   7.990   1.294   4.985  0.8345 -0.1774  0.0315
   35MOL   C29013278   7.822   1.114   4.893 -0.0992 -0.0806 -0.3592
   35MOL   O29113279   7.680   1.090   4.908  0.1170  0.5547 -0.2736
   35MOL   C29213280   7.601   1.105   4.798  0.3993 -0.6417 -0.1601
   35MOL   C29313281   7.653   1.111   4.667  0.0210  0.0943  0.5733
   35MOL   C29413282   7.566   1.136   4.559  0.3146 -0.5253  0.0039
   35MOL   C29513283   7.428   1.152   4.579  0.4089  0.0293 -0.0289
   35MOL   C29613284   7.376   1.135   4.707  0.0445 -0.5472 -0.5529
   35MOL   C29713285   7.463   1.111   4.820 -0.9925  0.0932 -0.1732
   35MOL   H29813286   8.002   1.421   4.825 -1.8535  0.6036 -0.8517
   35MOL   H29913287   7.788   1.336   4.920  0.0752 -0.3293  0.8134
   35MOL   H30013288   7.878   1.064   4.972  0.1928  1.2643  0.2900
   35MOL   H30113289   7.863   1.084   4.797  0.3900  2.9092 -1.1456
   35MOL   H30213290   7.753   1.101   4.628  0.7506  0.8062  2.1972
   35MOL   H30313291   7.603   1.152   4.459 -1.7317  0.1101 -0.6711
   35MOL   H30413292   7.364   1.188   4.500 -2.0532 -1.6923  1.1205
   35MOL   H30513293   7.269   1.146   4.712 -0.2550 -2.7494 -1.4930
   35MOL   C30613294   7.417   1.115   4.962  0.9729 -0.3812 -0.8397
   35MOL   C30713295   7.374   1.241   5.042 -0.1090 -0.8958  0.8818
   35MOL   O30813296   7.280   1.149   4.992 -0.3202  0.2152  0.0540
   35MOL   C30913297   7.356   1.375   4.966  0.6719 -0.2008  0.1303
   35MOL   O31013298   7.291   1.473   5.043  1.2164 -0.0316 -0.0514
   35MOL   C31113299   7.365   1.538   5.140  0.2740  0.8072  0.2815
   35MOL   C31213300   7.502   1.520   5.157  0.4237 -0.1522  0.0062
   35MOL   C31313301   7.567   1.591   5.258  0.5001  0.2171 -0.0959
   35MOL   C31413302   7.499   1.681   5.340 -0.1405 -0.4329 -0.9314
   35MOL   C31513303   7.359   1.705   5.318 -0.7507  0.5857  0.3304
   35MOL   C31613304   7.296   1.630   5.215 -0.3028  0.0981 -0.3081
   35MOL   H31713305   7.463   1.034   5.018  1.7636 -0.3379 -1.4102
   35MOL   H31813306   7.371   1.249   5.151  1.5154  0.7013  0.8236
   35MOL   H31913307   7.299   1.356   4.875  2.7921 -1.6035 -0.9506
   35MOL   H32013308   7.453   1.405   4.928 -0.2826 -0.4744 -2.6242
   35MOL   H32113309   7.564   1.454   5.097 -0.4431  0.0390 -1.1046
   35MOL   H32213310   7.674   1.582   5.260  0.4715 -0.4240 -1.1887
   35MOL   H32313311   7.543   1.734   5.423  1.0033 -2.4253 -0.2400
   35MOL   H32413312   7.304   1.770   5.384  0.1502  0.6166  1.0674
   35MOL   C32513313   7.149   1.656   5.190  0.5312  0.3034 -0.3584
   35MOL   C32613314   7.033   1.598   5.270  0.3678 -0.2159  0.5610
   35MOL   O32713315   7.094   1.722   5.305 -0.5203 -0.0030  0.4910
   35MOL   C32813316   7.052   1.488   5.367  0.4584  0.0351 -0.4591
   35MOL   O32913317   6.939   1.485   5.454 -0.2010 -0.6357  0.2581
   35MOL   C33013318   6.923   1.386   5.544  0.1985  0.1737 -0.1390
   35MOL   C33113319   7.032   1.327   5.606 -0.1372 -0.5765 -0.3445
   35MOL   C33213320   7.012   1.227   5.703 -0.6459 -0.3414 -0.4768
   35MOL   C33313321   6.883   1.182   5.734  0.8007 -0.2199 -0.0128
   35MOL   C33413322   6.772   1.240   5.668 -0.3553  0.6187 -0.2693
   35MOL   C33513323   6.792   1.343   5.573 -0.5962  0.4222  0.1165
   35MOL   H33613324   7.140   1.712   5.097  2.8254 -0.4658 -1.0975
   35MOL   H33713325   6.935   1.602   5.223  1.0908 -0.4386 -0.9860
   35MOL   H33813326   7.142   1.507   5.426  0.0600 -0.9683  0.4896
   35MOL   H33913327   7.065   1.393   5.314 -1.8774 -0.9342  0.6343
   35MOL   H34013328   7.131   1.368   5.597  0.3689 -2.2464 -2.8483
   35MOL   H34113329   7.095   1.181   5.753 -1.4055 -0.7111  0.4669
   35MOL   H34213330   6.871   1.103   5.807  0.8040  2.1482  2.6741
   35MOL   H34313331   6.674   1.218   5.707  0.6500  0.5348  2.2812
   35MOL   C34413332   6.687   1.413   5.500  0.0006 -0.2494 -0.1112
   35MOL   C34513333   6.610   1.345   5.391 -0.8477 -0.0407 -0.0395
   35MOL   O34613334   6.550   1.368   5.523 -0.4144  0.4810  0.1260
   35MOL   C34713335   6.629   1.203   5.352  0.2239 -0.4639 -0.1230
   35MOL   O34813336   6.637   1.190   5.208  0.6706  0.2116 -0.1349
   35MOL   C34913337   6.756   1.220   5.142  0.3655  0.1748  0.6485
   35MOL   C35013338   6.884   1.185   5.189  0.4045  0.4271 -0.2526
   35MOL   C35113339   7.001   1.218   5.116  0.6219 -0.1024 -0.9865
   35MOL   C35213340   6.992   1.286   4.989  0.8273 -0.5929 -0.2193
   35MOL   C35313341   6.863   1.323   4.940  0.3990 -0.0819  0.4293
   35MOL   C35413342   6.744   1.299   5.026  0.7493 -0.2089 -0.1944
   35MOL   H35513343   6.702   1.519   5.485 -3.2865 -0.0412 -2.2337
   35MOL   H35613344   6.569   1.404   5.310 -0.7424  0.9294  0.5935
   35MOL   H35713345   6.532   1.156   5.373 -0.4760 -0.0840 -2.4091
   35MOL   H35813346   6.715   1.152   5.396  0.8922 -0.7157 -1.7209
   35MOL   H35913347   6.900   1.121   5.275  1.1043 -0.7210 -1.2161
   35MOL   H36013348   7.102   1.195   5.147  0.2685 -1.3804 -0.7628
   35MOL   H36113349   7.085   1.316   4.944  1.6801 -0.4781  1.5893
   35MOL   H36213350   6.864   1.372   4.843 -0.8871 -1.4222 -0.2802
   35MOL   C36313351   6.606   1.337   4.971 -0.3683  0.5993 -0.2705
   35MOL   C36413352   6.534   1.466   5.010 -0.1555  0.0232  0.7999
   35MOL   O36513353   6.608   1.453   4.883 -0.1576  0.3267 -0.1315
   35MOL   C36613354   6.589   1.575   5.094 -0.0921  0.4678 -0.1311
   35MOL   O36713355   6.490   1.602   5.187 -0.3487 -0.4326  0.1833
   35MOL   C36813356   6.517   1.683   5.295  0.3957 -0.4446 -0.4902
   35MOL   C36913357   6.632   1.763   5.313  0.0333  0.2442  0.4795
   35MOL   C37013358   6.643   1.836   5.431 -0.5243  0.4289  0.1147
   35MOL   C37113359   6.545   1.839   5.531 -0.3996 -0.3704  0.7373
   35MOL   C37213360   6.424   1.769   5.507  1.0156 -0.5888  0.5638
   35MOL   C37313361   6.410   1.686   5.392  0.3467  0.9512  0.3008
   35MOL   H37413362   6.567   1.248   4.924 -1.3413  0.3722  0.9347
   35MOL   H37513363   6.429   1.473   4.984 -0.9708 -1.7404  3.4118
   35MOL   H37613364   6.605   1.667   5.037  0.7815 -0.0696 -0.7609
   35MOL   H37713365   6.683   1.548   5.142 -0.8154 -0.9940  0.4930
   35MOL   H37813366   6.714   1.765   5.244  0.7818 -0.1349  1.3503
   35MOL   H37913367   6.733   1.894   5.442  0.2955 -0.9935  1.0263
   35MOL   H38013368   6.551   1.888   5.626 -0.5204 -0.8067  0.9729
   35MOL   H38113369   6.340   1.776   5.574 -0.2855 -3.1239 -0.7486
   35MOL   H38213370   6.316   1.638   5.368  1.0214  0.4566 -1.3878
   36MOL     C113371   6.594   1.151   0.314  0.3086  0.4698 -0.1192
   36MOL     C213372   6.555   1.014   0.362  0.1180  0.1682  0.2885
   36MOL     O313373   6.664   1.028   0.270  1.1743 -0.3237  0.3188
   36MOL     C413374   6.435   0.939   0.307 -0.5212  0.4575  0.3391
   36MOL     O513375   6.324   0.984   0.374  0.2523 -0.5096 -0.1381
   36MOL     C613376   6.205   0.974   0.309 -0.2327 -0.2931 -0.4411
   36MOL     C713377   6.190   0.877   0.205  0.1219  0.2505  0.4053
   36MOL     C813378   6.070   0.878   0.132  0.2287  0.6189 -0.3313
   36MOL     C913379   5.971   0.979   0.164 -0.1856  0.6077 -0.2523
   36MOL    C1013380   5.985   1.066   0.270 -0.4355  0.1005 -0.1951
   36MOL    C1113381   6.098   1.060   0.352  0.5942  0.4286 -0.3022
   36MOL    H1213382   6.651   1.212   0.384 -0.8138  1.4039 -0.0215
   36MOL    H1313383   6.581   0.992   0.465  2.5631 -1.0148 -0.5383
   36MOL    H1413384   6.453   0.836   0.338 -2.2334 -0.3613 -1.2876
   36MOL    H1513385   6.434   0.952   0.199 -2.2093 -2.0125  0.0312
   36MOL    H1613386   6.260   0.796   0.191  0.7167  1.0737 -1.4509
   36MOL    H1713387   6.034   0.800   0.067  0.5430 -0.3083  0.5984
   36MOL    H1813388   5.875   0.980   0.115 -0.7777  0.1214  0.8690
   36MOL    H1913389   5.909   1.137   0.298  1.5151  1.4127  2.0657
   36MOL    H2013390   6.536   1.203   0.239  2.4540 -1.7896 -3.4881
   36MOL    C2113391   6.109   1.156   0.473 -0.2188 -0.2013  0.3628
   36MOL    C2213392   6.192   1.281   0.484 -0.6463  0.5493 -0.0350
   36MOL    O2313393   6.058   1.283   0.436  0.0015 -0.1406  0.5767
   36MOL    C2413394   6.304   1.331   0.384 -0.1363 -0.0658 -0.1623
   36MOL    O2513395   6.301   1.474   0.381  0.4807  0.1566 -0.9419
   36MOL    C2613396   6.386   1.535   0.290 -0.8418  0.2956  0.0929
   36MOL    C2713397   6.520   1.487   0.273 -0.7731 -0.3298  0.5479
   36MOL    C2813398   6.614   1.551   0.189  0.2733 -0.4182  0.0982
   36MOL    C2913399   6.575   1.669   0.122 -0.0678 -0.2932  0.2041
   36MOL    C3013400   6.446   1.721   0.135 -0.1767  0.5030 -0.1321
   36MOL    C3113401   6.354   1.658   0.230 -1.0096  0.2384  0.1208
   36MOL    H3213402   6.086   1.126   0.574 -0.0045  1.7395  1.0068
   36MOL    H3313403   6.199   1.317   0.586 -1.4329  1.0187 -0.1431
   36MOL    H3413404   6.285   1.296   0.282  2.1280  1.1462 -1.0433
   36MOL    H3513405   6.399   1.297   0.424 -0.1876 -0.5741 -0.4731
   36MOL    H3613406   6.565   1.411   0.335  3.2650  2.5100  1.3462
   36MOL    H3713407   6.715   1.516   0.172 -0.4828 -2.1970 -0.7954
   36MOL    H3813408   6.638   1.702   0.042 -0.7394 -1.2431 -0.7200
   36MOL    H3913409   6.412   1.814   0.092 -1.4550 -0.6115 -1.6096
   36MOL    C4013410   6.223   1.719   0.257  0.4326 -0.1253 -0.3474
   36MOL    C4113411   6.202   1.827   0.360  0.0339 -0.7681  0.9969
   36MOL    O4213412   6.218   1.860   0.224  0.6501  0.8864 -0.5341
   36MOL    C4313413   6.306   1.880   0.453  0.5362 -0.8372  0.9567
   36MOL    O4413414   6.253   1.959   0.551 -0.1365 -0.4453 -0.0247
   36MOL    C4513415   6.193   2.083   0.516  0.4748  0.2632  0.4650
   36MOL    C4613416   6.214   2.147   0.393  0.2709 -0.0501  0.7110
   36MOL    C4713417   6.171   2.280   0.369 -0.9069  0.5531  0.9860
   36MOL    C4813418   6.083   2.340   0.461  0.2417 -0.4469 -0.1440
   36MOL    C4913419   6.067   2.286   0.589  0.1165 -0.1080 -0.6502
   36MOL    C5013420   6.129   2.160   0.616 -0.4232 -0.7721 -0.4317
   36MOL    H5113421   6.134   1.667   0.222  0.1942 -0.9723  1.4852
   36MOL    H5213422   6.101   1.849   0.394  0.1921  1.5411  0.0833
   36MOL    H5313423   6.380   1.935   0.396  0.0108 -0.8570  0.2628
   36MOL    H5413424   6.355   1.793   0.499  4.2714  0.5454 -0.2448
   36MOL    H5513425   6.284   2.104   0.322 -0.4568 -1.2349  0.7002
   36MOL    H5613426   6.194   2.332   0.278  1.8708 -2.5648 -0.1870
   36MOL    H5713427   6.042   2.436   0.430  0.9085 -0.8876 -2.5300
   36MOL    H5813428   6.007   2.333   0.665  0.1772 -0.0685 -0.6265
   36MOL    C5913429   6.107   2.098   0.751 -0.5364 -0.3705 -0.1706
   36MOL    C6013430   6.215   2.075   0.852 -0.0094  0.4053  0.3047
   36MOL    O6113431   6.127   2.191   0.848 -0.3868  0.2337  0.6925
   36MOL    C6213432   6.364   2.106   0.829 -0.5939  0.2575 -0.0844
   36MOL    O6313433   6.432   2.127   0.952  0.0708  0.0503  0.2010
   36MOL    C6413434   6.493   2.025   1.020 -0.8256  0.7981 -0.3289
   36MOL    C6513435   6.470   1.887   0.994 -0.1433 -0.4201  0.2539
   36MOL    C6613436   6.526   1.793   1.075  0.3615  0.1222 -0.2784
   36MOL    C6713437   6.612   1.826   1.181 -0.3417 -0.4155 -0.3994
   36MOL    C6813438   6.630   1.962   1.215  0.2334 -0.0961  0.5636
   36MOL    C6913439   6.570   2.062   1.132  0.6375  0.2633  0.3609
   36MOL    H7013440   6.017   2.037   0.745 -0.7696 -0.0681  0.2915
   36MOL    H7113441   6.202   2.010   0.938  3.2216 -0.9864 -0.1775
   36MOL    H7213442   6.375   2.203   0.781 -3.0062  0.6842  0.1909
   36MOL    H7313443   6.408   2.030   0.765  2.1154  2.9850 -1.5900
   36MOL    H7413444   6.413   1.854   0.908 -2.5746 -0.8087  1.9467
   36MOL    H7513445   6.521   1.688   1.050  0.3585  0.2500 -0.8139
   36MOL    H7613446   6.662   1.750   1.240  1.0122  0.9828  0.2951
   36MOL    H7713447   6.688   1.989   1.302 -0.3593  1.0245  0.6205
   36MOL    C7813448   6.588   2.210   1.161 -0.6009  0.7781 -0.1845
   36MOL    C7913449   6.502   2.284   1.251 -0.0054  0.0464 -0.0257
   36MOL    O8013450   6.628   2.228   1.297  0.0998 -0.0770 -0.1355
   36MOL    C8113451   6.376   2.235   1.325 -0.2851 -0.7207  0.0068
   36MOL    O8213452   6.339   2.302   1.445 -0.6276  0.0978 -0.2441
   36MOL    C8313453   6.207   2.333   1.444  0.3922 -0.0253  0.5261
   36MOL    C8413454   6.110   2.251   1.388 -0.1456  0.0678  0.3373
   36MOL    C8513455   5.977   2.289   1.392  0.3467  0.1370 -0.2557
   36MOL    C8613456   5.941   2.410   1.435  0.0824 -0.0806  0.7908
   36MOL    C8713457   6.036   2.496   1.495  0.2688 -0.2205  0.6710
   36MOL    C8813458   6.175   2.461   1.495  0.3591  0.0670  0.1634
   36MOL    H8913459   6.655   2.254   1.087 -1.2858  0.4202 -1.0192
   36MOL    H9013460   6.513   2.392   1.266 -1.2623  0.2784 -0.7226
   36MOL    H9113461   6.396   2.130   1.348  1.4597 -0.2313  0.8427
   36MOL    H9213462   6.306   2.244   1.242 -0.7205  2.1776  0.6407
   36MOL    H9313463   6.148   2.153   1.362  0.1106  0.8029 -2.1436
   36MOL    H9413464   5.898   2.224   1.356 -2.0169  2.5034  0.5118
   36MOL    H9513465   5.838   2.442   1.442 -0.7998 -3.0956  2.6251
   36MOL    H9613466   6.003   2.586   1.544  0.7181  0.8947 -1.0317
   36MOL    C9713467   6.283   2.543   1.565  0.4145  0.3093  0.6238
   36MOL    C9813468   6.364   2.660   1.505 -0.1839 -0.5133  0.1995
   36MOL    O9913469   6.239   2.677   1.577 -0.1747  0.2098  0.0947
   36MOL   C10013470   6.364   2.710   1.357 -0.0769 -0.5132 -0.5147
   36MOL   O10113471   6.394   2.848   1.358  0.4633 -0.4703  0.0241
   36MOL   C10213472   6.523   2.885   1.369 -0.4146  0.3174 -0.3944
   36MOL   C10313473   6.638   2.802   1.381 -0.4658 -0.5205 -0.0063
   36MOL   C10413474   6.765   2.859   1.397  0.5102 -0.3892 -0.7448
   36MOL   C10513475   6.791   2.994   1.385 -0.2256  1.2811 -0.2514
   36MOL   C10613476   6.673   3.074   1.381 -0.1253  0.1277  0.7601
   36MOL   C10713477   6.545   3.023   1.378  0.0781  0.0017 -0.7556
   36MOL   H10813478   6.331   2.486   1.643 -0.2266  1.1127  1.6185
   36MOL   H10913479   6.450   2.695   1.561  1.0778  0.5103 -2.3316
   36MOL   H11013480   6.259   2.699   1.331  0.1484 -3.5354 -0.2959
   36MOL   H11113481   6.415   2.650   1.282 -1.4539 -2.1438 -0.1752
   36MOL   H11213482   6.625   2.695   1.389  0.2026 -0.6213 -0.2321
   36MOL   H11313483   6.853   2.796   1.395 -0.5150 -1.9518  1.3486
   36MOL   H11413484   6.895   3.023   1.383 -0.4800  2.1361 -0.7986
   36MOL   H11513485   6.704   3.177   1.388  0.4146  0.2552 -2.4231
   36MOL   C11613486   6.433   3.121   1.384  0.1374 -0.1052  0.5624
   36MOL   C11713487   6.357   3.148   1.513  0.3065  0.2740 -0.0602
   36MOL   O11813488   6.464   3.235   1.469 -0.5613 -0.0287 -0.1118
   36MOL   C11913489   6.368   3.059   1.638 -0.5770  0.3139  0.1659
   36MOL   O12013490   6.310   3.128   1.739  0.0402 -0.3380  0.1482
   36MOL   C12113491   6.341   3.101   1.873  0.0234 -0.8841  0.3597
   36MOL   C12213492   6.407   2.987   1.915 -0.5150  0.2525 -0.4909
   36MOL   C12313493   6.456   2.982   2.050  0.4792 -0.8054  0.3660
   36MOL   C12413494   6.415   3.077   2.147  0.3938  0.1359 -0.3346
   36MOL   C12513495   6.345   3.189   2.105 -0.4203  0.4288  0.3435
   36MOL   C12613496   6.309   3.204   1.966  0.2779  0.4390  0.2757
   36MOL   H12713497   6.380   3.138   1.290  0.6163  0.4316  0.3869
   36MOL   H12813498   6.259   3.181   1.479  0.2949 -1.2429 -1.5553
   36MOL   H12913499   6.473   3.029   1.649 -0.8391 -1.3227 -1.6117
   36MOL   H13013500   6.310   2.969   1.621 -1.4940  0.3891  2.7234
   36MOL   H13113501   6.436   2.906   1.851 -2.0440 -0.7513  0.0665
   36MOL   H13213502   6.513   2.894   2.076  0.3611 -0.7847  0.7021
   36MOL   H13313503   6.465   3.060   2.242  1.7396 -0.6189 -1.1554
   36MOL   H13413504   6.300   3.258   2.175 -2.0304 -0.3645  0.1236
   36MOL   C13513505   6.231   3.315   1.912 -0.5166 -0.3524 -0.3078
   36MOL   C13613506   6.081   3.332   1.887 -1.0561  0.0453  0.4214
   36MOL   O13713507   6.140   3.367   2.011  0.6029  0.7874 -0.4944
   36MOL   C13813508   5.987   3.215   1.885 -0.0347 -0.3801  0.5370
   36MOL   O13913509   5.852   3.266   1.892 -0.3692  0.1589 -0.3068
   36MOL   C14013510   5.786   3.280   1.774  0.0324  0.9401 -1.0145
   36MOL   C14113511   5.840   3.279   1.640 -0.1738  0.0555  0.0395
   36MOL   C14213512   5.760   3.283   1.523 -0.2172 -0.1294  0.8026
   36MOL   C14313513   5.616   3.288   1.546  0.3234  0.3326 -0.0430
   36MOL   C14413514   5.563   3.299   1.677 -0.3601 -0.4615 -1.0672
   36MOL   C14513515   5.648   3.295   1.791 -0.4569 -0.7072 -0.4523
   36MOL   H14613516   6.293   3.396   1.873 -0.8384 -0.2872 -0.6869
   36MOL   H14713517   6.060   3.418   1.823  1.9204 -0.1378 -0.8471
   36MOL   H14813518   6.010   3.152   1.971  1.3265  2.0890  2.0426
   36MOL   H14913519   6.010   3.157   1.795  2.6175  0.1307  0.8539
   36MOL   H15013520   5.947   3.280   1.629 -0.2505 -0.1469 -0.7469
   36MOL   H15113521   5.796   3.287   1.422 -0.6637  0.2110  0.6592
   36MOL   H15213522   5.557   3.291   1.456 -2.1164  2.0275  1.5420
   36MOL   H15313523   5.458   3.317   1.696 -0.3703 -0.0028 -1.5357
   36MOL   C15413524   5.587   3.311   1.929 -0.3942 -0.2722  0.4060
   36MOL   C15513525   5.596   3.426   2.033  0.5684  0.7746  0.8372
   36MOL   O15613526   5.498   3.418   1.932  0.2425 -0.2919  0.5164
   36MOL   C15713527   5.710   3.527   2.028  0.2990 -0.3806 -0.0315
   36MOL   O15813528   5.700   3.612   2.138 -0.1179  0.4471 -0.2881
   36MOL   C15913529   5.801   3.705   2.149 -0.2709 -0.2151 -0.7366
   36MOL   C16013530   5.892   3.744   2.047 -0.2854  0.6053  0.3243
   36MOL   C16113531   5.980   3.851   2.070 -0.0625 -0.2981  0.4126
   36MOL   C16213532   5.992   3.912   2.190 -0.2803 -0.1108 -0.0976
   36MOL   C16313533   5.911   3.867   2.295  0.5780 -0.2921  0.6651
   36MOL   C16413534   5.815   3.763   2.277 -0.3078 -0.7846 -0.7224
   36MOL   H16513535   5.533   3.220   1.955 -0.3191 -1.0434 -1.9819
   36MOL   H16613536   5.553   3.409   2.132 -2.2235 -1.3433 -0.6731
   36MOL   H16713537   5.712   3.587   1.937  0.5868  0.7872  0.7432
   36MOL   H16813538   5.799   3.464   2.038  1.6783  1.6610  0.7907
   36MOL   H16913539   5.899   3.703   1.948 -0.3248  0.7185  0.2746
   36MOL   H17013540   6.048   3.879   1.990 -0.1163  1.7734  1.0730
   36MOL   H17113541   6.059   3.995   2.208 -1.4255  0.9466 -0.6223
   36MOL   H17213542   5.911   3.916   2.392 -2.0671  0.3019  0.3961
   36MOL   C17313543   5.722   3.721   2.393 -0.1068  0.1625 -0.0652
   36MOL   C17413544   5.738   3.593   2.467 -0.4312 -0.0201  0.5838
   36MOL   O17513545   5.802   3.714   2.511  0.5233 -0.7129 -1.0361
   36MOL   C17613546   5.822   3.482   2.413  0.0092 -0.4538  0.2483
   36MOL   O17713547   5.855   3.395   2.521 -0.3721  0.3904 -0.4958
   36MOL   C17813548   5.906   3.273   2.491  0.7976  0.1307 -0.9392
   36MOL   C17913549   5.982   3.251   2.375 -0.3811 -0.2241 -0.7670
   36MOL   C18013550   6.040   3.125   2.347 -0.5972  0.4062 -0.8759
   36MOL   C18113551   6.033   3.018   2.437 -0.2437 -0.2994 -0.6768
   36MOL   C18213552   5.955   3.037   2.549  0.2761 -0.6965  0.1546
   36MOL   C18313553   5.887   3.160   2.579 -0.5297 -1.0192  1.2431
   36MOL   H18413554   5.633   3.784   2.398 -1.2773 -1.6441  2.6712
   36MOL   H18513555   5.655   3.563   2.531 -0.9432 -0.3910 -0.2347
   36MOL   H18613556   5.902   3.523   2.352 -0.0821 -1.1829 -0.3707
   36MOL   H18713557   5.760   3.423   2.345 -0.5886  1.7246 -1.1735
   36MOL   H18813558   6.011   3.327   2.304 -0.5283  0.6989  0.1626
   36MOL   H18913559   6.099   3.113   2.257  0.3091 -1.6243 -0.0480
   36MOL   H19013560   6.077   2.923   2.412 -3.2234 -2.4291  1.7781
   36MOL   H19113561   5.960   2.956   2.620  1.9609  1.4372  2.5961
   36MOL   C19213562   5.806   3.177   2.710  0.2233  0.0706  0.1766
   36MOL   C19313563   5.651   3.173   2.726  0.1815 -0.4626  0.7255
   36MOL   O19413564   5.738   3.056   2.745 -0.2843  0.1699  0.4187
   36MOL   C19513565   5.559   3.146   2.613 -0.1560 -0.9483 -0.1172
   36MOL   O19613566   5.444   3.087   2.668 -0.3100 -0.1730  0.1998
   36MOL   C19713567   5.358   3.018   2.589  1.2865  0.4079  0.2649
   36MOL   C19813568   5.366   3.030   2.448  0.8037 -0.3821 -0.5558
   36MOL   C19913569   5.277   2.969   2.363 -0.1205  0.4425 -0.3473
   36MOL   C20013570   5.171   2.893   2.417  0.2169 -0.2657 -0.0138
   36MOL   C20113571   5.158   2.873   2.553 -0.5739  0.0902 -0.5501
   36MOL   C20213572   5.248   2.944   2.640 -0.5718  0.1565 -0.4992
   36MOL   H20313573   5.859   3.232   2.788 -0.4346  1.0267 -0.0374
   36MOL   H20413574   5.617   3.219   2.819 -1.0367 -0.3045  0.2073
   36MOL   H20513575   5.607   3.067   2.556 -0.0275 -0.2633 -0.9609
   36MOL   H20613576   5.533   3.239   2.561 -1.0783 -0.4485  1.2029
   36MOL   H20713577   5.439   3.097   2.404  0.3105  1.2640  1.0732
   36MOL   H20813578   5.301   2.974   2.258 -1.1628 -1.1026 -0.6770
   36MOL   H20913579   5.109   2.842   2.346  3.3712 -2.4904 -1.2900
   36MOL   H21013580   5.083   2.813   2.602 -0.1280 -1.0103 -1.1969
   36MOL   C21113581   5.240   2.920   2.785  0.1723  0.3075 -0.3229
   36MOL   C21213582   5.115   2.958   2.873 -0.5149 -0.3574  0.0702
   36MOL   O21313583   5.140   2.827   2.828  0.1057  0.0943  0.1625
   36MOL   C21413584   4.981   3.016   2.829 -0.4145  0.2897  0.1338
   36MOL   O21513585   4.893   3.040   2.941 -0.3908 -0.5781 -0.5069
   36MOL   C21613586   4.759   3.074   2.921 -0.4357 -0.0565 -0.3286
   36MOL   C21713587   4.694   3.037   2.799 -0.0182  0.2846 -0.0836
   36MOL   C21813588   4.559   3.079   2.777  0.0590  0.1260 -0.0952
   36MOL   C21913589   4.494   3.154   2.874  0.5903  0.2918  0.0237
   36MOL   C22013590   4.554   3.175   3.003 -0.1048 -0.0988  0.0713
   36MOL   C22113591   4.690   3.145   3.025  0.2947  0.3319 -0.3844
   36MOL   H22213592   5.340   2.890   2.818 -0.5315 -1.2496  0.4685
   36MOL   H22313593   5.137   2.973   2.979  1.3406 -3.0233  0.0897
   36MOL   H22413594   4.944   2.944   2.756  1.5052  1.0106 -1.5989
   36MOL   H22513595   4.999   3.110   2.777 -0.0713  0.0649 -0.1593
   36MOL   H22613596   4.739   2.974   2.724 -1.5522 -0.6160 -0.2626
   36MOL   H22713597   4.520   3.061   2.678  2.6796 -1.3784 -0.8929
   36MOL   H22813598   4.390   3.175   2.852  0.3700  1.6170  2.1443
   36MOL   H22913599   4.489   3.216   3.079 -1.3430  0.0188 -1.0278
   36MOL   C23013600   4.765   3.200   3.139 -0.1201 -0.2125 -0.0786
   36MOL   C23113601   4.827   3.338   3.116  0.2390 -0.2893  0.0635
   36MOL   O23213602   4.700   3.322   3.183  0.6098  0.5084 -0.4431
   36MOL   C23313603   4.812   3.410   2.975  0.0056 -0.3187  0.2298
   36MOL   O23413604   4.893   3.520   2.964 -0.4704 -0.0164 -0.3174
   36MOL   C23513605   4.846   3.643   3.010  0.6618  0.2843 -0.5422
   36MOL   C23613606   4.731   3.669   3.092  0.3705 -0.7021 -0.2252
   36MOL   C23713607   4.689   3.802   3.120 -0.7568  0.7490 -0.5103
   36MOL   C23813608   4.763   3.915   3.093  0.4775 -0.4810 -0.0625
   36MOL   C23913609   4.879   3.887   3.015 -0.2563  0.1081  0.9166
   36MOL   C24013610   4.918   3.759   2.972 -0.3697  0.1120 -0.2413
   36MOL   H24113611   4.796   3.138   3.223  0.8088  0.6348  0.2149
   36MOL   H24213612   4.908   3.362   3.183  0.3346 -2.9453  0.9411
   36MOL   H24313613   4.705   3.432   2.965  0.4562  2.4163  1.0698
   36MOL   H24413614   4.833   3.348   2.888  0.9271  2.2946 -1.4521
   36MOL   H24513615   4.664   3.587   3.114 -0.1707 -0.2330 -0.1214
   36MOL   H24613616   4.595   3.816   3.172  0.2209  1.1308  1.2001
   36MOL   H24713617   4.737   4.016   3.121  0.5963 -0.4076 -0.2120
   36MOL   H24813618   4.948   3.969   3.003  0.7601 -0.5703  1.9371
   36MOL   C24913619   5.031   3.750   2.876 -0.0636  0.4543  1.3790
   36MOL   C25013620   5.040   3.809   2.734 -0.3890 -0.3099  0.4144
   36MOL   O25113621   5.095   3.878   2.848 -0.1444 -0.3286 -0.8042
   36MOL   C25213622   4.910   3.866   2.668 -0.3025 -0.0958 -0.2144
   36MOL   O25313623   4.943   3.983   2.593 -0.0519  0.5359 -0.3072
   36MOL   C25413624   4.946   3.972   2.454  0.2613 -0.0321 -0.4255
   36MOL   C25513625   5.058   3.920   2.396 -0.1672  0.8875  0.1424
   36MOL   C25613626   5.058   3.901   2.256  0.1402 -0.1947  0.3395
   36MOL   C25713627   4.951   3.941   2.178  0.0808 -0.2378 -0.2047
   36MOL   C25813628   4.830   3.987   2.236  0.2285  1.2733  0.5054
   36MOL   C25913629   4.828   4.004   2.376  0.1084 -0.0556 -0.1491
   36MOL   H26013630   5.100   3.674   2.910  0.4041  0.2015 -0.0992
   36MOL   H26113631   5.107   3.763   2.662 -0.2682 -0.2887  0.5113
   36MOL   H26213632   4.840   3.882   2.750 -0.0359 -2.0183  0.4127
   36MOL   H26313633   4.860   3.787   2.611 -1.7619  1.4093 -1.0586
   36MOL   H26413634   5.147   3.894   2.451  0.6100  1.0842 -0.9911
   36MOL   H26513635   5.152   3.860   2.222  0.2724  1.7009 -1.6697
   36MOL   H26613636   4.961   3.929   2.071  3.4891 -0.5103  0.0970
   36MOL   H26713637   4.746   4.022   2.178 -0.5898 -0.4227  0.6571
   36MOL   C26813638   4.704   4.072   2.437 -0.1335 -0.2295  0.1651
   36MOL   C26913639   4.679   4.223   2.450 -0.7532  0.4165 -0.0740
   36MOL   O27013640   4.627   4.149   2.342  0.1691  0.6027  0.3886
   36MOL   C27113641   4.790   4.333   2.415 -0.7856 -0.2078 -0.3038
   36MOL   O27213642   4.732   4.446   2.362 -0.0899  0.5247  0.4049
   36MOL   C27313643   4.807   4.553   2.329 -0.2323  0.4639  0.1470
   36MOL   C27413644   4.948   4.545   2.319 -0.3717  0.3429  0.5512
   36MOL   C27513645   5.023   4.663   2.299 -0.1520  0.4400 -0.2426
   36MOL   C27613646   4.956   4.787   2.279  0.0263 -0.0951 -0.3223
   36MOL   C27713647   4.819   4.795   2.289 -0.0144 -0.1035 -0.6222
   36MOL   C27813648   4.741   4.675   2.307 -0.3414  0.3766  0.6598
   36MOL   H27913649   4.645   3.996   2.488  0.6238 -0.5109  0.6352
   36MOL   H28013650   4.606   4.251   2.526 -2.1794  0.0683 -1.2873
   36MOL   H28113651   4.857   4.281   2.346  0.9733  1.3422  0.2075
   36MOL   H28213652   4.858   4.351   2.498  0.5588  0.1382 -1.4639
   36MOL   H28313653   5.002   4.455   2.341 -1.9872 -1.2831 -1.9295
   36MOL   H28413654   5.128   4.665   2.321 -0.2062  0.3022  0.0314
   36MOL   H28513655   5.019   4.874   2.265  0.6391 -0.0421  2.4902
   36MOL   H28613656   4.767   4.889   2.279 -0.5458 -0.5107 -1.7314
   36MOL   C28713657   4.592   4.683   2.303  0.1134 -0.0440 -0.2983
   36MOL   C28813658   4.504   4.701   2.422 -0.2813 -0.1100  0.6677
   36MOL   O28913659   4.545   4.812   2.340  0.3267 -0.4609 -0.0477
   36MOL   C29013660   4.563   4.688   2.560 -0.4397  0.3124 -0.5748
   36MOL   O29113661   4.474   4.736   2.658  0.4509 -0.3269 -0.1591
   36MOL   C29213662   4.506   4.729   2.790 -0.1307 -0.3877  0.1993
   36MOL   C29313663   4.638   4.735   2.837  0.1965 -0.4759  0.1549
   36MOL   C29413664   4.673   4.732   2.971  0.0976 -0.1118  0.1357
   36MOL   C29513665   4.573   4.728   3.070 -0.6519  0.4311 -0.8358
   36MOL   C29613666   4.439   4.724   3.025 -0.3922 -1.0177 -0.5624
   36MOL   C29713667   4.401   4.718   2.886  0.5931 -0.3399  0.2262
   36MOL   H29813668   4.554   4.646   2.208 -1.2004  0.9984 -0.1813
   36MOL   H29913669   4.402   4.671   2.398  0.1824  0.9687 -2.9713
   36MOL   H30013670   4.659   4.739   2.562  1.5307 -3.2619 -0.2123
   36MOL   H30113671   4.583   4.581   2.570 -0.9557  0.1952 -0.7682
   36MOL   H30213672   4.716   4.744   2.762 -1.3656 -0.3154 -1.4965
   36MOL   H30313673   4.780   4.736   2.987  0.3369 -0.5287 -1.2643
   36MOL   H30413674   4.598   4.756   3.172 -1.1658 -0.6983 -0.3884
   36MOL   H30513675   4.358   4.731   3.095 -0.0619  2.1448 -0.4443
   36MOL   C30613676   4.254   4.722   2.850 -0.5375 -0.5783 -0.1901
   36MOL   C30713677   4.185   4.606   2.789 -0.1869  0.2447 -0.8612
   36MOL   O30813678   4.174   4.629   2.931 -0.6384  0.2172 -0.0668
   36MOL   C30913679   4.224   4.466   2.759 -0.2731  0.3550 -0.1252
   36MOL   O31013680   4.360   4.439   2.806 -0.2680  0.1504 -0.1876
   36MOL   C31113681   4.406   4.308   2.788 -0.2280  0.1871  0.4379
   36MOL   C31213682   4.322   4.196   2.744  0.3819 -0.6036  0.1066
   36MOL   C31313683   4.378   4.069   2.739 -0.1627 -0.1233 -0.6330
   36MOL   C31413684   4.514   4.049   2.778 -0.0803 -0.3955 -0.3401
   36MOL   C31513685   4.601   4.160   2.799 -0.3879 -0.1103  0.3787
   36MOL   C31613686   4.546   4.285   2.811  0.7915  0.8075  0.1238
   36MOL   H31713687   4.212   4.822   2.843  1.4493  0.3735  0.8995
   36MOL   H31813688   4.084   4.614   2.748 -0.9911  0.8473  1.1711
   36MOL   H31913689   4.217   4.448   2.652 -0.3826 -0.8486  0.0672
   36MOL   H32013690   4.147   4.404   2.806  0.0534 -0.3226 -0.4702
   36MOL   H32113691   4.225   4.231   2.712  0.2857 -0.1701  0.8527
   36MOL   H32213692   4.322   3.980   2.712  2.5333 -2.4455  1.0834
   36MOL   H32313693   4.538   3.944   2.781  1.1728 -0.0798  0.6450
   36MOL   H32413694   4.704   4.141   2.825 -0.3204 -0.5742 -0.2161
   36MOL   C32513695   4.632   4.388   2.870  0.0500  0.0594 -0.2794
   36MOL   C32613696   4.675   4.395   3.014 -0.3102 -0.0722 -0.3751
   36MOL   O32713697   4.761   4.333   2.918  0.2233  0.2069  0.1105
   36MOL   C32813698   4.619   4.305   3.128 -0.4508  0.7635 -0.7952
   36MOL   O32913699   4.731   4.311   3.223 -0.0093  0.0594 -0.2109
   36MOL   C33013700   4.722   4.218   3.326 -0.0159 -0.1405 -0.1912
   36MOL   C33113701   4.600   4.170   3.376  0.1568 -0.0098 -0.2502
   36MOL   C33213702   4.611   4.080   3.479 -0.4146 -0.0730 -0.4726
   36MOL   C33313703   4.732   4.034   3.534  0.2059 -0.2867  0.5459
   36MOL   C33413704   4.853   4.072   3.470 -0.2476  0.2466  0.6701
   36MOL   C33513705   4.850   4.163   3.366  0.2885 -0.1233  0.1811
   36MOL   H33613706   4.648   4.474   2.806 -1.1712  0.1564 -0.4674
   36MOL   H33713707   4.706   4.493   3.048  0.8518  0.1629 -2.0185
   36MOL   H33813708   4.592   4.205   3.094 -1.6233  0.1748  1.7809
   36MOL   H33913709   4.526   4.352   3.158  0.8901  3.9437 -1.3976
   36MOL   H34013710   4.503   4.208   3.349  0.4002 -0.6347 -2.1043
   36MOL   H34113711   4.521   4.047   3.529  0.4726 -1.5484  0.1892
   36MOL   H34213712   4.727   3.979   3.627  2.7201 -0.1687  0.8035
   36MOL   H34313713   4.946   4.043   3.515  0.6451 -0.9918 -1.8734
   36MOL   C34413714   4.970   4.199   3.290 -0.0424  0.4020 -0.6758
   36MOL   C34513715   5.070   4.307   3.323 -0.1589  0.1245 -0.7146
   36MOL   O34613716   5.093   4.166   3.353  0.0824 -0.4922 -0.0200
   36MOL   C34713717   5.064   4.384   3.452  0.3876 -0.4406  0.5382
   36MOL   O34813718   5.191   4.427   3.489  0.2563  0.8289 -0.5036
   36MOL   C34913719   5.197   4.524   3.589 -0.5168  0.3918 -0.1052
   36MOL   C35013720   5.106   4.529   3.694 -0.1426 -0.3162  0.1811
   36MOL   C35113721   5.127   4.623   3.798 -0.3498  0.3182 -0.5342
   36MOL   C35213722   5.229   4.722   3.785 -0.1532 -0.3422  0.4585
   36MOL   C35313723   5.323   4.709   3.680 -0.2466  0.1153 -1.0418
   36MOL   C35413724   5.307   4.609   3.586 -0.4052  0.3093  0.1208
   36MOL   H35513725   4.967   4.164   3.187  3.2120  2.2489 -1.4810
   36MOL   H35613726   5.131   4.353   3.245  0.9642  0.5321  0.3755
   36MOL   H35713727   5.017   4.316   3.524 -2.9260  1.5582  0.3527
   36MOL   H35813728   4.998   4.467   3.427 -0.3580 -1.4774 -0.9772
   36MOL   H35913729   5.031   4.452   3.701  0.0739 -0.7241 -1.7982
   36MOL   H36013730   5.075   4.610   3.891 -0.3313 -1.1890 -0.7157
   36MOL   H36113731   5.248   4.794   3.863  1.2728 -1.6742  1.3695
   36MOL   H36213732   5.419   4.756   3.694 -2.2854  4.4196 -0.4389
   36MOL   C36313733   5.413   4.569   3.487  0.2225 -0.8777 -0.0865
   36MOL   C36413734   5.401   4.609   3.344 -0.2540  0.0367 -0.2525
   36MOL   O36513735   5.481   4.691   3.431 -0.0600 -0.3299 -0.6589
   36MOL   C36613736   5.278   4.684   3.286  0.3168 -0.9915  0.3677
   36MOL   O36713737   5.306   4.737   3.155  0.1245 -0.3787 -0.0550
   36MOL   C36813738   5.223   4.832   3.108  0.2814 -0.2960 -0.9499
   36MOL   C36913739   5.276   4.929   3.017 -0.2174  0.4539 -0.5688
   36MOL   C37013740   5.194   5.033   2.974  0.3061 -0.0658  0.8448
   36MOL   C37113741   5.060   5.043   3.020 -0.7837 -0.1551 -0.4524
   36MOL   C37213742   5.010   4.947   3.114 -0.0609  0.7669  0.4869
   36MOL   C37313743   5.089   4.842   3.154 -0.3462  0.3319  0.4528
   36MOL   H37413744   5.495   4.503   3.514 -0.5359 -1.0912  1.7617
   36MOL   H37513745   5.454   4.545   3.274 -1.5652  0.5468 -1.7293
   36MOL   H37613746   5.261   4.763   3.358  1.6345 -1.4450  1.1944
   36MOL   H37713747   5.188   4.623   3.287 -0.1272 -0.3329  1.0139
   36MOL   H37813748   5.377   4.918   2.980  0.1740  2.0082 -0.0074
   36MOL   H37913749   5.242   5.101   2.904 -1.3995  1.5573  1.2196
   36MOL   H38013750   5.000   5.127   2.986 -2.7322 -0.5811  1.7475
   36MOL   H38113751   4.920   4.958   3.173 -0.1488  2.1481  0.1035
   36MOL   H38213752   5.042   4.770   3.219 -0.3106  1.0682  1.3102
   37MOL     C113753   2.346   2.027   0.847 -0.7183  0.0926 -0.0084
   37MOL     C213754   2.434   1.907   0.822 -0.6739 -0.5092 -0.1283
   37MOL     O313755   2.299   1.916   0.771  0.4004  0.0589  0.7330
   37MOL     C413756   2.460   1.784   0.901 -0.3018 -0.0518 -0.2334
   37MOL     O513757   2.402   1.806   1.026  0.0048 -0.0152 -0.3804
   37MOL     C613758   2.477   1.822   1.143 -0.2834 -0.7662 -0.0745
   37MOL     C713759   2.597   1.887   1.137 -0.2270 -0.0619 -0.0696
   37MOL     C813760   2.681   1.920   1.247 -0.2237 -0.4017  0.9051
   37MOL     C913761   2.642   1.879   1.375 -0.8550 -0.1416  0.0184
   37MOL    C1013762   2.513   1.819   1.392 -0.2955  0.0842  1.0215
   37MOL    C1113763   2.432   1.788   1.280  0.0573 -0.4449  0.0366
   37MOL    H1213764   2.359   2.113   0.781 -1.1158  0.1773  0.0198
   37MOL    H1313765   2.505   1.919   0.740  1.3917 -0.1629  1.6537
   37MOL    H1413766   2.569   1.772   0.906 -0.3627 -0.1491  1.3632
   37MOL    H1513767   2.412   1.697   0.857 -2.2218  0.3085  1.0920
   37MOL    H1613768   2.628   1.929   1.042  0.1965  0.8453  0.4534
   37MOL    H1713769   2.776   1.968   1.229  0.0832 -1.3923 -0.2084
   37MOL    H1813770   2.702   1.910   1.458  0.1792 -0.8371 -0.4606
   37MOL    H1913771   2.489   1.795   1.495  1.9887  0.9345  1.7862
   37MOL    H2013772   2.281   2.040   0.934 -0.1305 -1.6698  0.7103
   37MOL    C2113773   2.304   1.717   1.299 -0.0542  0.6218  0.2649
   37MOL    C2213774   2.289   1.570   1.335  0.4946  0.3198 -0.7854
   37MOL    O2313775   2.292   1.669   1.431 -0.2839  0.3238 -0.4363
   37MOL    C2413776   2.401   1.471   1.336 -0.5034  0.3700  0.0944
   37MOL    O2513777   2.351   1.360   1.408  0.2450 -0.0001 -0.1712
   37MOL    C2613778   2.435   1.255   1.438 -0.9027  0.0049 -0.3748
   37MOL    C2713779   2.562   1.239   1.374  0.1063  0.3026  0.4074
   37MOL    C2813780   2.648   1.143   1.417 -0.3774  0.6890 -0.6532
   37MOL    C2913781   2.616   1.057   1.523  0.3106  0.1416  0.7687
   37MOL    C3013782   2.493   1.073   1.588 -0.1387 -0.5802 -0.1690
   37MOL    C3113783   2.400   1.170   1.549 -0.7032 -0.3367 -0.2719
   37MOL    H3213784   2.214   1.753   1.249 -0.9594 -0.7659  0.8610
   37MOL    H3313785   2.189   1.529   1.324  0.8352 -0.7589  0.0938
   37MOL    H3413786   2.487   1.509   1.391 -1.8679  0.2250  2.4030
   37MOL    H3513787   2.432   1.446   1.235  1.3100 -0.5373  0.8493
   37MOL    H3613788   2.587   1.306   1.294 -0.2432 -0.0781 -0.0274
   37MOL    H3713789   2.749   1.132   1.382 -0.3958  0.5939 -0.6747
   37MOL    H3813790   2.681   0.975   1.549  0.4722 -0.1758 -0.5987
   37MOL    H3913791   2.464   1.013   1.674  0.9690 -1.0166 -0.0970
   37MOL    C4013792   2.265   1.194   1.615 -0.3886  0.1442  0.2085
   37MOL    C4113793   2.142   1.162   1.541  0.0534  0.4276 -0.5854
   37MOL    O4213794   2.203   1.068   1.632  0.0245  0.3838 -0.1987
   37MOL    C4313795   2.136   1.114   1.396 -0.0962 -0.0796 -0.2021
   37MOL    O4413796   2.035   1.015   1.373  0.0784  0.4463 -0.3860
   37MOL    C4513797   1.902   1.051   1.367 -0.3074 -0.2538 -0.9933
   37MOL    C4613798   1.856   1.178   1.338  0.0424 -0.5787 -0.4963
   37MOL    C4713799   1.720   1.216   1.351 -0.5877 -0.1222 -0.3892
   37MOL    C4813800   1.621   1.118   1.379 -0.3268 -0.3523  0.6220
   37MOL    C4913801   1.672   0.985   1.407 -0.2010 -0.5682 -0.0177
   37MOL    C5013802   1.814   0.953   1.402 -0.2449  0.2052 -0.4660
   37MOL    H5113803   2.267   1.249   1.708  0.0776  0.4453  0.0222
   37MOL    H5213804   2.054   1.203   1.591  1.4749  2.8849 -0.0437
   37MOL    H5313805   2.230   1.062   1.376  0.4852 -0.3571  2.9043
   37MOL    H5413806   2.130   1.206   1.338 -2.0545 -1.2843 -1.9924
   37MOL    H5513807   1.930   1.253   1.314  2.2433 -2.2963  0.7473
   37MOL    H5613808   1.695   1.319   1.333  2.0387  0.1985 -2.4509
   37MOL    H5713809   1.515   1.138   1.376 -0.2893 -0.1842  0.3757
   37MOL    H5813810   1.603   0.907   1.438  2.0327 -2.4805  0.2685
   37MOL    C5913811   1.863   0.810   1.420 -0.6515  0.3061  0.2238
   37MOL    C6013812   1.913   0.757   1.551  0.4428  0.4301 -0.6713
   37MOL    O6113813   1.778   0.742   1.509  0.2238 -0.2646 -0.5201
   37MOL    C6213814   1.929   0.830   1.687  0.1653  0.0387 -0.2996
   37MOL    O6313815   1.881   0.751   1.783 -0.2540 -0.7384 -0.2410
   37MOL    C6413816   1.852   0.800   1.913  0.1630  0.1360  0.0545
   37MOL    C6513817   1.850   0.935   1.946 -0.1459  0.0133 -0.1506
   37MOL    C6613818   1.808   0.978   2.071 -1.0477 -0.3948  0.3941
   37MOL    C6713819   1.769   0.892   2.169  0.2572 -0.4397  0.0274
   37MOL    C6813820   1.756   0.759   2.133  0.3219 -0.0286  0.4924
   37MOL    C6913821   1.802   0.711   2.010  0.6342 -0.3235 -0.3334
   37MOL    H7013822   1.880   0.754   1.328  0.2094  1.6357 -0.4436
   37MOL    H7113823   1.963   0.661   1.553 -0.4846 -0.0462  0.8717
   37MOL    H7213824   1.860   0.914   1.684 -2.1480 -1.8275 -2.5168
   37MOL    H7313825   2.034   0.857   1.695  0.5717 -0.0329 -4.3031
   37MOL    H7413826   1.886   1.009   1.877 -2.7273  0.9502 -0.5244
   37MOL    H7513827   1.816   1.083   2.093  1.6633 -0.8194  1.5985
   37MOL    H7613828   1.746   0.941   2.262  0.9659 -0.1047  0.0332
   37MOL    H7713829   1.704   0.693   2.201 -1.2653  0.5469 -0.1397
   37MOL    C7813830   1.817   0.561   1.989  0.0529  0.9201 -0.2179
   37MOL    C7913831   1.946   0.487   1.970  0.2027  0.1027 -0.3082
   37MOL    O8013832   1.882   0.499   2.104  0.3411  0.6208 -0.4278
   37MOL    C8113833   2.075   0.562   1.946  0.3448  0.2578 -0.8307
   37MOL    O8213834   2.187   0.469   1.936 -0.1689  0.2167  0.2519
   37MOL    C8313835   2.219   0.415   1.810  0.9805 -0.0861 -0.2159
   37MOL    C8413836   2.133   0.421   1.701  0.1248 -0.1670  0.0128
   37MOL    C8513837   2.171   0.374   1.573 -0.2513  0.3059  0.4010
   37MOL    C8613838   2.300   0.311   1.558 -0.0206  0.4307  0.1976
   37MOL    C8713839   2.377   0.292   1.670  0.3972 -0.3381 -0.7290
   37MOL    C8813840   2.338   0.344   1.801 -0.0569  0.2851  0.3091
   37MOL    H8913841   1.720   0.519   1.963  0.3441  0.5233 -0.6705
   37MOL    H9013842   1.930   0.392   1.919  0.1810  0.0749 -0.2491
   37MOL    H9113843   2.094   0.621   2.037 -0.8558 -1.5808  0.6501
   37MOL    H9213844   2.073   0.620   1.854 -0.9700  0.5994 -0.6017
   37MOL    H9313845   2.044   0.483   1.708  0.0204  0.1697 -3.6103
   37MOL    H9413846   2.108   0.384   1.485 -2.9108 -0.4842  2.1508
   37MOL    H9513847   2.332   0.277   1.461 -0.9320 -0.2527  0.1356
   37MOL    H9613848   2.474   0.249   1.648  0.9923  1.1896 -1.1765
   37MOL    C9713849   2.435   0.325   1.914  0.2137 -0.6665  0.0852
   37MOL    C9813850   2.414   0.222   2.011 -0.8689 -0.4122  0.3265
   37MOL    O9913851   2.515   0.203   1.909 -0.5580  0.2287 -0.0564
   37MOL   C10013852   2.305   0.116   2.004  0.0415  0.3252  0.4841
   37MOL   O10113853   2.352   0.009   2.080 -0.3605  0.0231 -0.6482
   37MOL   C10213854   2.324   0.002   2.213  0.1249  0.7486 -0.8124
   37MOL   C10313855   2.223   0.072   2.285 -0.5617  0.2975  0.1557
   37MOL   C10413856   2.193   0.042   2.425 -0.4524  0.1459  0.4634
   37MOL   C10513857   2.271   8.122   2.497 -0.1070 -0.4120  0.6812
   37MOL   C10613858   2.369   8.051   2.423 -0.6540  0.1010  0.2781
   37MOL   C10713859   2.400   8.076   2.286 -0.4903 -0.2411 -0.2068
   37MOL   H10813860   2.497   0.412   1.937  0.2098 -0.1804 -1.6681
   37MOL   H10913861   2.458   0.242   2.109  1.2264  0.2130 -0.7149
   37MOL   H11013862   2.283   0.079   1.903 -1.7668 -0.5433  1.1745
   37MOL   H11113863   2.219   0.174   2.036 -0.8837 -0.0477 -1.2567
   37MOL   H11213864   2.158   0.145   2.239  0.3076  0.3620 -0.9937
   37MOL   H11313865   2.114   0.094   2.476 -1.4278  1.0838 -1.9408
   37MOL   H11413866   2.261   8.107   2.603 -0.9045  0.6304  0.7560
   37MOL   H11513867   2.421   7.974   2.479  0.5198  0.5159 -0.2286
   37MOL   C11613868   2.496   7.981   2.218  0.1465  0.0865 -0.4303
   37MOL   C11713869   2.633   8.004   2.168 -0.2103  0.0959 -0.1733
   37MOL   O11813870   2.607   7.964   2.305  0.0705  0.5072 -0.0378
   37MOL   C11913871   2.693   8.136   2.139  0.0157 -0.0729 -0.4981
   37MOL   O12013872   2.825   8.108   2.086  0.7318  0.1009 -0.6279
   37MOL   C12113873   2.934   8.108   2.177  0.7895 -0.1659 -0.6400
   37MOL   C12213874   2.920   8.151   2.315 -0.4834 -0.7327  0.2051
   37MOL   C12313875   3.037   8.167   2.387  0.1417 -0.3013 -0.4977
   37MOL   C12413876   3.162   8.126   2.340  0.3389 -0.1194  0.6166
   37MOL   C12513877   3.166   8.073   2.210 -0.4185 -0.4815  0.2970
   37MOL   C12613878   3.052   8.061   2.127  0.4082 -0.3265  0.7489
   37MOL   H12713879   2.448   7.890   2.183 -0.4004 -0.6625  2.1620
   37MOL   H12813880   2.652   7.919   2.103  0.9515 -0.4322  0.8388
   37MOL   H12913881   2.679   0.034   2.224  0.5288  1.2176 -1.4338
   37MOL   H13013882   2.647   0.013   2.052 -0.2055  1.5836  0.4796
   37MOL   H13113883   2.832   0.022   2.362  1.7500  2.4619  1.7519
   37MOL   H13213884   3.029   0.030   2.489  1.4280 -1.3542 -0.0429
   37MOL   H13313885   3.248   8.136   2.403  1.4332  0.8082 -0.9937
   37MOL   H13413886   3.260   8.037   2.172 -0.7576 -2.9108  1.6238
   37MOL   C13513887   3.060   7.999   1.988  0.3506 -0.5496 -0.4435
   37MOL   C13613888   3.118   8.080   1.870 -0.1552  0.1396 -0.1141
   37MOL   O13713889   3.196   7.988   1.944 -0.6049 -0.3245  0.6990
   37MOL   C13813890   3.152   0.057   1.886  0.4303 -0.9442 -0.2042
   37MOL   O13913891   3.275   0.078   1.820 -0.4603 -0.0647 -0.0804
   37MOL   C14013892   3.366   0.162   1.882 -0.1115 -0.4581  0.8779
   37MOL   C14113893   3.336   0.269   1.963  0.2571  0.4137  0.3400
   37MOL   C14213894   3.432   0.356   2.022 -0.5965 -0.2052 -0.3017
   37MOL   C14313895   3.566   0.309   2.016 -0.5454 -0.4323  0.0701
   37MOL   C14413896   3.598   0.194   1.944  0.0802  0.1135  0.3234
   37MOL   C14513897   3.497   0.114   1.881 -0.2227 -0.1863  0.5838
   37MOL   H14613898   3.008   7.904   1.979  0.0126 -0.3219 -0.9386
   37MOL   H14713899   3.095   8.044   1.770  0.9988 -2.2681  0.4469
   37MOL   H14813900   3.165   0.080   1.992  0.3696  0.1306 -0.4209
   37MOL   H14913901   3.078   0.128   1.848  1.0489  0.8224  1.7576
   37MOL   H15013902   3.236   0.309   1.963 -0.1303 -0.5558  1.2640
   37MOL   H15113903   3.409   0.447   2.075  0.2609 -0.9663  1.4141
   37MOL   H15213904   3.648   0.366   2.058  0.2214  0.1699 -2.1933
   37MOL   H15313905   3.697   0.152   1.935  0.0990  0.1445  0.3805
   37MOL   C15413906   3.537   8.153   1.823 -0.3533 -0.5753 -0.7250
   37MOL   C15513907   3.553   8.131   1.676  0.1450  0.4985  0.4366
   37MOL   O15613908   3.663   0.001   1.760  0.2819  0.2014  0.2217
   37MOL   C15713909   3.525   0.056   1.571  0.3795 -0.4647  0.3317
   37MOL   O15813910   3.591   0.033   1.448 -0.7245  0.4660 -0.0044
   37MOL   C15913911   3.561   8.098   1.370 -0.0659 -0.7199  0.3309
   37MOL   C16013912   3.440   8.025   1.378  0.3844  0.3804 -0.3330
   37MOL   C16113913   3.404   7.927   1.291 -0.0194  0.6221 -0.8862
   37MOL   C16213914   3.485   7.906   1.178  0.0740  0.4391 -0.0655
   37MOL   C16313915   3.607   7.970   1.169 -0.3047  0.9092  0.6500
   37MOL   C16413916   3.643   8.069   1.264  0.0994  0.0363 -0.2148
   37MOL   H16513917   3.524   8.064   1.884  0.4121 -0.3704 -0.2602
   37MOL   H16613918   3.561   8.028   1.643 -1.2372 -0.0241  1.6858
   37MOL   H16713919   3.555   0.157   1.602 -0.8758  0.6406 -1.9077
   37MOL   H16813920   3.418   0.069   1.552  1.1669  1.7703 -2.9990
   37MOL   H16913921   3.376   8.054   1.460 -0.2045 -1.8699  0.0443
   37MOL   H17013922   3.307   7.879   1.283  0.1264  0.4050 -1.4223
   37MOL   H17113923   3.473   7.827   1.105 -0.5225 -0.7119  1.2619
   37MOL   H17213924   3.670   7.951   1.084  1.2963 -0.6507  2.1528
   37MOL   C17313925   3.777   8.139   1.238  0.2104 -0.0890 -1.0721
   37MOL   C17413926   3.889   8.134   1.338  0.4004 -0.1478 -0.5310
   37MOL   O17513927   3.887   8.045   1.225 -0.5531 -0.5429  0.1509
   37MOL   C17613928   3.891   8.071   1.474 -0.5300 -0.2787 -0.5338
   37MOL   O17713929   4.021   8.031   1.512  0.2115 -0.4732  0.1608
   37MOL   C17813930   4.042   8.031   1.645  0.5901  0.2523  0.1608
   37MOL   C17913931   3.937   8.005   1.741  0.2221 -0.2118 -0.2250
   37MOL   C18013932   3.961   8.020   1.881  0.5466 -0.0507 -0.1996
   37MOL   C18113933   4.082   8.074   1.925 -0.4270  0.0449 -1.1698
   37MOL   C18213934   4.188   8.095   1.831 -0.5559 -0.2361  0.5936
   37MOL   C18313935   4.169   8.067   1.691 -0.3310 -0.9698 -0.5581
   37MOL   H18413936   3.786   0.049   1.165  0.4001  0.7689 -0.1298
   37MOL   H18513937   3.955   0.050   1.324  2.5232 -1.6247  0.2506
   37MOL   H18613938   3.818   7.992   1.493  0.6206 -1.3778 -0.6238
   37MOL   H18713939   3.864   8.148   1.547  2.8479  0.0726  0.4148
   37MOL   H18813940   3.845   7.956   1.713 -1.0428  1.5395  0.7642
   37MOL   H18913941   3.890   7.988   1.955 -0.1029  0.7708 -0.4570
   37MOL   H19013942   4.106   8.089   2.029 -2.0509 -0.8364 -0.6496
   37MOL   H19113943   4.286   8.133   1.857 -0.5982  1.3934 -1.5034
   37MOL   C19213944   4.287   8.063   1.598  0.2533 -0.1830  0.2930
   37MOL   C19313945   4.384   0.001   1.569 -0.7377  0.5839 -0.1479
   37MOL   O19413946   4.413   8.074   1.670  0.2576  0.4430  0.3245
   37MOL   C19513947   4.370   0.141   1.607 -0.2331 -0.0294 -0.0606
   37MOL   O19613948   4.237   0.177   1.636  0.2001  0.0749 -0.3458
   37MOL   C19713949   4.215   0.299   1.690  0.4561  0.3101 -0.4789
   37MOL   C19813950   4.320   0.395   1.701 -0.0375  0.0751  0.5018
   37MOL   C19913951   4.287   0.522   1.760  0.2587  0.8025  0.4519
   37MOL   C20013952   4.167   0.540   1.823  0.0741  0.3787 -0.3316
   37MOL   C20113953   4.061   0.451   1.814  0.2617 -0.3761 -0.1219
   37MOL   C20213954   4.088   0.331   1.739  0.0204  0.5616  0.2935
   37MOL   H20313955   4.285   7.971   1.539  0.3974 -0.7758  1.1999
   37MOL   H20413956   4.461   8.160   1.492 -0.4834 -1.4154  0.3756
   37MOL   H20513957   4.399   0.202   1.521 -1.7769  2.1443  0.9275
   37MOL   H20613958   4.438   0.162   1.690  0.0813 -1.7497  0.1537
   37MOL   H20713959   4.419   0.375   1.661  0.0215  1.0702  0.1300
   37MOL   H20813960   4.370   0.590   1.774  1.1317 -0.6098  2.4536
   37MOL   H20913961   4.153   0.628   1.884 -1.4383  0.8909 -1.3712
   37MOL   H21013962   3.965   0.469   1.860  1.2217  1.2839  1.2820
   37MOL   C21113963   3.962   0.248   1.717 -0.2198  0.1726  0.0711
   37MOL   C21213964   3.830   0.306   1.674  0.2093 -0.6778 -0.7199
   37MOL   O21313965   3.930   0.250   1.583  0.5393 -0.8481 -0.1571
   37MOL   C21413966   3.800   0.454   1.661 -0.0790  0.0995  0.1918
   37MOL   O21513967   3.684   0.479   1.579 -0.3389  0.0573  0.1619
   37MOL   C21613968   3.683   0.440   1.444  0.2678 -0.1423 -0.2382
   37MOL   C21713969   3.802   0.438   1.366  0.5178  0.8131 -0.5084
   37MOL   C21813970   3.804   0.399   1.231  0.2301 -0.2333  0.4528
   37MOL   C21913971   3.690   0.361   1.160  0.5695 -0.1272  0.2617
   37MOL   C22013972   3.570   0.367   1.236 -0.7895 -0.1126 -0.2413
   37MOL   C22113973   3.562   0.405   1.374  0.0391  0.4328  0.8016
   37MOL   H22213974   3.970   0.145   1.750  0.6315 -0.4447 -1.9680
   37MOL   H22313975   3.746   0.238   1.684  0.3614 -0.4085  3.1003
   37MOL   H22413976   3.887   0.509   1.625  0.5338 -1.4787 -0.8305
   37MOL   H22513977   3.774   0.492   1.760 -1.4403 -1.2426  0.3731
   37MOL   H22613978   3.899   0.450   1.412 -0.2825  3.7086  0.5104
   37MOL   H22713979   3.898   0.395   1.178 -1.0619 -2.6369 -1.8267
   37MOL   H22813980   3.690   0.332   1.056  0.1023 -0.2827  0.3058
   37MOL   H22913981   3.477   0.348   1.184 -0.6476 -1.5583  0.0238
   37MOL   C23013982   3.435   0.404   1.451  0.6838  0.1932 -0.1021
   37MOL   C23113983   3.315   0.490   1.428  0.6387  0.5408  0.5845
   37MOL   O23213984   3.328   0.362   1.368  0.0258 -0.3607  0.0257
   37MOL   C23313985   3.319   0.612   1.337 -0.0102  0.3639 -0.0617
   37MOL   O23413986   3.196   0.618   1.267 -0.0426 -0.3724  0.3288
   37MOL   C23513987   3.086   0.657   1.331 -0.1899  0.1653 -0.0861
   37MOL   C23613988   3.078   0.696   1.471  0.3122 -0.0770 -0.2233
   37MOL   C23713989   2.948   0.731   1.522 -0.0124  1.1120 -0.8783
   37MOL   C23813990   2.831   0.735   1.448 -0.2373  0.0174 -0.0868
   37MOL   C23913991   2.841   0.708   1.316  0.7097 -0.1362 -0.5177
   37MOL   C24013992   2.963   0.676   1.256 -0.5572 -0.3505 -0.1603
   37MOL   H24113993   3.432   0.333   1.534 -1.8260 -1.8447 -1.8424
   37MOL   H24213994   3.261   0.491   1.522  0.2265  0.4620  0.3523
   37MOL   H24313995   3.400   0.604   1.264  0.5731  1.5032  0.4536
   37MOL   H24413996   3.346   0.691   1.407 -0.0138 -0.9846  1.4958
   37MOL   H24513997   3.165   0.699   1.536 -0.7631  0.2561  1.2344
   37MOL   H24613998   2.933   0.754   1.627  0.9017  1.2394 -0.7673
   37MOL   H24713999   2.733   0.753   1.489 -0.0011 -2.5487  1.7174
   37MOL   H24814000   2.754   0.712   1.253  0.6693 -0.9350 -0.5246
   37MOL   C24914001   2.963   0.665   1.112 -0.6656  0.2220 -0.0577
   37MOL   C25014002   2.991   0.550   1.027  0.2338  0.1561  0.0677
   37MOL   O25114003   2.855   0.584   1.064 -0.2868 -0.0936  0.6503
   37MOL   C25214004   3.043   0.422   1.068 -0.0284 -0.0424 -0.3450
   37MOL   O25314005   3.006   0.331   0.969  0.1293 -0.2043 -0.1396
   37MOL   C25414006   3.024   0.199   1.005 -0.4999 -0.1546  0.0170
   37MOL   C25514007   3.116   0.158   1.109  0.0925 -0.3374  0.4336
   37MOL   C25614008   3.128   0.026   1.151  0.8760 -0.1483 -0.6394
   37MOL   C25714009   3.056   8.098   1.086 -0.4161 -0.0347 -0.6211
   37MOL   C25814010   2.991   8.134   0.973  0.3595 -0.4883  0.2708
   37MOL   C25914011   2.966   0.097   0.934  0.1372 -0.0957  0.1715
   37MOL   H26014012   2.974   0.760   1.061 -0.8624  1.0585  1.4516
   37MOL   H26114013   3.011   0.576   0.923 -0.5207  0.6656  0.0476
   37MOL   H26214014   3.015   0.395   1.170  0.8284  0.6457  0.0838
   37MOL   H26314015   3.152   0.428   1.064  0.0978 -0.4062  1.7336
   37MOL   H26414016   3.163   0.235   1.169  0.7506 -0.1600 -0.2998
   37MOL   H26514017   3.194   0.004   1.233  0.8324  0.8578 -0.3239
   37MOL   H26614018   3.062   7.994   1.116  2.3877 -0.2455 -1.7212
   37MOL   H26714019   2.944   8.053   0.918  0.4832 -0.2495 -0.1919
   37MOL   C26814020   2.880   0.128   0.821  0.3074  0.8469 -0.4757
   37MOL   C26914021   2.943   0.141   0.676 -0.4456 -0.7008 -0.0060
   37MOL   O27014022   2.887   0.017   0.724 -0.2389 -0.7719  0.0265
   37MOL   C27114023   3.092   0.129   0.641  0.3280 -0.6488  0.8144
   37MOL   O27214024   3.112   0.187   0.514 -0.1283  0.1616 -0.4165
   37MOL   C27314025   3.081   0.322   0.511 -0.0652  0.0381 -0.6132
   37MOL   C27414026   3.100   0.409   0.624 -0.3328 -0.3163 -0.4429
   37MOL   C27514027   3.060   0.542   0.612  0.1679 -0.6975  0.5055
   37MOL   C27614028   3.009   0.597   0.491 -0.3850  0.1021  0.5264
   37MOL   C27714029   2.996   0.515   0.386  0.8833 -0.3172  0.3115
   37MOL   C27814030   3.026   0.375   0.394  0.8293  0.1177 -0.1204
   37MOL   H27914031   2.779   0.158   0.850  0.1721 -0.4943  0.4721
   37MOL   H28014032   2.879   0.190   0.603  0.5917 -1.7306 -1.6401
   37MOL   H28114033   3.119   0.024   0.644 -0.0640 -0.7071  2.4661
   37MOL   H28214034   3.160   0.183   0.707  1.4560 -1.1451  0.0695
   37MOL   H28314035   3.147   0.385   0.718 -0.7235  1.6906  0.2811
   37MOL   H28414036   3.075   0.602   0.700 -2.3209 -0.5450  0.8694
   37MOL   H28514037   2.983   0.701   0.476 -1.6022 -0.2981 -0.1544
   37MOL   H28614038   2.961   0.558   0.293  1.6340  0.0159  0.1787
   37MOL   C28714039   3.013   0.289   0.274  0.5663 -0.2647  0.1134
   37MOL   C28814040   2.886   0.225   0.227  0.8826 -0.4202 -0.7521
   37MOL   O28914041   2.920   0.351   0.176 -0.0400  0.1955 -0.4443
   37MOL   C29014042   2.765   0.222   0.319 -0.1223  0.4996 -0.1089
   37MOL   O29114043   2.645   0.202   0.239 -0.2336 -0.2546  0.3016
   37MOL   C29214044   2.533   0.276   0.252 -0.1583 -0.1054  0.2727
   37MOL   C29314045   2.508   0.346   0.371 -0.4534  0.3347  0.2889
   37MOL   C29414046   2.392   0.425   0.382  0.5138 -0.2502  0.1174
   37MOL   C29514047   2.296   0.440   0.281 -0.4981 -0.1103 -0.5551
   37MOL   C29614048   2.323   0.370   0.165 -0.2504 -0.2114  0.2796
   37MOL   C29714049   2.438   0.289   0.146 -0.4387  0.8451  0.0710
   37MOL   H29814050   3.103   0.238   0.242 -0.5446 -2.8172  0.9702
   37MOL   H29914051   2.899   0.142   0.157  0.8420 -0.2239 -0.9915
   37MOL   H30014052   2.764   0.312   0.381 -0.0466 -0.6807  1.6326
   37MOL   H30114053   2.765   0.142   0.393 -1.8850 -0.0556 -0.7003
   37MOL   H30214054   2.566   0.328   0.460 -0.0773 -0.7822 -0.1836
   37MOL   H30314055   2.375   0.471   0.479 -2.7634 -2.5165  0.6735
   37MOL   H30414056   2.207   0.500   0.294  0.3085  0.9742  0.0652
   37MOL   H30514057   2.234   0.374   0.105 -1.0981  1.7616  1.6098
   37MOL   C30614058   2.457   0.213   0.023  0.3528  0.9392  0.1724
   37MOL   C30714059   2.441   0.064   0.005 -0.1350  0.1550  0.2799
   37MOL   O30814060   2.337   0.155   8.129 -0.2035  0.5184  0.1777
   37MOL   C30914061   2.413   8.132   0.113 -0.2530 -0.3854 -0.2463
   37MOL   O31014062   2.421   8.007   0.052  0.0278 -0.3912  0.1007
   37MOL   C31114063   2.307   7.947   8.167  0.2776 -0.2109 -0.0226
   37MOL   C31214064   2.182   8.015   8.152 -0.5704  0.3787  0.2789
   37MOL   C31314065   2.076   7.943   8.087  0.3845 -0.2367  0.3480
   37MOL   C31414066   2.091   7.819   8.032 -0.4070  0.3965 -0.3676
   37MOL   C31514067   2.210   7.747   8.052  0.6399  0.1418  0.0916
   37MOL   C31614068   2.312   7.812   8.127 -0.0372  0.3132  0.2371
   37MOL   H31714069   2.530   0.259   8.126  0.7233 -2.0602 -1.5756
   37MOL   H31814070   2.507   0.028   8.097  1.9766 -0.4459  2.2712
   37MOL   H31914071   2.323   8.165   0.164  0.7729  2.6619 -0.3036
   37MOL   H32014072   2.496   8.135   0.185 -0.8868  0.0244  0.4689
   37MOL   H32114073   2.156   8.114   0.016 -0.5096  0.9466 -1.2645
   37MOL   H32214074   1.975   7.981   8.085  1.0032  1.4271 -1.5928
   37MOL   H32314075   2.014   7.773   7.972  1.6313 -0.4142 -2.4408
   37MOL   H32414076   2.221   7.645   8.018 -1.4281  0.0536 -0.3802
   37MOL   C32514077   2.441   7.750   8.140 -0.2673  0.5434  0.6927
   37MOL   C32614078   2.512   7.677   0.083 -0.2297  0.5864 -0.1124
   37MOL   O32714079   2.427   7.612   8.158  0.3850  0.2626 -0.5762
   37MOL   C32814080   2.472   7.668   0.224 -0.3279  0.1144 -0.1811
   37MOL   O32914081   2.533   7.560   0.284  0.4651 -0.1912  0.5317
   37MOL   C33014082   2.663   7.563   0.332 -0.3130  0.5458 -0.9272
   37MOL   C33114083   2.744   7.679   0.326  0.6272 -0.3871  1.1024
   37MOL   C33214084   2.872   7.667   0.386 -0.1586 -0.1968  0.5230
   37MOL   C33314085   2.913   7.559   0.467  0.8565 -0.3141 -0.0632
   37MOL   C33414086   2.830   7.450   0.467 -0.2084  0.6096  0.3840
   37MOL   C33514087   2.706   7.443   0.399 -0.2751 -0.2569  0.6232
   37MOL   H33614088   2.499   7.788   8.056 -0.0940  2.7346  1.7719
   37MOL   H33714089   2.615   7.647   0.061 -0.4438 -1.2690  1.3535
   37MOL   H33814090   2.364   7.666   0.236 -0.3098 -0.7720 -0.1491
   37MOL   H33914091   2.497   7.762   0.273 -0.3150  0.4190 -0.7573
   37MOL   H34014092   2.706   7.769   0.280  1.1019 -0.8034 -0.1214
   37MOL   H34114093   2.928   7.759   0.388  0.7647 -0.7600  1.4066
   37MOL   H34214094   3.005   7.558   0.525  0.9910 -1.4823 -0.2756
   37MOL   H34314095   2.869   7.364   0.520 -0.3547  0.3512  0.0704
   37MOL   C34414096   2.614   7.328   0.430  0.2589  0.4803 -0.2457
   37MOL   C34514097   2.609   7.203   0.342 -0.4645 -0.5863  0.1957
   37MOL   O34614098   2.686   7.205   0.459  0.0371 -0.4377  0.8199
   37MOL   C34714099   2.681   7.182   0.211 -0.5055 -0.5485 -0.7160
   37MOL   O34814100   2.648   7.045   0.183  0.2733 -0.9194 -0.0375
   37MOL   C34914101   2.674   6.995   0.058 -0.0258  0.7945  0.9212
   37MOL   C35014102   2.746   7.062   8.128 -1.1607 -0.4879 -0.0983
   37MOL   C35114103   2.777   6.991   8.009  0.1161  0.1271 -1.3466
   37MOL   C35214104   2.737   6.860   7.984 -0.2396  0.0381  0.7191
   37MOL   C35314105   2.650   6.800   8.078  0.1900 -0.6422  0.9241
   37MOL   C35414106   2.611   6.868   0.025 -0.1165  0.2351  0.0985
   37MOL   H35514107   2.544   7.343   0.512  0.8412 -1.7694  0.6687
   37MOL   H35614108   2.525   7.134   0.339  1.1983 -2.6537 -0.0274
   37MOL   H35714109   2.788   7.196   0.226 -1.0847  1.8834  1.4403
   37MOL   H35814110   2.640   7.251   0.137 -1.6319  1.0713  1.3715
   37MOL   H35914111   2.777   7.165   8.135  0.9391 -1.1720  1.1734
   37MOL   H36014112   2.845   7.032   7.935  1.3182  0.3695 -0.1472
   37MOL   H36114113   2.769   6.801   7.900 -2.1427 -0.3692  0.2548
   37MOL   H36214114   2.625   6.696   8.069 -0.2631 -0.4465 -0.1978
   37MOL   C36314115   2.523   6.796   0.125 -0.5318 -0.7541 -0.1988
   37MOL   C36414116   2.370   6.795   0.131  0.3004  0.0636 -0.6575
   37MOL   O36514117   2.444   6.692   0.072 -0.6356 -0.9395 -0.0792
   37MOL   C36614118   2.280   6.864   0.037 -0.7981 -0.3062  0.1739
   37MOL   O36714119   2.150   6.807   0.051  0.4686 -0.1619 -0.0898
   37MOL   C36814120   2.105   6.722   8.124 -0.0590  0.5322 -0.8064
   37MOL   C36914121   1.967   6.704   8.120  0.0603 -0.0299  0.1384
   37MOL   C37014122   1.904   6.646   8.007  0.6652 -0.9235  0.4657
   37MOL   C37114123   1.988   6.613   7.890  0.5414 -0.0955 -0.4969
   37MOL   C37214124   2.127   6.614   7.902  0.3273  0.1196 -0.1806
   37MOL   C37314125   2.188   6.671   8.020  0.3428 -0.6290 -0.6857
   37MOL   H37414126   2.569   6.781   0.223 -1.7169  1.3213  0.6981
   37MOL   H37514127   2.320   6.763   0.222  0.6341  1.7212  0.1269
   37MOL   H37614128   2.324   6.863   8.108  0.8000  0.3504  0.8695
   37MOL   H37714129   2.270   6.968   0.067  1.6561 -0.0386  0.1474
   37MOL   H37814130   1.910   6.743   0.033 -1.2603  2.6274 -1.9356
   37MOL   H37914131   1.797   6.643   7.994  0.7621  1.7133 -1.5002
   37MOL   H38014132   1.934   6.579   7.803  1.9123 -0.8555 -1.0818
   37MOL   H38114133   2.189   6.576   7.822 -3.2368  0.4104 -3.1762
   37MOL   H38214134   2.293   6.693   8.009  0.4490 -0.9115 -0.2539
   38MOL     C114135   7.307   7.532   3.059  0.4153 -0.0708 -0.4887
   38MOL     C214136   7.373   7.639   2.975 -0.0244 -0.5220 -0.1177
   38MOL     O314137   7.269   7.559   2.924 -0.0752 -0.2896 -0.0411
   38MOL     C414138   7.508   7.621   2.911 -0.4530 -0.1188 -0.0274
   38MOL     O514139   7.592   7.546   2.994 -0.1490 -0.0996 -0.6640
   38MOL     C614140   7.727   7.526   2.950  0.1845  1.2983  0.2479
   38MOL     C714141   7.777   7.548   2.822  0.1480  0.4119  0.2936
   38MOL     C814142   7.915   7.535   2.798  0.1799 -0.8319 -0.0529
   38MOL     C914143   8.006   7.487   2.903 -0.1264 -0.5481  0.2999
   38MOL    C1014144   7.949   7.455   3.026 -0.1200  0.0101 -0.0458
   38MOL    C1114145   7.814   7.470   3.048  0.6037  0.2446 -0.3153
   38MOL    H1214146   7.258   7.577   3.145  1.3110 -0.0585  0.0192
   38MOL    H1314147   7.350   7.745   2.989  0.6640 -0.3816 -0.0521
   38MOL    H1414148   7.559   7.714   2.887 -0.5179  0.5066  2.1956
   38MOL    H1514149   7.494   7.572   2.815 -0.7337  0.3843 -0.2449
   38MOL    H1614150   7.711   7.582   2.743 -0.1483 -0.0922  0.3206
   38MOL    H1714151   7.955   7.548   2.699  0.0013 -0.4204 -0.0731
   38MOL    H1814152   8.109   7.463   2.881 -0.0975  0.8455 -1.1632
   38MOL    H1914153   8.010   7.413   3.104 -0.0426  2.1914  1.1106
   38MOL    H2014154   7.341   7.430   3.073  1.1247  0.1375 -0.6960
   38MOL    C2114155   7.749   7.435   3.182 -0.2283 -1.3387  0.2661
   38MOL    C2214156   7.697   7.300   3.214 -0.0422 -0.8436  0.6960
   38MOL    O2314157   7.832   7.339   3.243  0.2700  0.9260  0.2838
   38MOL    C2414158   7.658   7.197   3.113  0.0668  0.1891  0.4383
   38MOL    O2514159   7.696   7.077   3.184  0.3402 -0.1477  0.7132
   38MOL    C2614160   7.648   6.957   3.140 -0.5788 -0.4428  0.1474
   38MOL    C2714161   7.569   6.940   3.019  0.2254 -0.8728  0.1380
   38MOL    C2814162   7.555   6.814   2.971 -0.3603 -0.0199  0.2449
   38MOL    C2914163   7.606   6.701   3.042 -0.1621  0.0137  0.4747
   38MOL    C3014164   7.664   6.719   3.169 -1.0006  0.2570  0.3025
   38MOL    C3114165   7.690   6.849   3.217  0.0636 -0.1673 -0.1166
   38MOL    H3214166   7.715   7.518   3.243 -3.2515 -0.9866 -1.8012
   38MOL    H3314167   7.637   7.294   3.305 -3.1450  1.5958 -1.1273
   38MOL    H3414168   7.711   7.187   3.018 -1.2299 -2.6765 -0.0494
   38MOL    H3514169   7.552   7.208   3.092 -0.0075 -1.6249 -0.2936
   38MOL    H3614170   7.546   7.022   2.952 -0.6557  0.5068  2.1012
   38MOL    H3714171   7.500   6.802   2.879  0.5128  1.7381 -0.5372
   38MOL    H3814172   7.594   6.601   3.004  0.3464  1.0606 -2.5102
   38MOL    H3914173   7.692   6.633   3.228 -0.1281  0.3937  0.0945
   38MOL    C4014174   7.763   6.877   3.341  0.2039  0.5709 -0.0520
   38MOL    C4114175   7.690   6.873   3.473  0.3573 -0.4790 -0.1086
   38MOL    O4214176   7.767   6.761   3.426  0.0074 -0.2274 -0.4882
   38MOL    C4314177   7.545   6.844   3.503  0.3743  0.2699 -0.0623
   38MOL    O4414178   7.451   6.924   3.421  0.2822  0.3305 -0.0086
   38MOL    C4514179   7.444   7.058   3.437  0.2179 -0.5009 -0.1110
   38MOL    C4614180   7.512   7.128   3.541 -0.2621  0.0295  0.2605
   38MOL    C4714181   7.510   7.268   3.552  0.6004  0.4479  0.4100
   38MOL    C4814182   7.429   7.337   3.461 -0.6480  0.2900  0.1615
   38MOL    C4914183   7.353   7.273   3.364  0.2127  0.2683 -0.0728
   38MOL    C5014184   7.357   7.130   3.353 -0.7498 -0.7258  0.5491
   38MOL    H5114185   7.849   6.943   3.336 -0.0824  0.9996  0.5674
   38MOL    H5214186   7.732   6.929   3.556  1.0497 -1.2279  0.0648
   38MOL    H5314187   7.528   6.866   3.609 -0.5569 -0.1270 -0.1184
   38MOL    H5414188   7.522   6.737   3.496 -0.5110  0.4750 -0.3189
   38MOL    H5514189   7.563   7.076   3.620  0.3954  0.2460 -0.0200
   38MOL    H5614190   7.566   7.322   3.627 -1.8482  1.0277  1.8656
   38MOL    H5714191   7.432   7.445   3.459 -0.2725  0.2603 -2.3237
   38MOL    H5814192   7.314   7.327   3.278  0.1325  0.9460  0.3869
   38MOL    C5914193   7.280   7.060   3.247  0.0411  0.0628  0.1524
   38MOL    C6014194   7.136   7.034   3.238 -0.9736 -0.4557 -0.0393
   38MOL    O6114195   7.198   7.141   3.166  0.4896 -0.3984 -0.3868
   38MOL    C6214196   7.040   7.067   3.356 -0.0541 -0.1849 -0.7850
   38MOL    O6314197   6.902   7.049   3.316  0.7196  0.0839  0.0961
   38MOL    C6414198   6.829   6.937   3.341  0.6436 -0.4610 -0.1366
   38MOL    C6514199   6.875   6.824   3.424  0.0598 -0.3267  0.8244
   38MOL    C6614200   6.794   6.711   3.432  0.2808  0.8449  0.4402
   38MOL    C6714201   6.668   6.707   3.366  0.0635  0.1094  0.1736
   38MOL    C6814202   6.625   6.811   3.276 -0.6986  0.7875 -0.7991
   38MOL    C6914203   6.707   6.927   3.275 -0.2583  0.2575  0.2509
   38MOL    H7014204   7.338   6.990   3.187 -0.2665 -0.2741  0.2448
   38MOL    H7114205   7.106   6.946   3.182 -2.0855 -1.0470  1.4426
   38MOL    H7214206   7.050   7.172   3.381  1.3884 -0.2388 -1.0726
   38MOL    H7314207   7.073   7.018   3.448 -0.0405 -0.5178 -0.9644
   38MOL    H7414208   6.973   6.827   3.470  0.7216  0.7472 -0.5759
   38MOL    H7514209   6.818   6.625   3.493 -0.0399 -0.1099 -0.7622
   38MOL    H7614210   6.606   6.620   3.378  1.2605 -0.7057  0.6085
   38MOL    H7714211   6.533   6.804   3.219 -0.7950 -1.4882 -0.4179
   38MOL    C7814212   6.655   7.046   3.206  0.6090 -0.9089  0.0470
   38MOL    C7914213   6.691   7.093   3.066 -0.0550 -0.2851  0.5992
   38MOL    O8014214   6.571   7.021   3.095 -0.2911 -0.1185  0.3631
   38MOL    C8114215   6.789   7.016   2.974 -0.6096  0.5948  0.2237
   38MOL    O8214216   6.778   7.067   2.840 -0.1413 -0.1820  0.2209
   38MOL    C8314217   6.867   7.164   2.808  1.3001  0.0221  1.1518
   38MOL    C8414218   6.920   7.252   2.906 -0.4309  0.5867  0.3110
   38MOL    C8514219   7.014   7.349   2.870 -0.6947  0.3757  0.2044
   38MOL    C8614220   7.037   7.381   2.733  0.1839  0.1378 -0.3366
   38MOL    C8714221   6.980   7.301   2.634  0.0270 -0.6907 -0.2857
   38MOL    C8814222   6.889   7.196   2.670  0.3158 -0.3186 -0.6708
   38MOL    H8914223   6.601   7.117   3.268 -0.3285 -0.7155 -0.9803
   38MOL    H9014224   6.660   7.184   3.016  1.2878 -0.6915 -1.0554
   38MOL    H9114225   6.767   6.910   2.980 -0.2270  0.5127  0.1182
   38MOL    H9214226   6.888   7.019   3.018  0.3359  1.6170 -1.9121
   38MOL    H9314227   6.889   7.246   3.009 -2.9981 -1.3825 -0.4979
   38MOL    H9414228   7.049   7.411   2.952  0.1954  1.0871 -0.7048
   38MOL    H9514229   7.100   7.464   2.702  0.4600 -0.1244 -0.4727
   38MOL    H9614230   7.007   7.314   2.531  0.0090 -0.3032 -0.2397
   38MOL    C9714231   6.826   7.117   2.562 -0.4839 -0.3047 -0.8708
   38MOL    C9814232   6.674   7.101   2.538 -0.0651  0.3224  1.0414
   38MOL    O9914233   6.754   7.195   2.461  0.2823  0.5539 -0.5416
   38MOL   C10014234   6.569   7.175   2.614 -0.4805 -0.6575  0.1372
   38MOL   O10114235   6.464   7.096   2.671  0.0103 -0.0601 -0.2540
   38MOL   C10214236   6.356   7.055   2.589  1.2146  0.5990 -0.8096
   38MOL   C10314237   6.304   7.118   2.479 -0.2472  0.2687  0.3383
   38MOL   C10414238   6.199   7.067   2.401 -0.4493  0.4475 -0.4784
   38MOL   C10514239   6.134   6.949   2.445 -0.6802  0.1889  0.7132
   38MOL   C10614240   6.189   6.876   2.551  0.5314 -0.1516 -0.1233
   38MOL   C10714241   6.297   6.926   2.627  0.2677  0.3006  0.0852
   38MOL   H10814242   6.894   7.045   2.518  1.8876 -0.1846  2.4565
   38MOL   H10914243   6.640   7.014   2.483 -0.9644 -0.0150  2.1101
   38MOL   H11014244   6.530   7.257   2.554 -1.1036 -0.2608  1.0735
   38MOL   H11114245   6.616   7.223   2.700  0.3461  2.0128 -1.7574
   38MOL   H11214246   6.354   7.205   2.437 -0.6999  0.5701  0.4236
   38MOL   H11314247   6.165   7.110   2.308  0.1403  0.5191 -0.6634
   38MOL   H11414248   6.051   6.902   2.393  1.3688 -2.1629 -0.5534
   38MOL   H11514249   6.143   6.779   2.565 -0.4575  0.5307  1.5821
   38MOL   C11614250   6.360   6.840   2.736 -0.6757  0.3300  0.1380
   38MOL   C11714251   6.362   6.873   2.880 -0.2688  0.0998 -0.1147
   38MOL   O11814252   6.270   6.780   2.826  0.0132  0.8943 -0.1363
   38MOL   C11914253   6.296   6.990   2.952 -0.5379 -0.3801  0.2075
   38MOL   O12014254   6.188   7.053   2.876  0.6334 -0.0101 -0.5845
   38MOL   C12114255   6.107   7.134   2.943 -0.2184 -0.7496  0.2901
   38MOL   C12214256   6.121   7.171   3.084 -0.5336  0.7785  0.0643
   38MOL   C12314257   6.032   7.256   3.150  0.1838 -0.3344 -1.1282
   38MOL   C12414258   5.928   7.318   3.079 -0.2878  0.3223 -0.0399
   38MOL   C12514259   5.917   7.301   2.941 -1.0881 -0.8460 -0.0917
   38MOL   C12614260   6.004   7.209   2.875  0.6979 -0.2078 -0.4091
   38MOL   H12714261   6.448   6.784   2.707 -0.7436  0.6988 -0.8051
   38MOL   H12814262   6.451   6.832   2.928  0.1040  1.4207  0.3526
   38MOL   H12914263   6.372   7.066   2.969  2.0061 -2.0096 -3.2126
   38MOL   H13014264   6.268   6.944   3.047 -0.4818  0.2675  0.5406
   38MOL   H13114265   6.205   7.136   3.142  0.0695  0.1561 -1.1552
   38MOL   H13214266   6.033   7.274   3.256  0.9431 -2.3782 -0.7734
   38MOL   H13314267   5.853   7.369   3.137  0.4468  1.8453 -0.4148
   38MOL   H13414268   5.841   7.356   2.886 -0.6653 -1.6798 -1.5274
   38MOL   C13514269   5.985   7.189   2.729  0.9850 -0.3012 -0.1859
   38MOL   C13614270   5.908   7.071   2.661 -0.1339 -0.2990 -0.2294
   38MOL   O13714271   5.847   7.200   2.671 -0.0336  0.0735 -0.0972
   38MOL   C13814272   5.834   6.970   2.739  1.0488  0.4636 -0.1995
   38MOL   O13914273   5.705   6.935   2.688  0.1711 -0.1957 -0.1627
   38MOL   C14014274   5.705   6.850   2.579  0.1113  0.0699 -0.0328
   38MOL   C14114275   5.792   6.742   2.557  0.2869  0.3673 -0.0299
   38MOL   C14214276   5.762   6.639   2.465 -0.6826  0.1185  0.3544
   38MOL   C14314277   5.657   6.658   2.373 -0.0224 -0.2174  0.5323
   38MOL   C14414278   5.581   6.777   2.376  0.3408 -0.4451  0.1898
   38MOL   C14514279   5.611   6.872   2.478  0.5051  0.2186 -0.0897
   38MOL   H14614280   6.065   7.231   2.669  0.6699  0.1735 -0.2756
   38MOL   H14714281   5.929   7.044   2.558  1.0533  0.0284 -0.0803
   38MOL   H14814282   5.840   6.986   2.847 -0.8737 -0.1399  0.0276
   38MOL   H14914283   5.903   6.886   2.744  2.5056  1.6767  0.2639
   38MOL   H15014284   5.871   6.718   2.626  0.1490 -0.5538 -0.1904
   38MOL   H15114285   5.831   6.556   2.463 -2.1474 -1.2041  2.4395
   38MOL   H15214286   5.635   6.581   2.301  0.7044 -0.0926  0.1663
   38MOL   H15314287   5.504   6.798   2.303 -0.7995 -0.3084  1.4164
   38MOL   C15414288   5.519   6.988   2.490  0.2781 -0.4438  0.7915
   38MOL   C15514289   5.546   7.121   2.417 -0.5695 -0.3269  0.6266
   38MOL   O15614290   5.455   7.026   2.364  0.2598  0.1964  0.3555
   38MOL   C15714291   5.675   7.142   2.336 -0.0145  0.3300 -0.5006
   38MOL   O15814292   5.678   7.260   2.249  0.5249  0.1295  0.5000
   38MOL   C15914293   5.734   7.376   2.305 -0.3819 -0.1511  0.2975
   38MOL   C16014294   5.723   7.395   2.443  0.3494 -0.6122 -0.6742
   38MOL   C16114295   5.790   7.504   2.505  0.5082  0.1388 -0.3139
   38MOL   C16214296   5.848   7.601   2.423  0.3108 -0.3995 -0.6175
   38MOL   C16314297   5.858   7.587   2.282  0.7316  0.6471  0.6067
   38MOL   C16414298   5.801   7.474   2.225 -0.1883 -0.1855  0.5841
   38MOL   H16514299   5.449   6.975   2.572 -1.2561  0.0275 -0.4083
   38MOL   H16614300   5.496   7.208   2.457  0.5686  1.8362 -2.4344
   38MOL   H16714301   5.684   7.064   2.260  0.9089 -1.1288  1.0553
   38MOL   H16814302   5.761   7.142   2.403 -0.6895 -0.8192  0.3779
   38MOL   H16914303   5.671   7.333   2.514  2.7187 -0.1450  1.5560
   38MOL   H17014304   5.777   7.529   2.609  2.1343  1.9829 -0.5406
   38MOL   H17114305   5.893   7.682   2.478 -1.2736 -0.0400  0.1547
   38MOL   H17214306   5.920   7.653   2.223  0.8725 -0.0580 -0.0393
   38MOL   C17314307   5.820   7.453   2.080  0.4030 -0.3214 -0.2592
   38MOL   C17414308   5.700   7.446   1.988 -0.1628 -0.2354 -0.0948
   38MOL   O17514309   5.766   7.568   2.004 -0.6129  0.2785  0.7839
   38MOL   C17614310   5.554   7.443   2.030  0.0885 -0.2350 -0.1119
   38MOL   O17714311   5.467   7.474   1.922 -0.1638  0.1887  0.2881
   38MOL   C17814312   5.334   7.505   1.960  0.0094 -1.1401 -0.2985
   38MOL   C17914313   5.288   7.457   2.086  0.1491 -0.3300  0.4248
   38MOL   C18014314   5.170   7.508   2.131  0.7455  0.3136 -0.1894
   38MOL   C18114315   5.082   7.574   2.041 -0.5592  0.0605  0.1605
   38MOL   C18214316   5.124   7.609   1.912  0.0452 -0.2132 -0.5652
   38MOL   C18314317   5.254   7.576   1.869  0.1903  0.6232 -0.1594
   38MOL   H18414318   5.924   7.433   2.056  1.1066  2.5110  0.2301
   38MOL   H18514319   5.711   7.404   1.888 -1.2680 -0.6789 -0.0394
   38MOL   H18614320   5.545   7.517   2.110 -1.5780 -0.6177  0.0663
   38MOL   H18714321   5.542   7.343   2.071  0.0934 -0.4273 -0.5758
   38MOL   H18814322   5.344   7.400   2.159  3.5856 -0.0499 -1.8580
   38MOL   H18914323   5.139   7.492   2.233  1.9323  0.5599  0.2153
   38MOL   H19014324   4.979   7.597   2.066 -0.1997 -0.0144  1.8178
   38MOL   H19114325   5.052   7.666   1.855  0.1682  0.8457  0.3077
   38MOL   C19214326   5.308   7.626   1.735  0.2447 -0.4542  0.0185
   38MOL   C19314327   5.322   7.549   1.607 -0.1402 -0.5390 -0.2779
   38MOL   O19414328   5.209   7.628   1.638 -0.1524  0.2923 -0.7146
   38MOL   C19514329   5.288   7.407   1.603 -0.3726  0.5134 -0.2167
   38MOL   O19614330   5.267   7.359   1.469  0.0625 -0.2805  0.0078
   38MOL   C19714331   5.154   7.397   1.395  0.5552 -0.0310  0.1959
   38MOL   C19814332   5.036   7.454   1.455 -0.9046 -0.3887 -0.7642
   38MOL   C19914333   4.922   7.483   1.374 -0.0965 -0.0542  0.1654
   38MOL   C20014334   4.923   7.467   1.236 -0.0411 -0.0040 -0.4886
   38MOL   C20114335   5.041   7.420   1.176 -0.5252  0.1875 -0.5561
   38MOL   C20214336   5.153   7.380   1.253  0.1067  0.3509  0.7969
   38MOL   H20314337   5.371   7.714   1.741 -0.1418 -0.2133  0.5275
   38MOL   H20414338   5.382   7.591   1.526  2.0287 -3.2975 -0.1673
   38MOL   H20514339   5.197   7.379   1.657 -0.8505 -2.0731 -2.2157
   38MOL   H20614340   5.372   7.351   1.644  0.6823  2.8522  0.8518
   38MOL   H20714341   5.036   7.477   1.560  0.6592  0.8657 -1.0169
   38MOL   H20814342   4.826   7.517   1.412 -0.5552  1.6678 -2.4124
   38MOL   H20914343   4.830   7.465   1.182 -1.8265 -0.0050  2.4529
   38MOL   H21014344   5.048   7.407   1.070 -3.3003  0.1093 -0.7647
   38MOL   C21114345   5.276   7.327   1.179  0.1487  0.7880  1.9803
   38MOL   C21214346   5.306   7.179   1.137  0.9623 -0.1985 -0.1609
   38MOL   O21314347   5.249   7.270   1.048  0.3363 -0.6362 -0.0853
   38MOL   C21414348   5.213   7.070   1.175 -0.9113  0.1965 -0.4935
   38MOL   O21514349   5.172   6.973   1.077  0.1227  0.0818  0.2382
   38MOL   C21614350   5.263   6.885   1.024 -0.7797 -0.4343  0.0875
   38MOL   C21714351   5.380   6.847   1.090 -0.6900  0.8940  0.4137
   38MOL   C21814352   5.478   6.759   1.034 -0.7288 -0.4967 -0.6288
   38MOL   C21914353   5.450   6.709   0.907 -0.4781  0.1621 -0.0815
   38MOL   C22014354   5.333   6.738   0.836 -1.3899  0.3764 -0.5587
   38MOL   C22114355   5.242   6.827   0.895 -0.6452  0.1045 -0.1699
   38MOL   H22214356   5.363   7.392   1.185  2.1610 -1.2383 -2.5123
   38MOL   H22314357   5.409   7.154   1.111  1.3046  0.5751  0.4280
   38MOL   H22414358   5.118   7.111   1.209 -1.4146 -0.7229 -0.7615
   38MOL   H22514359   5.255   7.019   1.262 -1.2652 -2.3564 -1.7778
   38MOL   H22614360   5.406   6.885   1.188  0.8817  2.8007 -0.7037
   38MOL   H22714361   5.565   6.737   1.094 -0.5267 -0.6854 -0.9890
   38MOL   H22814362   5.519   6.642   0.857  0.0540  1.1514 -0.7071
   38MOL   H22914363   5.321   6.686   0.742 -0.0754  0.0738 -0.5664
   38MOL   C23014364   5.113   6.848   0.822 -0.5002 -0.2981 -0.0551
   38MOL   C23114365   5.072   6.974   0.748  0.3002  0.1346 -0.5235
   38MOL   O23214366   5.131   6.867   0.681 -0.0712  0.1499 -0.5701
   38MOL   C23314367   5.163   7.094   0.743 -0.7425 -0.1280  0.1281
   38MOL   O23414368   5.113   7.200   0.661 -0.2054  0.2642  0.1703
   38MOL   C23514369   5.008   7.275   0.711 -0.2985 -0.0370  0.7883
   38MOL   C23614370   4.962   7.254   0.845 -0.9648  0.1913 -0.1727
   38MOL   C23714371   4.846   7.321   0.891 -0.3664  0.3025 -0.0820
   38MOL   C23814372   4.789   7.420   0.808  0.3575  0.6310  1.0575
   38MOL   C23914373   4.838   7.447   0.675  0.2062  0.3910 -0.3413
   38MOL   C24014374   4.949   7.377   0.627  0.3414 -0.1579 -0.2541
   38MOL   H24114375   5.045   6.770   0.855  0.4825 -0.9233  0.5476
   38MOL   H24214376   4.965   6.986   0.734 -0.0151 -1.8826  0.1064
   38MOL   H24314377   5.255   7.068   0.692 -0.7102 -1.1941  0.7260
   38MOL   H24414378   5.195   7.128   0.842  0.7288 -0.3974 -0.2482
   38MOL   H24514379   5.011   7.188   0.915  0.6645  0.1354 -1.3399
   38MOL   H24614380   4.809   7.304   0.991  0.5473  0.5399  0.3035
   38MOL   H24714381   4.709   7.478   0.851 -1.7836 -1.6647  0.2631
   38MOL   H24814382   4.796   7.519   0.606  1.3141  2.2122  0.8722
   38MOL   C24914383   5.012   7.398   0.491 -0.0239  0.0927 -0.4026
   38MOL   C25014384   5.002   7.305   0.376 -0.3408  0.0112 -0.7832
   38MOL   O25114385   4.914   7.418   0.391 -0.1258 -0.4186  0.1004
   38MOL   C25214386   4.938   7.173   0.386 -0.5702 -0.0727 -0.4195
   38MOL   O25314387   4.894   7.126   0.260  0.6645  0.7389 -0.1992
   38MOL   C25414388   4.835   7.000   0.261 -0.0300 -0.0305 -0.1424
   38MOL   C25514389   4.798   6.927   0.377  0.0239  0.5702  0.0467
   38MOL   C25614390   4.750   6.798   0.360 -0.2698 -0.4313 -0.5507
   38MOL   C25714391   4.738   6.740   0.230  0.3237  0.3129  0.0733
   38MOL   C25814392   4.778   6.812   0.117  0.0409 -0.1583 -0.0239
   38MOL   C25914393   4.823   6.947   0.132  0.3779  0.1668 -0.1526
   38MOL   H26014394   5.084   7.479   0.494 -1.1670  1.1264 -0.4215
   38MOL   H26114395   5.076   7.314   0.297  0.0481  2.3756 -0.1932
   38MOL   H26214396   4.859   7.182   0.460  0.3734  2.0926  0.3433
   38MOL   H26314397   5.021   7.112   0.423 -1.4578 -2.4790 -2.1979
   38MOL   H26414398   4.791   6.970   0.476 -0.6007 -1.0051  0.7236
   38MOL   H26514399   4.717   6.740   0.445 -1.7936  0.7453 -0.3228
   38MOL   H26614400   4.718   6.634   0.226  1.3772  0.1238 -0.5714
   38MOL   H26714401   4.777   6.771   0.017 -1.2367 -1.0415  0.3391
   38MOL   C26814402   4.860   7.027   0.012 -0.0229  0.4991  0.0207
   38MOL   C26914403   4.996   7.072   8.131  0.0361  0.8764 -0.2066
   38MOL   O27014404   4.938   6.952   8.086 -0.4289 -0.1263  0.1035
   38MOL   C27114405   5.126   7.052   0.028 -0.4374  0.0963 -0.5889
   38MOL   O27214406   5.226   7.051   8.103  0.0543  0.0414 -0.2325
   38MOL   C27314407   5.358   7.074   8.143 -0.3052  0.0851 -0.7697
   38MOL   C27414408   5.397   7.063   0.103  0.1668 -0.5143 -0.8456
   38MOL   C27514409   5.531   7.088   0.153 -0.1260 -0.0067  0.7433
   38MOL   C27614410   5.625   7.133   0.056 -1.2134  0.3236  0.3899
   38MOL   C27714411   5.588   7.135   8.090  0.1396  0.5984  0.0615
   38MOL   C27814412   5.457   7.104   8.048 -0.1841  0.6087  0.2126
   38MOL   H27914413   4.774   7.073   8.133  0.0426 -1.3615 -1.9341
   38MOL   H28014414   5.003   7.151   8.057  2.6893  0.7199 -0.1504
   38MOL   H28114415   5.123   6.955   0.078 -0.1919 -1.1360 -2.9093
   38MOL   H28214416   5.134   7.123   0.110  2.1430 -2.5537  1.5545
   38MOL   H28314417   5.324   7.023   0.173  1.3062  1.4102  1.5388
   38MOL   H28414418   5.561   7.077   0.256  0.4766  1.1313  0.6976
   38MOL   H28514419   5.725   7.163   0.083  0.2954 -2.1230 -2.2005
   38MOL   H28614420   5.667   7.166   8.024 -0.9890 -2.5848 -2.9601
   38MOL   C28714421   5.436   7.106   7.896  0.1754  0.1246 -0.3365
   38MOL   C28814422   5.379   6.987   7.821 -0.4376 -0.4853 -0.9628
   38MOL   O28914423   5.296   7.102   7.858  0.6341  0.2009  0.6517
   38MOL   C29014424   5.346   6.849   7.875  0.0134 -0.2474  0.2660
   38MOL   O29114425   5.457   6.811   7.960 -0.6693 -0.7383  0.2402
   38MOL   C29214426   5.578   6.764   7.911  0.2043 -0.8062  0.3307
   38MOL   C29314427   5.596   6.732   7.780  0.0711 -0.1937  0.1687
   38MOL   C29414428   5.716   6.687   7.735  0.1140 -0.0947  0.7946
   38MOL   C29514429   5.829   6.683   7.819 -0.1789 -0.0339  0.1262
   38MOL   C29614430   5.815   6.713   7.958  0.3712 -0.0796  0.4545
   38MOL   C29714431   5.683   6.741   8.005  0.1817  0.6662  0.2447
   38MOL   H29814432   5.489   7.187   7.846  2.2147 -0.6844  0.4938
   38MOL   H29914433   5.400   6.986   7.714 -0.1819 -1.8042 -0.8986
   38MOL   H30014434   5.314   6.778   7.799  0.9504 -0.3801 -0.0075
   38MOL   H30114435   5.264   6.860   7.946 -0.6605 -1.7924 -0.2502
   38MOL   H30214436   5.527   6.747   7.698 -1.6425 -1.5228  1.3073
   38MOL   H30314437   5.734   6.664   7.631  0.0765  1.2368  0.4802
   38MOL   H30414438   5.925   6.657   7.778  0.7759  2.9858  0.3499
   38MOL   H30514439   5.895   6.710   8.031 -1.4468  3.7454  2.7554
   38MOL   C30614440   5.666   6.785   8.149 -0.6821 -0.0963 -0.0718
   38MOL   C30714441   5.573   6.717   0.080  0.3410 -0.1352 -0.0580
   38MOL   O30814442   5.712   6.692   0.075  0.4103 -0.4875 -0.3755
   38MOL   C30914443   5.476   6.612   0.031  0.5176  0.3714 -0.3482
   38MOL   O31014444   5.439   6.530   0.148 -0.0824 -0.2391 -0.8342
   38MOL   C31114445   5.342   6.575   0.234 -0.3753  0.0520 -0.2281
   38MOL   C31214446   5.253   6.678   0.193 -0.3348  0.0975  0.6008
   38MOL   C31314447   5.150   6.704   0.278  0.7063 -0.5700 -0.6463
   38MOL   C31414448   5.136   6.643   0.406  0.6263  0.8150  0.3807
   38MOL   C31514449   5.233   6.544   0.446 -0.3124 -0.3883 -0.2158
   38MOL   C31614450   5.335   6.501   0.354 -0.3635  0.1597 -0.0617
   38MOL   H31714451   5.686   6.890   8.170 -0.5505 -0.2127  0.4073
   38MOL   H31814452   5.544   6.757   0.177  0.0804 -1.3183  0.3647
   38MOL   H31914453   5.527   6.551   8.127 -0.0839  1.2215 -1.4695
   38MOL   H32014454   5.389   6.653   8.150 -0.5860  0.2386  1.3875
   38MOL   H32114455   5.249   6.731   0.099 -1.3087  2.2151  1.7995
   38MOL   H32214456   5.077   6.778   0.247  1.8706  0.5996 -0.6478
   38MOL   H32314457   5.041   6.656   0.458  0.1175 -1.2462  0.0157
   38MOL   H32414458   5.225   6.490   0.539  2.8255 -0.1043  0.2759
   38MOL   C32514459   5.442   6.409   0.399  0.0038  0.3546  0.6244
   38MOL   C32614460   5.597   6.436   0.398  0.0354 -0.0145  0.4688
   38MOL   O32714461   5.509   6.463   0.512  0.7896  0.4008  0.1547
   38MOL   C32814462   5.672   6.561   0.370 -0.1545  0.2970  0.1280
   38MOL   O32914463   5.776   6.554   0.466 -0.7752 -0.1290 -0.0918
   38MOL   C33014464   5.861   6.661   0.476 -0.3457 -0.8447  0.2487
   38MOL   C33114465   5.906   6.739   0.367 -0.8467 -0.0214  0.3432
   38MOL   C33214466   5.999   6.842   0.383  0.1258  0.1453 -0.3373
   38MOL   C33314467   6.059   6.863   0.512 -0.1930 -0.7026  0.1812
   38MOL   C33414468   6.018   6.785   0.623 -0.2931 -0.0609 -0.4855
   38MOL   C33514469   5.923   6.685   0.606 -0.0403 -0.1454 -0.3957
   38MOL   H33614470   5.413   6.304   0.393 -0.2105  0.4522 -0.1394
   38MOL   H33714471   5.655   6.344   0.402  0.8077  0.4521 -0.0577
   38MOL   H33814472   5.614   6.653   0.380  1.0345  1.1422 -0.5421
   38MOL   H33914473   5.711   6.557   0.268 -2.4007  1.5098 -0.8069
   38MOL   H34014474   5.860   6.715   0.272  1.3203 -0.1755 -0.6831
   38MOL   H34114475   6.026   6.905   0.299  1.6764 -0.3752 -0.2314
   38MOL   H34214476   6.141   6.931   0.529 -1.7328  1.2533 -0.0154
   38MOL   H34314477   6.074   6.790   0.716  0.0814 -2.3910 -0.5534
   38MOL   C34414478   5.894   6.594   0.726  0.0635  0.1415  0.0187
   38MOL   C34514479   5.925   6.447   0.737 -0.0972  0.9891  0.4051
   38MOL   O34614480   6.011   6.552   0.786  0.2526 -0.1570 -0.0911
   38MOL   C34714481   5.987   6.363   0.630 -0.6386 -0.6673  0.4277
   38MOL   O34814482   6.023   6.235   0.675  0.0886 -0.1720  0.4515
   38MOL   C34914483   5.920   6.147   0.709  0.5403  0.3800 -0.3157
   38MOL   C35014484   5.790   6.161   0.656 -0.2517  0.6300 -0.3628
   38MOL   C35114485   5.691   6.069   0.690 -0.0520 -0.0149 -0.3945
   38MOL   C35214486   5.721   5.961   0.773  0.0894  0.2392  0.1802
   38MOL   C35314487   5.855   5.942   0.824 -0.2318  0.3254  0.1617
   38MOL   C35414488   5.953   6.033   0.793  0.8444  0.3035  0.2141
   38MOL   H35514489   5.830   6.647   0.797  0.6466  0.6981  0.1282
   38MOL   H35614490   5.885   6.390   0.820  2.2895  0.0278  0.9465
   38MOL   H35714491   6.089   6.395   0.610 -0.9708 -0.8205 -1.5749
   38MOL   H35814492   5.927   6.354   0.539  0.0036  0.1046 -0.0881
   38MOL   H35914493   5.758   6.241   0.590  1.1517 -0.6384 -2.6216
   38MOL   H36014494   5.592   6.060   0.648 -1.0020 -0.4499  1.8345
   38MOL   H36114495   5.650   5.881   0.789  0.7055  0.0227  1.8855
   38MOL   H36214496   5.870   5.856   0.888  0.1590  0.7749  0.6859
   38MOL   C36314497   6.090   6.006   0.831 -0.1404 -0.2688 -0.2692
   38MOL   C36414498   6.136   6.059   0.969  0.8082 -0.4921 -0.0684
   38MOL   O36514499   6.103   5.923   0.941 -0.0696 -0.3481 -0.8604
   38MOL   C36614500   6.043   6.107   1.079  0.2251 -0.2050  0.3289
   38MOL   O36714501   6.039   6.247   1.062  0.5404 -0.1114  0.3418
   38MOL   C36814502   5.935   6.321   1.125 -0.0092 -0.5629 -0.6995
   38MOL   C36914503   5.929   6.458   1.103 -0.2481  0.1030  0.8679
   38MOL   C37014504   5.822   6.537   1.145 -0.8095 -0.6675 -0.3997
   38MOL   C37114505   5.721   6.473   1.227 -0.0165  0.7041  0.2958
   38MOL   C37214506   5.729   6.337   1.259  0.3878 -0.2338  0.0140
   38MOL   C37314507   5.828   6.261   1.200  0.6859 -0.0143  0.8838
   38MOL   H37414508   6.151   5.986   0.743 -0.4837  1.6424 -0.9706
   38MOL   H37514509   6.242   6.067   0.994  1.1933 -0.0015 -1.7738
   38MOL   H37614510   6.092   6.103   1.176 -1.9799  2.6375  1.6641
   38MOL   H37714511   5.946   6.059   1.066  0.1164  0.3045 -0.8341
   38MOL   H37814512   6.009   6.513   1.057  0.5500 -2.3289 -0.7366
   38MOL   H37914513   5.828   6.641   1.116 -3.2246 -0.3089  0.2474
   38MOL   H38014514   5.640   6.529   1.271 -1.4441 -0.5503 -0.6708
   38MOL   H38114515   5.652   6.286   1.316  0.2399 -0.8363 -0.7288
   38MOL   H38214516   5.825   6.154   1.218  1.0331 -0.3323 -0.9105
   39MOL     C114517   4.856   5.171   0.516 -0.4811  0.3674 -0.0381
   39MOL     C214518   5.005   5.213   0.500  0.1333  0.2841  0.5400
   39MOL     O314519   4.899   5.309   0.536 -0.1894  0.0745 -0.4495
   39MOL     C414520   5.057   5.200   0.360  0.7111  0.3383 -0.7625
   39MOL     O514521   5.192   5.257   0.361  0.8377  0.4550  0.3840
   39MOL     C614522   5.203   5.393   0.341 -0.0956  0.4492 -0.2586
   39MOL     C714523   5.094   5.480   0.340 -0.4165 -0.3471 -0.2365
   39MOL     C814524   5.118   5.617   0.323  0.5894 -0.2240 -0.2879
   39MOL     C914525   5.245   5.671   0.311  0.0586 -0.4071  0.3111
   39MOL    C1014526   5.355   5.582   0.303  0.2302  0.5713 -0.8299
   39MOL    C1114527   5.333   5.445   0.320 -0.8334  0.5550  0.2152
   39MOL    H1214528   4.828   5.122   0.609 -0.1924 -0.4139 -0.3608
   39MOL    H1314529   5.081   5.199   0.577 -1.9194 -3.2778  2.0302
   39MOL    H1414530   4.993   5.243   0.283 -1.7134 -1.0487  0.4211
   39MOL    H1514531   5.068   5.094   0.335  1.9266 -0.0256  1.1911
   39MOL    H1614532   4.999   5.448   0.379 -0.5991  0.8200  0.3111
   39MOL    H1714533   5.040   5.691   0.320 -1.0847 -1.8528  1.6754
   39MOL    H1814534   5.259   5.777   0.297 -0.1780 -0.3682  0.3695
   39MOL    H1914535   5.458   5.615   0.294  0.3441  1.2148  2.3237
   39MOL    H2014536   4.779   5.171   0.440 -0.2926 -0.6417 -0.2319
   39MOL    C2114537   5.454   5.360   0.313  0.0383  0.1945 -0.0952
   39MOL    C2214538   5.483   5.266   0.205  0.1234  0.5204 -0.2891
   39MOL    O2314539   5.539   5.398   0.205  0.4612  0.2608 -0.3093
   39MOL    C2414540   5.379   5.231   0.103 -0.2843 -0.2905  0.3988
   39MOL    O2514541   5.407   5.120   0.023  0.0919  0.0779  0.2803
   39MOL    C2614542   5.389   4.985   0.070 -0.1783 -0.4602  0.8121
   39MOL    C2714543   5.352   4.955   0.200  0.1349  0.2143  0.9162
   39MOL    C2814544   5.326   4.824   0.237 -0.4595 -0.0573  0.5221
   39MOL    C2914545   5.339   4.721   0.147  0.2110  0.1850  0.2887
   39MOL    C3014546   5.389   4.751   0.014 -0.2607  0.0822 -0.2931
   39MOL    C3114547   5.417   4.878   8.145  0.7354 -0.1461 -0.1917
   39MOL    H3214548   5.499   5.340   0.411 -0.7394  2.7127  0.8073
   39MOL    H3314549   5.545   5.183   0.241  0.8263  2.4191  3.0795
   39MOL    H3414550   5.358   5.321   0.046  0.9048 -0.2968 -0.0729
   39MOL    H3514551   5.286   5.206   0.154  0.7362 -2.1865  1.3990
   39MOL    H3614552   5.337   5.035   0.271  0.3798 -0.5828  1.8770
   39MOL    H3714553   5.297   4.809   0.341  0.9390 -0.6110  0.8442
   39MOL    H3814554   5.303   4.619   0.153 -1.8544  0.7226 -2.1453
   39MOL    H3914555   5.402   4.676   8.107  0.7498 -0.9626  0.8700
   39MOL    C4014556   5.463   4.909   8.007  0.7277 -0.4409  0.3538
   39MOL    C4114557   5.609   4.920   7.964  0.5270 -0.5531 -0.1980
   39MOL    O4214558   5.527   4.806   7.941  0.3676  0.1582  0.0450
   39MOL    C4314559   5.721   4.886   8.057 -0.3606 -0.3191  0.0196
   39MOL    O4414560   5.759   5.003   8.134  0.2334  0.6319  0.1258
   39MOL    C4514561   5.886   5.003   0.009  0.1851 -0.2953  0.4303
   39MOL    C4614562   5.965   4.889   0.038  0.3334  0.1783 -0.4254
   39MOL    C4714563   6.098   4.896   0.091 -0.3268 -0.3891 -0.0326
   39MOL    C4814564   6.154   5.027   0.092 -0.3037  0.0249 -0.4140
   39MOL    C4914565   6.080   5.140   0.068  0.4983 -0.0833  0.5877
   39MOL    C5014566   5.946   5.132   0.026 -0.4762  0.0730  0.3274
   39MOL    H5114567   5.385   4.960   7.951  0.5115 -0.4873  0.6144
   39MOL    H5214568   5.636   4.965   7.869 -2.1484 -1.5960 -1.5144
   39MOL    H5314569   5.806   4.842   8.004 -1.1288  0.0335 -1.5458
   39MOL    H5414570   5.692   4.821   8.140 -0.1789  3.2817  3.0058
   39MOL    H5514571   5.917   4.792   0.042  1.5224 -0.3683  1.8494
   39MOL    H5614572   6.164   4.821   0.130  2.9241  2.7289  0.7121
   39MOL    H5714573   6.256   5.039   0.127 -0.3818 -0.0955 -0.1402
   39MOL    H5814574   6.135   5.233   0.075  0.9738 -0.4883  2.4827
   39MOL    C5914575   5.870   5.255   8.150  0.3658  0.0664 -0.3560
   39MOL    C6014576   5.858   5.382   0.057  0.2176 -0.3156 -0.9653
   39MOL    O6114577   5.957   5.370   8.123  0.0952  0.1988 -0.2400
   39MOL    C6214578   5.915   5.419   0.193  0.3189  0.0061 -0.6225
   39MOL    O6314579   5.946   5.559   0.185  0.6847  0.4615 -0.1984
   39MOL    C6414580   6.068   5.609   0.216 -0.5649  0.3641 -0.8624
   39MOL    C6514581   6.139   5.573   0.333 -0.5603  0.1373 -0.5434
   39MOL    C6614582   6.261   5.632   0.371 -0.1197 -0.3885  0.3748
   39MOL    C6714583   6.321   5.719   0.277 -0.7927  0.2761 -0.7275
   39MOL    C6814584   6.253   5.754   0.158 -0.3085 -0.2330  0.3111
   39MOL    C6914585   6.131   5.698   0.129 -0.1437 -0.1991 -0.3821
   39MOL    H7014586   5.806   5.241   8.063  1.4914  1.1519 -1.3755
   39MOL    H7114587   5.769   5.436   0.025  0.8031  1.2990  0.0540
   39MOL    H7214588   6.008   5.365   0.215  1.3265  2.8495  2.6696
   39MOL    H7314589   5.852   5.391   0.278 -0.5491  1.8760 -0.6431
   39MOL    H7414590   6.096   5.498   0.399 -0.1723 -0.1625 -0.6312
   39MOL    H7514591   6.311   5.613   0.465 -1.1236 -1.1454  0.7692
   39MOL    H7614592   6.421   5.750   0.305 -0.7592 -0.8343  0.4654
   39MOL    H7714593   6.299   5.824   0.089  0.0324 -1.3877 -0.6635
   39MOL    C7814594   6.060   5.748   8.169  0.3650 -0.0202 -0.5197
   39MOL    C7914595   5.928   5.825   0.009  0.1747 -0.1725 -0.2907
   39MOL    O8014596   6.051   5.889   8.166 -0.0633  0.0006  0.4410
   39MOL    C8114597   5.863   5.854   0.143 -0.6713  0.1417  0.0752
   39MOL    O8214598   5.773   5.959   0.130 -0.0586 -0.6373  0.2677
   39MOL    C8314599   5.811   6.084   0.141 -0.2436  0.8165  0.2897
   39MOL    C8414600   5.929   6.134   0.197 -0.3107 -0.1441  0.7172
   39MOL    C8514601   5.955   6.274   0.197 -0.3504 -0.4045  0.0600
   39MOL    C8614602   5.868   6.372   0.144  0.1747  0.3862 -0.9055
   39MOL    C8714603   5.741   6.321   0.098 -0.5043  0.8314 -0.1734
   39MOL    C8814604   5.717   6.181   0.091 -0.1730  0.0329  0.0351
   39MOL    H8914605   6.088   5.685   8.086  1.9891  0.1664 -0.1356
   39MOL    H9014606   5.862   5.820   8.092  0.2119  0.3767 -0.3574
   39MOL    H9114607   5.929   5.857   0.230 -1.2681  1.2099  0.4913
   39MOL    H9214608   5.804   5.764   0.163 -2.4370  0.9977 -1.1403
   39MOL    H9314609   6.010   6.068   0.226 -0.4539 -0.9619 -0.7051
   39MOL    H9414610   6.047   6.319   0.230 -0.7868  1.2908 -0.9875
   39MOL    H9514611   5.881   6.479   0.146  2.1092  0.1678 -1.5087
   39MOL    H9614612   5.669   6.395   0.068 -0.7150  0.6926 -0.0100
   39MOL    C9714613   5.585   6.130   0.035 -0.1152  0.3064 -0.0706
   39MOL    C9814614   5.466   6.079   0.117  0.4107 -0.7186  0.0506
   39MOL    O9914615   5.469   6.217   0.074 -0.5151  0.5512 -1.0631
   39MOL   C10014616   5.475   6.054   0.265  0.1824 -0.2078  0.1674
   39MOL   O10114617   5.347   6.098   0.309 -0.0366 -0.0314 -0.0030
   39MOL   C10214618   5.293   6.036   0.424 -0.0976 -0.5186  0.1162
   39MOL   C10314619   5.363   5.943   0.509  0.3403 -0.8550 -0.0896
   39MOL   C10414620   5.290   5.883   0.614  0.0446  0.3929 -0.7723
   39MOL   C10514621   5.157   5.911   0.632 -0.7176 -0.2501 -0.9561
   39MOL   C10614622   5.081   5.991   0.546 -0.2922 -0.1850 -0.9230
   39MOL   C10714623   5.154   6.052   0.442  0.0379 -0.7156 -0.2231
   39MOL   H10814624   5.585   6.104   8.099  1.7851 -0.5955  0.1345
   39MOL   H10914625   5.398   6.015   0.061  0.7154 -0.5842 -0.4791
   39MOL   H11014626   5.548   6.115   0.319 -0.3909  0.2798  0.3880
   39MOL   H11114627   5.499   5.948   0.276 -1.0319 -0.5561 -0.5507
   39MOL   H11214628   5.470   5.933   0.497  0.6312  0.5230  1.2700
   39MOL   H11314629   5.331   5.813   0.685  1.6332  0.3895 -1.6618
   39MOL   H11414630   5.119   5.856   0.717 -1.2465 -1.1136 -1.7387
   39MOL   H11514631   4.974   6.003   0.542 -0.4710 -2.1567 -3.0516
   39MOL   C11614632   5.080   6.143   0.343  0.5513 -0.2993 -0.4674
   39MOL   C11714633   5.043   6.106   0.201 -0.1300  0.2375  0.2603
   39MOL   O11814634   4.951   6.085   0.306  0.1636  0.1269  0.1864
   39MOL   C11914635   5.088   5.978   0.133  0.0422 -0.0206 -0.3284
   39MOL   O12014636   5.114   6.004   8.166 -0.1085  0.3187 -0.7269
   39MOL   C12114637   5.144   5.896   8.086 -0.2540 -0.1095 -0.5787
   39MOL   C12214638   5.165   5.760   8.140  0.2656 -0.8609 -0.1650
   39MOL   C12314639   5.183   5.656   8.053 -0.2913  0.2051  0.3492
   39MOL   C12414640   5.188   5.675   7.916 -0.6860 -0.7316 -0.1117
   39MOL   C12514641   5.166   5.804   7.863  0.3365 -0.5493  0.7457
   39MOL   C12614642   5.139   5.914   7.946  0.2728 -0.1210 -0.5462
   39MOL   H12714643   5.071   6.246   0.375 -0.6634  0.3349 -2.7446
   39MOL   H12814644   5.011   6.186   0.135 -0.6655 -1.1579 -1.2025
   39MOL   H12914645   5.012   5.899   0.141  0.5879 -0.5090  0.1034
   39MOL   H13014646   5.181   5.942   0.178 -0.3408 -2.2707 -1.2562
   39MOL   H13114647   5.159   5.737   0.075  3.0389 -0.6758  0.0695
   39MOL   H13214648   5.193   5.553   8.086  1.3112  0.5040  0.8151
   39MOL   H13314649   5.211   5.593   7.850  4.4352  0.7820 -0.4094
   39MOL   H13414650   5.153   5.810   7.756 -1.0217  1.0578  0.9700
   39MOL   C13514651   5.121   6.051   7.884  0.2629  0.1601  0.0130
   39MOL   C13614652   5.210   6.115   7.779 -0.1491 -0.1056 -0.7014
   39MOL   O13714653   5.085   6.045   7.748  0.1784  0.2662 -0.0327
   39MOL   C13814654   5.341   6.058   7.738  0.7182  0.1397  0.9022
   39MOL   O13914655   5.436   6.133   7.659 -0.3678 -0.4386 -0.8012
   39MOL   C14014656   5.499   6.058   7.568  0.5723 -0.4095 -0.4246
   39MOL   C14114657   5.608   5.979   7.595  0.1434 -0.0695  0.3559
   39MOL   C14214658   5.656   5.889   7.499 -0.4866 -0.8010  0.2188
   39MOL   C14314659   5.606   5.882   7.366  0.2500 -0.0314 -0.4610
   39MOL   C14414660   5.496   5.970   7.339 -0.4776 -0.1675  0.3060
   39MOL   C14514661   5.442   6.056   7.437  0.0135  0.2437  0.1375
   39MOL   H14614662   5.065   6.116   7.951 -2.7799 -2.0769 -0.2708
   39MOL   H14714663   5.205   6.219   7.746  0.5170 -0.3047 -1.4460
   39MOL   H14814664   5.316   5.961   7.697 -1.1909  0.9610  0.1023
   39MOL   H14914665   5.393   6.035   7.831  0.1714 -0.6860  1.0076
   39MOL   H15014666   5.654   5.986   7.693  0.2060  0.3663  0.2956
   39MOL   H15114667   5.746   5.835   7.525  0.8824  1.8734  1.2544
   39MOL   H15214668   5.654   5.818   7.293  0.5915 -0.4149  0.0937
   39MOL   H15314669   5.442   5.966   7.246  0.6062 -1.1516 -0.2877
   39MOL   C15414670   5.312   6.122   7.413  0.2990 -1.6014  0.1358
   39MOL   C15514671   5.298   6.267   7.395  0.7425 -0.0868 -0.2670
   39MOL   O15614672   5.297   6.180   7.282  0.1594  0.2107 -0.7538
   39MOL   C15714673   5.415   6.371   7.406  0.0885  0.5376 -0.3031
   39MOL   O15814674   5.359   6.497   7.353  0.3449  0.5176 -0.7842
   39MOL   C15914675   5.441   6.605   7.382 -0.7369  0.2705  0.3441
   39MOL   C16014676   5.581   6.599   7.367 -0.0616  0.1614  0.7504
   39MOL   C16114677   5.658   6.712   7.393 -0.0595 -0.9163  0.9666
   39MOL   C16214678   5.599   6.832   7.433 -0.6128  0.0520  0.3535
   39MOL   C16314679   5.463   6.835   7.466 -0.1268  0.5840  0.7146
   39MOL   C16414680   5.382   6.726   7.432 -0.0991 -0.2405  0.2118
   39MOL   H16514681   5.231   6.054   7.438 -1.4791  0.5480  0.3390
   39MOL   H16614682   5.202   6.318   7.400  0.6316 -0.1442 -1.6615
   39MOL   H16714683   5.502   6.341   7.348  1.0398  1.4532  0.6075
   39MOL   H16814684   5.432   6.376   7.514 -0.9510 -0.1991 -0.0947
   39MOL   H16914685   5.639   6.516   7.330  0.2572  0.3419  0.8442
   39MOL   H17014686   5.764   6.708   7.372 -0.2707  2.3419 -1.1409
   39MOL   H17114687   5.668   6.915   7.434  0.8559 -1.1302  0.0158
   39MOL   H17214688   5.419   6.928   7.500 -0.5446  0.5219  0.3480
   39MOL   C17314689   5.233   6.732   7.440 -0.5361  0.2456 -0.2248
   39MOL   C17414690   5.145   6.663   7.541 -0.4540  0.2716  0.2104
   39MOL   O17514691   5.181   6.805   7.555 -0.4011  0.0372 -0.5060
   39MOL   C17614692   5.198   6.572   7.643  0.1514  0.0781  0.3626
   39MOL   O17714693   5.117   6.575   7.763 -0.4132  0.1619 -0.0581
   39MOL   C17814694   5.149   6.503   7.876  0.0443  0.3781 -0.2830
   39MOL   C17914695   5.263   6.422   7.896  0.7555  0.1270  1.1107
   39MOL   C18014696   5.285   6.364   8.025  0.3327  0.0394 -0.4276
   39MOL   C18114697   5.199   6.386   8.134 -0.9233 -0.8259 -0.3266
   39MOL   C18214698   5.086   6.462   8.112  0.2596 -0.2882  0.6184
   39MOL   C18314699   5.062   6.519   7.979  0.3319 -0.4838 -0.4171
   39MOL   H18414700   5.190   6.770   7.348  0.6362  1.6555 -0.1941
   39MOL   H18514701   5.041   6.646   7.513 -0.1693 -0.1084 -0.5984
   39MOL   H18614702   5.304   6.590   7.661  0.4820 -2.2180  0.9337
   39MOL   H18714703   5.183   6.469   7.609  0.1824  0.3286 -0.4024
   39MOL   H18814704   5.331   6.411   7.813  0.0660  1.5976  0.3261
   39MOL   H18914705   5.373   6.301   8.021  1.0640  1.1355 -1.9529
   39MOL   H19014706   5.227   6.355   0.064  0.5312 -0.0661 -0.4788
   39MOL   H19114707   5.015   6.479   0.022 -0.3375  0.2908 -0.0284
   39MOL   C19214708   4.935   6.606   7.949 -0.2942  0.3599 -0.1208
   39MOL   C19314709   4.817   6.539   7.897 -0.0391 -0.1588  0.0231
   39MOL   O19414710   4.830   6.559   8.035 -0.5896 -0.4994 -0.0150
   39MOL   C19514711   4.825   6.392   7.856 -0.5699 -0.1837  0.1119
   39MOL   O19614712   4.702   6.321   7.884 -0.3778  0.0713 -0.6223
   39MOL   C19714713   4.730   6.200   7.942 -0.9144  0.2545 -0.7927
   39MOL   C19814714   4.771   6.089   7.866 -0.1989 -0.1495  0.3496
   39MOL   C19914715   4.806   5.963   7.923  0.5140  1.2254  0.3886
   39MOL   C20014716   4.809   5.947   8.060  0.0066 -0.1970  0.6453
   39MOL   C20114717   4.770   6.059   8.133 -0.1195 -0.2496 -0.8227
   39MOL   C20214718   4.726   6.181   8.082 -0.0880  0.4783 -0.4349
   39MOL   H20314719   4.947   6.712   7.970  0.5007  0.2463  0.0264
   39MOL   H20414720   4.735   6.598   7.855  0.8491  1.0965  0.0126
   39MOL   H20514721   4.911   6.339   7.897  1.4587  0.8826 -2.6342
   39MOL   H20614722   4.858   6.384   7.753  1.0254  1.0226  0.4970
   39MOL   H20714723   4.786   6.091   7.759 -0.6973 -2.1342  0.2251
   39MOL   H20814724   4.837   5.879   7.862 -2.7978  0.9461 -1.0720
   39MOL   H20914725   4.846   5.860   8.112 -0.8911 -0.1205  1.4141
   39MOL   H21014726   4.771   6.043   0.070 -0.7585 -0.7947 -0.8974
   39MOL   C21114727   4.696   6.294   0.005 -0.9210  0.7294  0.1144
   39MOL   C21214728   4.579   6.390   8.142  0.0265  0.2406  0.0292
   39MOL   O21314729   4.562   6.292   0.069  0.6763 -0.4432  0.1232
   39MOL   C21414730   4.477   6.375   8.036 -0.3657  0.2788 -0.3190
   39MOL   O21514731   4.350   6.428   8.059  0.5371  0.7338  0.3468
   39MOL   C21614732   4.331   6.565   8.057 -0.4118 -0.8963  0.8685
   39MOL   C21714733   4.427   6.667   8.016  0.1475  0.1282  0.1070
   39MOL   C21814734   4.397   6.804   7.992 -0.5604 -0.2684 -1.3756
   39MOL   C21914735   4.272   6.850   8.024  0.1706  0.3257 -0.2637
   39MOL   C22014736   4.177   6.756   8.069  0.3893 -0.2747 -0.2344
   39MOL   C22114737   4.207   6.620   8.089  0.0488 -0.1965 -0.4614
   39MOL   H22214738   4.783   6.332   0.058  1.0011 -2.3498 -0.7232
   39MOL   H22314739   4.579   6.495   0.003 -0.8799  0.6772 -1.4362
   39MOL   H22414740   4.444   6.273   8.015  0.1846 -0.1081  0.7161
   39MOL   H22514741   4.519   6.418   7.945  2.2936 -2.0588 -0.2378
   39MOL   H22614742   4.529   6.647   7.986  0.1503 -1.4906  1.1259
   39MOL   H22714743   4.475   6.869   7.955  1.4131  0.2765  3.3599
   39MOL   H22814744   4.254   6.957   8.025  0.2786  0.3535 -1.1498
   39MOL   H22914745   4.080   6.788   8.103  1.9196 -0.3108  4.6348
   39MOL   C23014746   4.106   6.536   8.157 -0.1467 -0.3184 -0.6306
   39MOL   C23114747   4.130   6.479   0.127 -0.0735 -0.6765 -0.4047
   39MOL   O23214748   4.065   6.607   0.105 -0.7459  0.0608  0.2625
   39MOL   C23314749   4.269   6.477   0.188 -0.0463  0.5332 -0.1815
   39MOL   O23414750   4.266   6.416   0.317 -0.4907 -0.0788 -0.0718
   39MOL   C23514751   4.197   6.472   0.423 -0.3343 -0.0819 -0.5217
   39MOL   C23614752   4.158   6.614   0.429  0.3983  0.7066  0.5261
   39MOL   C23714753   4.075   6.655   0.533 -0.2510  0.0108  0.3073
   39MOL   C23814754   4.028   6.571   0.637 -0.5796  0.6510 -0.1565
   39MOL   C23914755   4.071   6.437   0.635  0.1395  1.1097 -0.0649
   39MOL   C24014756   4.153   6.388   0.529 -0.0780 -1.0159  0.2296
   39MOL   H24114757   4.029   6.484   8.101 -0.4987 -1.4336  0.8374
   39MOL   H24214758   4.056   6.404   0.153 -1.0678  0.7379  0.9149
   39MOL   H24314759   4.328   6.569   0.192 -3.2244  2.6772 -0.5651
   39MOL   H24414760   4.337   6.410   0.136  2.5805  1.1367  2.3977
   39MOL   H24514761   4.192   6.678   0.348  0.1216  0.2315  0.0311
   39MOL   H24614762   4.043   6.758   0.532  0.7544  0.3368  1.2645
   39MOL   H24714763   3.953   6.600   0.709  1.3100  0.7879  1.8239
   39MOL   H24814764   4.033   6.363   0.704 -0.2621 -0.4059 -1.8649
   39MOL   C24914765   4.183   6.242   0.514  0.0814 -0.3067  0.4153
   39MOL   C25014766   4.320   6.180   0.519  0.0787  0.1571 -0.4860
   39MOL   O25114767   4.234   6.182   0.638  0.6141  0.0017 -0.9735
   39MOL   C25214768   4.447   6.264   0.533  0.5330 -0.4243  0.0236
   39MOL   O25314769   4.562   6.191   0.577 -0.2582 -0.6742 -0.2459
   39MOL   C25414770   4.683   6.250   0.588  0.6018  0.5153 -0.2958
   39MOL   C25514771   4.722   6.365   0.515 -0.2848 -0.8840  0.1780
   39MOL   C25614772   4.853   6.421   0.535 -0.3125  0.1437  0.1683
   39MOL   C25714773   4.942   6.352   0.621 -0.2445  0.2575 -0.5040
   39MOL   C25814774   4.903   6.232   0.687 -0.3045  0.1868 -0.0281
   39MOL   C25914775   4.772   6.179   0.669 -0.0834  0.2801  0.2953
   39MOL   H26014776   4.097   6.192   0.470  0.7251 -1.0944  0.0404
   39MOL   H26114777   4.331   6.082   0.473 -0.7458 -0.8282  1.3776
   39MOL   H26214778   4.426   6.355   0.590  0.3867 -0.0073 -0.7000
   39MOL   H26314779   4.476   6.299   0.434  0.6813  0.3182  0.3258
   39MOL   H26414780   4.648   6.412   0.451 -1.7014 -1.8813  1.0331
   39MOL   H26514781   4.892   6.506   0.482  2.2035 -1.7069 -1.1021
   39MOL   H26614782   5.039   6.396   0.638 -0.3832  0.1211  0.7093
   39MOL   H26714783   4.976   6.175   0.743  1.4135  0.3991 -1.9831
   39MOL   C26814784   4.732   6.055   0.739 -0.8280  0.0215 -0.0397
   39MOL   C26914785   4.694   5.922   0.680 -0.6924 -0.5188 -0.5565
   39MOL   O27014786   4.825   5.946   0.733 -0.5861 -0.2581  0.1153
   39MOL   C27114787   4.677   5.898   0.530 -0.7877 -0.1271 -0.1365
   39MOL   O27214788   4.672   5.768   0.480 -0.5993 -0.5424 -0.3874
   39MOL   C27314789   4.637   5.744   0.343 -0.2339 -0.5315  0.2530
   39MOL   C27414790   4.605   5.850   0.257  0.4429 -0.4021  0.1625
   39MOL   C27514791   4.572   5.825   0.121  0.6585  0.2495  0.6426
   39MOL   C27614792   4.566   5.691   0.079 -0.4732  0.0226  0.1234
   39MOL   C27714793   4.588   5.583   0.172  0.2452 -0.4037  0.0918
   39MOL   C27814794   4.617   5.613   0.306 -0.2729  0.4694 -0.0801
   39MOL   H27914795   4.704   6.084   0.840 -0.0084  2.2635 -0.4333
   39MOL   H28014796   4.622   5.868   0.742 -0.6729 -0.1234 -0.1869
   39MOL   H28114797   4.754   5.957   0.479 -0.1890 -1.4939 -0.8383
   39MOL   H28214798   4.580   5.943   0.508 -1.3051 -0.3827  1.5883
   39MOL   H28314799   4.616   5.953   0.286 -1.3554 -0.3896  0.9036
   39MOL   H28414800   4.553   5.910   0.057  1.5140  0.4553  0.6548
   39MOL   H28514801   4.545   5.675   8.144  1.3969  1.9145 -0.5713
   39MOL   H28614802   4.581   5.482   0.134 -1.3355  0.7379 -2.8074
   39MOL   C28714803   4.660   5.504   0.398 -0.2430  0.3759 -0.1635
   39MOL   C28814804   4.597   5.432   0.507 -0.0521  0.4500  0.7522
   39MOL   O28914805   4.594   5.377   0.376 -0.3531  0.7771 -0.1689
   39MOL   C29014806   4.472   5.460   0.583 -0.4701  0.6115  0.5263
   39MOL   O29114807   4.381   5.535   0.507 -0.3470 -0.2786 -0.1586
   39MOL   C29214808   4.298   5.629   0.575 -0.1728  0.1247 -0.8923
   39MOL   C29314809   4.284   5.640   0.711  0.4604 -0.5117  0.2449
   39MOL   C29414810   4.211   5.739   0.772  0.4457 -0.2605 -0.4325
   39MOL   C29514811   4.149   5.837   0.690  0.6640 -0.6122 -0.1382
   39MOL   C29614812   4.158   5.827   0.548  0.4753 -0.0902  0.3630
   39MOL   C29714813   4.237   5.727   0.489 -0.5432  0.5158  0.0651
   39MOL   H29814814   4.765   5.487   0.376  0.0062 -0.2411  1.4435
   39MOL   H29914815   4.669   5.381   0.572 -0.5176  1.8937  2.4596
   39MOL   H30014816   4.510   5.499   0.678  1.7850 -0.6357  0.1880
   39MOL   H30114817   4.437   5.358   0.598  2.8841 -0.6808  0.0939
   39MOL   H30214818   4.323   5.557   0.769  0.9624  0.1914  0.9260
   39MOL   H30314819   4.207   5.758   0.878  1.1595 -0.1551 -0.4188
   39MOL   H30414820   4.094   5.922   0.729  0.7666 -0.2691 -0.7286
   39MOL   H30514821   4.110   5.899   0.483  1.4535 -0.0096 -0.2728
   39MOL   C30614822   4.262   5.713   0.343  0.0425  0.2145  0.7484
   39MOL   C30714823   4.230   5.586   0.263  0.1345  0.2761 -0.1751
   39MOL   O30814824   4.144   5.701   0.263  0.4094 -0.1765 -0.6738
   39MOL   C30914825   4.157   5.455   0.302  0.0422 -0.4190  0.3697
   39MOL   O31014826   4.084   5.412   0.191 -0.3003  0.1619  0.5540
   39MOL   C31114827   3.950   5.370   0.207 -0.2070  0.2260  0.2271
   39MOL   C31214828   3.916   5.288   0.322 -0.4080 -0.1680  0.1877
   39MOL   C31314829   3.782   5.246   0.343 -0.6437 -0.1963  0.2338
   39MOL   C31414830   3.687   5.291   0.250  0.2077  0.3092 -0.7366
   39MOL   C31514831   3.722   5.367   0.134  0.6154 -0.2663  0.5496
   39MOL   C31614832   3.851   5.406   0.114 -0.1385  0.0206  0.1312
   39MOL   H31714833   4.339   5.778   0.303 -0.4649  0.5480  0.3158
   39MOL   H31814834   4.281   5.576   0.167  2.0976  1.5070  0.7112
   39MOL   H31914835   4.098   5.486   0.388 -0.4421 -1.6809  0.4978
   39MOL   H32014836   4.222   5.379   0.346  0.9718  1.6426  2.7123
   39MOL   H32114837   3.997   5.257   0.385 -1.2476 -2.7952  0.0432
   39MOL   H32214838   3.750   5.189   0.429 -0.5929 -0.8386 -0.1721
   39MOL   H32314839   3.587   5.252   0.260  0.0938  0.6010 -0.7160
   39MOL   H32414840   3.638   5.389   0.069 -0.9212 -1.2917  2.1521
   39MOL   C32514841   3.904   5.490   8.168  0.2895  0.3826 -0.1611
   39MOL   C32614842   3.939   5.433   8.031 -0.1111  0.3204  0.0215
   39MOL   O32714843   3.810   5.488   8.060 -0.8498 -0.4130  0.3612
   39MOL   C32814844   3.948   5.283   7.993 -0.5660  0.4650 -0.3795
   39MOL   O32914845   3.942   5.250   7.848 -0.0389  0.1783 -0.0819
   39MOL   C33014846   4.019   5.143   7.814 -0.2754 -0.2959 -0.2421
   39MOL   C33114847   4.155   5.130   7.859  0.6485  0.0536  0.4974
   39MOL   C33214848   4.234   5.014   7.825  0.2163 -0.9120  0.5498
   39MOL   C33314849   4.175   4.922   7.734  0.3266 -0.5667 -0.2090
   39MOL   C33414850   4.042   4.938   7.686  0.0418 -0.4078  0.3287
   39MOL   C33514851   3.961   5.045   7.729 -0.9036 -0.4353  0.1385
   39MOL   H33614852   3.929   5.595   0.012  0.8888  0.2497 -0.1853
   39MOL   H33714853   3.995   5.496   7.963  0.0903  0.2476  0.1199
   39MOL   H33814854   3.868   5.222   8.035  1.8660 -0.3639  3.2434
   39MOL   H33914855   4.038   5.242   8.039  1.7002  1.8036 -3.4768
   39MOL   H34014856   4.209   5.204   7.916  0.2326  0.8374 -0.1143
   39MOL   H34114857   4.339   5.002   7.847  0.6051  2.6271  0.7496
   39MOL   H34214858   4.223   4.834   7.693  2.2842  1.2666 -1.9145
   39MOL   H34314859   4.006   4.878   7.603  3.9302 -2.0738 -0.2790
   39MOL   C34414860   3.821   5.056   7.694  0.4180 -0.3761  0.2212
   39MOL   C34514861   3.790   5.082   7.548 -0.5158 -0.4260  0.3089
   39MOL   O34614862   3.777   4.951   7.607 -0.3324  0.8591  0.2831
   39MOL   C34714863   3.897   5.077   7.437 -0.3108  0.1407  0.4648
   39MOL   O34814864   3.859   5.157   7.328  0.0654  0.5312  0.2633
   39MOL   C34914865   3.895   5.290   7.321  0.2385  0.3526  0.0400
   39MOL   C35014866   3.916   5.366   7.440  0.0023 -0.0383 -0.0434
   39MOL   C35114867   3.956   5.501   7.442  0.2842  0.3578  0.2327
   39MOL   C35214868   3.984   5.554   7.317 -0.3795  0.0194 -0.1282
   39MOL   C35314869   3.951   5.489   7.200 -0.2588 -0.0833  0.6191
   39MOL   C35414870   3.893   5.358   7.200 -0.0290  0.1051 -0.4020
   39MOL   H35514871   3.752   5.073   7.776  1.3613 -3.3459  1.7097
   39MOL   H35614872   3.691   5.118   7.521 -0.8490 -1.8232 -0.3953
   39MOL   H35714873   3.904   4.971   7.415  0.4273 -0.0656  1.6605
   39MOL   H35814874   3.998   5.107   7.468  0.3938 -0.9895 -0.6998
   39MOL   H35914875   3.911   5.319   7.537  2.1091  0.1239  0.1855
   39MOL   H36014876   3.976   5.558   7.531  3.2425  0.5967 -0.5408
   39MOL   H36114877   4.026   5.654   7.316  1.1391 -0.5937  0.5025
   39MOL   H36214878   3.975   5.538   7.107 -0.0507 -2.7219 -0.7831
   39MOL   C36314879   3.849   5.287   7.078 -0.0189  0.2241 -0.8750
   39MOL   C36414880   3.707   5.243   7.063  0.2156 -0.8214 -0.1249
   39MOL   O36514881   3.759   5.365   7.001 -0.3733  0.1523  0.2663
   39MOL   C36614882   3.604   5.267   7.167  0.4848 -0.6641 -0.1310
   39MOL   O36714883   3.487   5.194   7.138  0.2382 -0.3722 -0.7371
   39MOL   C36814884   3.400   5.221   7.023 -0.3575 -0.2750 -0.3551
   39MOL   C36914885   3.421   5.326   6.936  0.3859 -0.4678 -0.1727
   39MOL   C37014886   3.340   5.333   6.825  0.5345  0.2220  0.5206
   39MOL   C37114887   3.229   5.247   6.802 -0.1097  0.0071 -0.5808
   39MOL   C37214888   3.207   5.143   6.895  0.7379  0.1519  0.2837
   39MOL   C37314889   3.292   5.128   7.008  0.8346  0.2431 -0.1127
   39MOL   H37414890   3.930   5.234   7.029  0.5019  1.6037 -1.5389
   39MOL   H37514891   3.702   5.153   7.002 -0.6308 -0.1705 -1.0353
   39MOL   H37614892   3.588   5.374   7.175  2.5724 -0.1925 -1.8872
   39MOL   H37714893   3.629   5.226   7.265 -0.0627 -1.0277 -0.1419
   39MOL   H37814894   3.490   5.406   6.956 -1.7290  1.0569  1.2235
   39MOL   H37914895   3.358   5.408   6.749 -1.7199 -0.2584 -0.5649
   39MOL   H38014896   3.165   5.250   6.716 -0.9393 -0.5647  0.0001
   39MOL   H38114897   3.122   5.076   6.891  0.3854  0.5694  0.6443
   39MOL   H38214898   3.268   5.038   7.063  0.3070 -0.6188 -1.7222
   40MOL     C114899   2.387   7.250   7.273 -0.2330  0.4826  0.1024
   40MOL     C214900   2.300   7.301   7.379  0.3260 -0.6049  0.2365
   40MOL     O314901   2.404   7.378   7.321 -0.4597  0.2339  0.3056
   40MOL     C414902   2.307   7.257   7.517  0.1191  0.7993 -0.8748
   40MOL     O514903   2.395   7.141   7.548 -0.1424 -0.6659  0.0031
   40MOL     C614904   2.528   7.146   7.578 -0.5949 -0.3106 -0.2404
   40MOL     C714905   2.604   7.261   7.544 -1.0687 -0.2056  1.1576
   40MOL     C814906   2.745   7.262   7.577 -0.5466 -0.4868  0.3267
   40MOL     C914907   2.804   7.154   7.636 -0.1759 -0.1026 -0.6927
   40MOL    C1014908   2.734   7.032   7.658 -0.5179  0.0599  0.5504
   40MOL    C1114909   2.596   7.030   7.626  0.5807  0.2939 -0.0658
   40MOL    H1214910   2.370   7.256   7.166 -1.1231 -2.2284  0.0597
   40MOL    H1314911   2.200   7.335   7.355  0.9164  1.3612  0.4301
   40MOL    H1414912   2.211   7.217   7.546  1.7835 -3.3416 -0.8007
   40MOL    H1514913   2.331   7.338   7.587 -1.4519 -0.8641  1.6530
   40MOL    H1614914   2.562   7.349   7.499  0.4421  0.6143  1.3353
   40MOL    H1714915   2.802   7.351   7.559  4.3764 -3.7164 -1.1966
   40MOL    H1814916   2.905   7.154   7.673  0.2022 -1.1588 -1.6887
   40MOL    H1914917   2.786   6.953   7.709  0.7681  0.8878  0.5463
   40MOL    H2014918   2.480   7.199   7.300 -1.2712 -0.9905  0.9443
   40MOL    C2114919   2.515   6.910   7.645  0.0038  0.4315 -0.1495
   40MOL    C2214920   2.440   6.831   7.533  0.1625  0.3940 -0.0697
   40MOL    O2314921   2.563   6.787   7.593  0.3674 -0.4346 -0.2595
   40MOL    C2414922   2.451   6.866   7.381 -0.2417  0.1661 -0.1173
   40MOL    O2514923   2.342   6.800   7.311 -0.1365 -0.0819  0.6695
   40MOL    C2614924   2.297   6.858   7.193 -0.6093  0.5166  1.0396
   40MOL    C2714925   2.390   6.918   7.104 -0.3176 -0.2401 -0.0124
   40MOL    C2814926   2.342   6.987   6.995 -0.0591  0.2342  0.5487
   40MOL    C2914927   2.206   6.984   6.964  0.0055 -0.8819 -0.1116
   40MOL    C3014928   2.116   6.913   7.045  0.5975  0.6187  0.4961
   40MOL    C3114929   2.163   6.858   7.166 -0.4259  0.7175  0.5259
   40MOL    H3214930   2.492   6.891   7.749 -0.2231  1.0841 -0.0789
   40MOL    H3314931   2.351   6.776   7.562 -0.3381  1.0996 -0.2430
   40MOL    H3414932   2.545   6.823   7.345 -0.0842  0.9928 -0.7078
   40MOL    H3514933   2.449   6.974   7.364  2.4821  0.2711 -0.0843
   40MOL    H3614934   2.494   6.893   7.119 -0.1329 -0.7025 -1.9251
   40MOL    H3714935   2.417   7.016   6.923 -1.6767 -2.4925 -2.3644
   40MOL    H3814936   2.163   7.028   6.875  0.5067 -2.6975 -1.2578
   40MOL    H3914937   2.013   6.906   7.012  0.2056  3.3461  1.0362
   40MOL    C4014938   2.063   6.783   7.250 -0.2002 -0.0442 -0.1065
   40MOL    C4114939   2.010   6.827   7.386  0.0653  0.1699  0.1490
   40MOL    O4214940   1.940   6.862   7.260 -0.3007 -0.0700 -0.3248
   40MOL    C4314941   2.067   6.931   7.477  0.4084  0.4665  0.2402
   40MOL    O4414942   1.985   6.938   7.590  0.4266  0.4518 -0.8039
   40MOL    C4514943   1.873   7.019   7.584 -0.1278 -0.0257  0.9832
   40MOL    C4614944   1.822   7.082   7.467 -0.4466  0.2864  0.4771
   40MOL    C4714945   1.716   7.167   7.481  0.9575  0.5799  0.4702
   40MOL    C4814946   1.647   7.177   7.605 -0.2191  0.5074  0.1947
   40MOL    C4914947   1.690   7.109   7.718 -0.6451 -0.5293  0.7861
   40MOL    C5014948   1.812   7.043   7.705 -0.4427  0.7567  0.8362
   40MOL    H5114949   2.044   6.681   7.218  0.5025 -0.8695  2.0006
   40MOL    H5214950   1.949   6.757   7.442 -0.8969  1.6088  0.9178
   40MOL    H5314951   2.083   7.030   7.434  3.3693  0.0971  0.4005
   40MOL    H5414952   2.167   6.899   7.505  0.8670  2.4284  0.9976
   40MOL    H5514953   1.867   7.059   7.372  2.6756  1.5251  1.5701
   40MOL    H5614954   1.685   7.225   7.396 -1.2721 -2.6346 -1.0308
   40MOL    H5714955   1.562   7.243   7.618 -1.6498 -1.2224 -0.2578
   40MOL    H5814956   1.633   7.105   7.810  0.7520  0.6065  1.7239
   40MOL    C5914957   1.857   6.966   7.830 -0.4669  0.3245 -0.5493
   40MOL    C6014958   1.985   7.001   7.905  0.1706  0.5703 -0.5502
   40MOL    O6114959   1.853   7.048   7.943 -0.5677  0.1926  0.2157
   40MOL    C6214960   2.081   7.105   7.862 -0.2698 -0.6787 -0.5763
   40MOL    O6314961   2.202   7.115   7.940 -0.0730  0.0130  0.0377
   40MOL    C6414962   2.204   7.182   8.062  0.0912  0.0339 -0.3279
   40MOL    C6514963   2.095   7.188   8.157  0.0922 -0.2858  0.0172
   40MOL    C6614964   2.119   7.248   0.113 -0.0337  0.1963  0.0084
   40MOL    C6714965   2.244   7.302   0.143  0.9493 -0.6921  0.2592
   40MOL    C6814966   2.344   7.305   0.043  0.2622  0.1506  0.2318
   40MOL    C6914967   2.329   7.236   8.092 -0.2861 -0.1611  0.8482
   40MOL    H7014968   1.800   6.874   7.839 -0.1011 -0.0224 -1.7540
   40MOL    H7114969   2.027   6.924   7.969 -1.9114 -1.5244 -1.6223
   40MOL    H7214970   2.031   7.200   7.841  2.9237  1.2284  0.1319
   40MOL    H7314971   2.110   7.075   7.761  0.1338 -0.1440 -0.6214
   40MOL    H7414972   2.002   7.143   8.126  0.4967  0.1257 -1.8648
   40MOL    H7514973   2.047   7.255   0.193  1.3251 -0.3199  1.2928
   40MOL    H7614974   2.258   7.354   0.237  1.1157  0.0016 -0.1437
   40MOL    H7714975   2.443   7.348   0.051 -0.3568  1.3684  1.5030
   40MOL    C7814976   2.443   7.208   7.997 -0.9317  0.1607 -0.0790
   40MOL    C7914977   2.482   7.305   7.892  0.2265 -0.1819  0.4142
   40MOL    O8014978   2.553   7.300   8.016  0.0274 -0.2070 -0.1369
   40MOL    C8114979   2.386   7.423   7.861  0.5028  0.2766  1.0038
   40MOL    O8214980   2.428   7.509   7.761  0.0743 -0.6923  0.8029
   40MOL    C8314981   2.541   7.580   7.773 -0.3298 -0.5524 -0.2386
   40MOL    C8414982   2.621   7.584   7.891  0.2879  0.0497 -0.1094
   40MOL    C8514983   2.739   7.655   7.894 -0.5673 -0.2395  0.0191
   40MOL    C8614984   2.772   7.746   7.793 -0.5007 -0.4084 -0.6050
   40MOL    C8714985   2.693   7.748   7.675 -0.0254 -0.1517 -0.4074
   40MOL    C8814986   2.579   7.664   7.660  0.1221 -0.1205 -0.7013
   40MOL    H8914987   2.469   7.103   7.992  1.6664  0.7059  1.0795
   40MOL    H9014988   2.538   7.255   7.813  0.4232 -1.2404  1.2056
   40MOL    H9114989   2.376   7.484   7.951  0.0359 -0.0772  1.1929
   40MOL    H9214990   2.286   7.388   7.837  1.6624 -2.3275 -0.2219
   40MOL    H9314991   2.598   7.523   7.977  0.2989 -1.4397 -1.1318
   40MOL    H9414992   2.803   7.655   7.980 -2.5348 -0.5673  1.5248
   40MOL    H9514993   2.865   7.800   7.805  0.3577 -1.3580 -2.7749
   40MOL    H9614994   2.710   7.825   7.601  1.3537  0.9016  0.9719
   40MOL    C9714995   2.490   7.665   7.540 -0.8472  0.2632 -0.2870
   40MOL    C9814996   2.355   7.733   7.550 -0.4649  0.3682 -0.6830
   40MOL    O9914997   2.469   7.797   7.490 -0.1951 -0.0930  0.3353
   40MOL   C10014998   2.302   7.805   7.677  0.2213  0.3283 -0.6259
   40MOL   O10114999   2.189   7.890   7.647  0.2350 -0.0449 -0.2860
   40MOL   C10215000   2.207   8.006   7.572 -0.9881  0.0755  0.4813
   40MOL   C10315001   2.337   8.061   7.552  0.1148  0.2658  0.3860
   40MOL   C10415002   2.356   0.008   7.482  0.2957 -0.3288  0.1790
   40MOL   C10515003   2.240   0.090   7.452  0.0119 -0.4582  0.2814
   40MOL   C10615004   2.112   0.039   7.471 -0.0222 -0.3096 -0.9868
   40MOL   C10715005   2.092   8.078   7.519 -0.5403 -0.3140 -0.5013
   40MOL   H10815006   2.498   7.581   7.472  1.3465  1.0112 -0.9915
   40MOL   H10915007   2.286   7.712   7.469 -3.1005 -0.1017  1.6307
   40MOL   H11015008   2.387   7.849   7.728  0.2767 -1.2739  0.6814
   40MOL   H11115009   2.256   7.730   7.742  0.2829  0.2978 -0.6170
   40MOL   H11215010   2.429   8.018   7.588 -0.1918 -0.7449 -0.0133
   40MOL   H11315011   2.454   0.053   7.470  0.0172  0.7540  1.7273
   40MOL   H11415012   2.257   0.192   7.423  0.1372 -0.5203  0.1303
   40MOL   H11515013   2.040   0.114   7.443  0.8558  1.2800  0.8579
   40MOL   C11615014   1.958   8.016   7.536 -1.0146 -0.1059  0.7557
   40MOL   C11715015   1.873   8.025   7.652 -0.7590  0.1529 -0.1763
   40MOL   O11815016   1.850   8.116   7.551 -0.0232  0.7739  0.5430
   40MOL   C11915017   1.926   8.063   7.784 -0.2865  0.5099 -0.0758
   40MOL   O12015018   1.826   8.038   7.886  0.3332  0.0678  0.4303
   40MOL   C12115019   1.726   8.130   7.899 -0.2683 -0.5591 -0.2099
   40MOL   C12215020   1.742   0.103   7.868 -0.0065 -0.6371  0.3128
   40MOL   C12315021   1.635   0.190   7.882 -1.4850 -0.0860 -0.4702
   40MOL   C12415022   1.517   0.150   7.952 -0.8123 -0.0043 -0.4820
   40MOL   C12515023   1.511   0.012   8.000 -1.2256 -0.0373  0.6963
   40MOL   C12615024   1.602   8.083   7.958 -0.9363 -0.3490  0.4945
   40MOL   H12715025   1.938   7.936   7.465  0.7025  2.0956 -2.3344
   40MOL   H12815026   1.794   7.950   7.662  0.3520 -1.1633 -1.0756
   40MOL   H12915027   1.974   8.161   7.792 -0.2245  0.5148 -0.5013
   40MOL   H13015028   2.010   7.998   7.811 -0.0062  1.0478  0.3513
   40MOL   H13115029   1.841   0.141   7.845 -1.1797  2.0889 -0.3573
   40MOL   H13215030   1.651   0.284   7.832  0.5435  0.4832  1.1981
   40MOL   H13315031   1.434   0.218   7.965 -0.8946 -0.2145  0.1117
   40MOL   H13415032   1.422   8.152   8.053 -0.9348 -2.6191 -0.2113
   40MOL   C13515033   1.578   7.944   7.974 -0.3114  0.1005 -0.2561
   40MOL   C13615034   1.614   7.873   8.103  0.1844 -0.5096 -0.0975
   40MOL   O13715035   1.482   7.918   8.078  0.1707  0.3178 -0.0688
   40MOL   C13815036   1.676   7.943   0.051  0.3719  0.3601  0.0133
   40MOL   O13915037   1.617   7.878   0.164 -0.3539 -0.2375 -0.3891
   40MOL   C14015038   1.665   7.894   0.291 -0.5072  0.3792  0.0005
   40MOL   C14115039   1.798   7.914   0.319 -0.5010  0.0356  0.4865
   40MOL   C14215040   1.842   7.910   0.449 -0.4916  0.7143  0.0688
   40MOL   C14315041   1.754   7.899   0.560 -0.1781  0.0730  0.6923
   40MOL   C14415042   1.618   7.902   0.530  0.5063 -0.2561 -0.2595
   40MOL   C14515043   1.575   7.890   0.398 -0.3537 -0.0355  0.9332
   40MOL   H14615044   1.552   7.894   7.881  1.1552 -0.4177 -0.4138
   40MOL   H14715045   1.608   7.764   8.104  1.6131 -0.6047 -1.1186
   40MOL   H14815046   1.648   8.048   0.045  1.4726  0.6446 -0.1554
   40MOL   H14915047   1.785   7.941   0.045  0.3909 -0.4278  0.5080
   40MOL   H15015048   1.870   7.912   0.238 -2.1546  2.7336 -1.1255
   40MOL   H15115049   1.949   7.919   0.464 -0.5037 -1.4578  1.6900
   40MOL   H15215050   1.783   7.889   0.663  0.2100 -0.1020  0.5682
   40MOL   H15315051   1.555   7.897   0.617  0.3028  2.0540 -0.2571
   40MOL   C15415052   1.430   7.877   0.365  0.9318 -0.0368 -0.2438
   40MOL   C15515053   1.371   7.742   0.326 -1.2433 -0.1941  0.1955
   40MOL   O15615054   1.359   7.803   0.460  0.2905  0.0198 -0.7135
   40MOL   C15715055   1.461   7.615   0.311  0.5505  0.5835 -0.0490
   40MOL   O15815056   1.383   7.507   0.265  0.2582  0.5431 -0.7905
   40MOL   C15915057   1.349   7.503   0.135 -0.1514 -0.9137 -0.3505
   40MOL   C16015058   1.366   7.620   0.053  0.1043 -0.7185 -0.9493
   40MOL   C16115059   1.346   7.608   8.082  0.7679  0.2882  0.2606
   40MOL   C16215060   1.296   7.485   8.029  0.0258  0.0453  0.2239
   40MOL   C16315061   1.274   7.375   8.113  0.2427 -0.3000 -0.0100
   40MOL   C16415062   1.300   7.385   0.083 -0.6474  0.4348  0.5262
   40MOL   H16515063   1.371   7.963   0.335 -0.7164 -0.9713  0.3131
   40MOL   H16615064   1.277   7.737   0.271  0.0124  0.6409 -2.1310
   40MOL   H16715065   1.498   7.586   0.409 -1.7924 -0.3028  0.6218
   40MOL   H16815066   1.542   7.638   0.241 -0.0997 -0.4812 -1.1781
   40MOL   H16915067   1.409   7.712   0.091 -1.1534 -0.7964  0.7477
   40MOL   H17015068   1.360   7.691   8.014 -0.0660 -0.8784 -1.3664
   40MOL   H17115069   1.283   7.468   7.923  2.5526  0.9627 -0.2507
   40MOL   H17215070   1.259   7.276   8.071  1.0727 -1.1425  1.6334
   40MOL   C17315071   1.272   7.267   0.175  0.0627 -0.1979  0.0828
   40MOL   C17415072   1.126   7.234   0.221  0.5190  0.5575 -0.2871
   40MOL   O17515073   1.189   7.161   0.118 -0.2233 -0.0587  0.3223
   40MOL   C17615074   1.004   7.306   0.181 -0.9981  0.7372  0.5949
   40MOL   O17715075   0.959   7.415   0.265  0.1286 -0.1594 -0.0122
   40MOL   C17815076   0.915   7.532   0.206  0.1278  0.0692  0.0702
   40MOL   C17915077   0.981   7.591   0.100 -0.3797  0.0941  0.1753
   40MOL   C18015078   0.930   7.711   0.045 -0.1691  0.3750  0.2292
   40MOL   C18115079   0.824   7.776   0.111  0.0180 -0.6961 -0.2450
   40MOL   C18215080   0.762   7.722   0.226  0.1028  0.5543 -0.2792
   40MOL   C18315081   0.811   7.600   0.273 -0.8571 -0.4675 -0.1379
   40MOL   H18415082   1.348   7.230   0.243  1.4458  0.5937 -1.0252
   40MOL   H18515083   1.125   7.179   0.314  1.3827  0.8580 -0.0929
   40MOL   H18615084   0.919   7.239   0.191  0.1371 -0.4274  2.6903
   40MOL   H18715085   1.014   7.339   0.078 -0.3755  0.2023  0.4847
   40MOL   H18815086   1.061   7.540   0.048  0.4733 -0.1674  1.7283
   40MOL   H18915087   0.991   7.749   8.134  3.6408  0.5465  3.0107
   40MOL   H19015088   0.779   7.868   0.078  0.6045 -0.8184 -1.3845
   40MOL   H19115089   0.677   7.770   0.273  0.0163  2.1025 -1.9523
   40MOL   C19215090   0.760   7.539   0.396 -0.1727 -0.2567  0.1292
   40MOL   C19315091   0.831   7.553   0.534 -0.2055  0.2577  0.0282
   40MOL   O19415092   0.719   7.634   0.494 -0.3334 -0.1322 -0.3263
   40MOL   C19515093   0.961   7.631   0.540  1.5695  0.3529  0.0018
   40MOL   O19615094   0.975   7.690   0.669 -0.1679  0.3575 -0.3613
   40MOL   C19715095   0.968   7.826   0.685  0.1800  0.3003 -0.1005
   40MOL   C19815096   0.921   7.925   0.588 -0.5823 -0.7719  0.3649
   40MOL   C19915097   0.907   8.063   0.623  0.4208 -0.2617  0.4560
   40MOL   C20015098   0.930   8.102   0.754 -0.3927  0.3247  0.0196
   40MOL   C20115099   0.985   8.014   0.843  0.1604 -0.1558  0.3013
   40MOL   C20215100   0.999   7.881   0.814  0.0678  0.3056  0.0434
   40MOL   H20315101   0.683   7.464   0.380 -0.3267 -0.3348  1.1684
   40MOL   H20415102   0.810   7.487   0.618  0.0123 -0.8248 -0.7623
   40MOL   H20515103   0.978   7.705   0.462 -2.5467  0.5542 -0.8041
   40MOL   H20615104   1.045   7.563   0.522  1.4274 -0.3855  2.0190
   40MOL   H20715105   0.887   7.889   0.492  0.3891  0.5917 -0.4938
   40MOL   H20815106   0.878   8.129   0.543  1.3357  1.1470  1.2714
   40MOL   H20915107   0.913   0.036   0.779  0.8959  0.6740 -0.4871
   40MOL   H21015108   1.000   8.034   0.948  1.1139 -0.1563  0.1683
   40MOL   C21115109   1.058   7.788   0.921 -0.5479 -0.2364 -0.4819
   40MOL   C21215110   1.209   7.749   0.928 -0.3226  0.3109  0.3088
   40MOL   O21315111   1.156   7.854   1.015  0.0510  0.6043  0.3207
   40MOL   C21415112   1.301   7.793   0.819  0.3682  0.1206 -0.3598
   40MOL   O21515113   1.414   7.713   0.808  0.6908 -0.0064 -0.1282
   40MOL   C21615114   1.411   7.581   0.762 -0.1916  0.0559  0.0158
   40MOL   C21715115   1.289   7.514   0.731  0.2069 -0.1465  0.0938
   40MOL   C21815116   1.292   7.392   0.668 -0.2140  0.5482  0.1861
   40MOL   C21915117   1.415   7.326   0.643 -0.2832 -0.2440 -0.5893
   40MOL   C22015118   1.539   7.388   0.684  0.6248 -0.2554 -0.5219
   40MOL   C22115119   1.537   7.519   0.733 -0.4475 -1.2556  0.0206
   40MOL   H22215120   0.981   7.743   0.983 -0.5057  0.7040  0.2678
   40MOL   H22315121   1.238   7.661   0.985  2.8756  1.4609  0.5598
   40MOL   H22415122   1.333   7.894   0.846  3.9599 -1.0747  0.1627
   40MOL   H22515123   1.248   7.804   0.725  0.3862 -0.9200 -0.5005
   40MOL   H22615124   1.196   7.567   0.748  1.2470  1.4161  1.0959
   40MOL   H22715125   1.197   7.347   0.646 -0.7529  0.9321  1.6624
   40MOL   H22815126   1.409   7.232   0.591 -1.2211 -0.3927 -0.2245
   40MOL   H22915127   1.637   7.348   0.659  1.9703  1.1415  2.2869
   40MOL   C23015128   1.664   7.579   0.783 -0.5270 -0.2077  0.3167
   40MOL   C23115129   1.726   7.548   0.921  0.1818  0.0552  0.4455
   40MOL   O23215130   1.775   7.487   0.799  0.2573 -0.2898  0.3067
   40MOL   C23315131   1.653   7.463   1.021  0.1396 -0.3282  0.4361
   40MOL   O23415132   1.756   7.385   1.094 -0.3969 -0.7195 -0.0320
   40MOL   C23515133   1.822   7.448   1.196 -0.7421  0.4253  1.0056
   40MOL   C23615134   1.798   7.575   1.240 -0.4353 -0.6366  0.5486
   40MOL   C23715135   1.880   7.644   1.328 -0.0036  0.0157  0.3952
   40MOL   C23815136   1.985   7.567   1.385 -0.9711 -1.0089 -0.2158
   40MOL   C23915137   2.013   7.432   1.351  0.0683 -0.0190  0.5398
   40MOL   C24015138   1.932   7.379   1.247 -0.2142 -1.1113 -1.1237
   40MOL   H24115139   1.694   7.667   0.726  1.0508  0.0636  1.5659
   40MOL   H24215140   1.802   7.614   0.961  1.2971 -0.3181 -0.9967
   40MOL   H24315141   1.572   7.406   0.975  0.7211  0.3517 -1.4859
   40MOL   H24415142   1.589   7.521   1.087  0.9386  0.1004  0.8395
   40MOL   H24515143   1.726   7.643   1.197  2.6587  0.8475 -2.5440
   40MOL   H24615144   1.861   7.747   1.354 -0.1468 -0.2101  1.1821
   40MOL   H24715145   2.056   7.616   1.450 -3.4087 -0.4280  2.1009
   40MOL   H24815146   2.097   7.378   1.391 -0.5865  0.1373  2.1399
   40MOL   C24915147   1.957   7.246   1.193 -0.5410 -0.3211  0.1678
   40MOL   C25015148   2.047   7.242   1.078  0.4431  0.0464  0.3688
   40MOL   O25115149   2.088   7.202   1.206 -0.1753  0.0046  0.3469
   40MOL   C25215150   2.097   7.369   1.017 -0.2900  0.4068  0.7911
   40MOL   O25315151   2.189   7.341   0.910 -0.0609  0.7005  0.1965
   40MOL   C25415152   2.133   7.287   0.793 -0.1057 -0.2338  0.1322
   40MOL   C25515153   1.993   7.284   0.765 -0.4099 -0.2215  0.5211
   40MOL   C25615154   1.947   7.217   0.647  0.1849 -1.3304 -0.5562
   40MOL   C25715155   2.037   7.148   0.564 -0.5788  0.2705  0.4578
   40MOL   C25815156   2.174   7.171   0.585 -0.8406 -0.1786 -0.2699
   40MOL   C25915157   2.226   7.235   0.696 -0.0754  1.5787 -0.4027
   40MOL   H26015158   1.876   7.175   1.210 -0.6230 -0.6673 -1.5320
   40MOL   H26115159   2.024   7.159   1.010  0.1423 -0.3340  0.9294
   40MOL   H26215160   2.147   7.423   1.097  1.3686 -0.8604  0.6230
   40MOL   H26315161   2.010   7.431   0.992  0.1259  0.7384  0.1573
   40MOL   H26415162   1.920   7.311   0.839  1.2775  0.8764  1.8098
   40MOL   H26515163   1.840   7.208   0.637 -0.3716  1.2329  2.3493
   40MOL   H26615164   1.999   7.091   0.480  1.3669 -1.7002  0.8556
   40MOL   H26715165   2.241   7.134   0.509  0.1057  1.7548 -0.4111
   40MOL   C26815166   2.372   7.233   0.724 -0.5413 -0.0978  0.3603
   40MOL   C26915167   2.443   7.119   0.800  0.7156 -0.2038  0.2131
   40MOL   O27015168   2.439   7.122   0.657  0.1714  0.2920  0.1353
   40MOL   C27115169   2.386   6.991   0.867 -0.2303 -0.7906  0.5929
   40MOL   O27215170   2.488   6.896   0.905  0.1221 -0.2161 -0.0807
   40MOL   C27315171   2.433   6.783   0.958 -0.0508  0.2686  0.2525
   40MOL   C27415172   2.340   6.784   1.064  0.2234 -0.4044  0.3318
   40MOL   C27515173   2.285   6.663   1.106  0.1008 -0.7814  0.5529
   40MOL   C27615174   2.323   6.541   1.053  0.0357  0.8374 -0.3397
   40MOL   C27715175   2.416   6.540   0.946  0.2522  0.2402 -0.2363
   40MOL   C27815176   2.480   6.657   0.904  0.1694 -1.3056 -0.1437
   40MOL   H27915177   2.419   7.330   0.714  0.2970 -0.6409 -1.1782
   40MOL   H28015178   2.542   7.135   0.842 -0.3582 -0.0722  2.7611
   40MOL   H28115179   2.312   6.940   0.805  1.1122 -0.5476 -1.2300
   40MOL   H28215180   2.337   7.018   0.961 -0.0699  0.3935  0.3467
   40MOL   H28315181   2.296   6.876   1.098 -0.6037 -0.5908 -0.2083
   40MOL   H28415182   2.215   6.683   1.186 -1.1066 -0.8943 -0.4533
   40MOL   H28515183   2.282   6.451   1.098 -0.6604  0.8580 -0.9131
   40MOL   H28615184   2.457   6.451   0.900  0.8691  1.2877 -1.7202
   40MOL   C28715185   2.580   6.651   0.792  0.1165  0.1362 -0.9721
   40MOL   C28815186   2.720   6.590   0.803  0.7781 -0.1645 -0.1339
   40MOL   O28915187   2.613   6.512   0.755  0.1582 -0.2319 -0.3840
   40MOL   C29015188   2.794   6.536   0.921  0.0213 -0.2761  0.6576
   40MOL   O29115189   2.927   6.498   0.879 -0.4515  0.0870  0.1548
   40MOL   C29215190   2.969   6.369   0.870 -0.1096  0.1027 -0.2894
   40MOL   C29315191   2.886   6.258   0.870  0.3842  0.7523 -0.1354
   40MOL   C29415192   2.941   6.130   0.842 -0.1509  0.1235  0.4788
   40MOL   C29515193   3.083   6.115   0.838  0.7352 -0.1175 -0.2186
   40MOL   C29615194   3.169   6.230   0.849  0.1145  0.7471  0.0603
   40MOL   C29715195   3.112   6.356   0.867 -1.2737 -0.1842  0.1802
   40MOL   H29815196   2.555   6.720   0.712  1.4576  2.5227  0.6234
   40MOL   H29915197   2.800   6.610   0.732  1.9627 -1.6454  0.7561
   40MOL   H30015198   2.728   6.461   0.963 -2.8390  1.0015 -1.3448
   40MOL   H30115199   2.816   6.612   0.996 -1.0763  0.2917  0.4139
   40MOL   H30215200   2.780   6.274   0.879  0.4320 -0.3088  2.8122
   40MOL   H30315201   2.883   6.046   0.807  1.9549 -1.0769 -0.2207
   40MOL   H30415202   3.125   6.018   0.817  0.0922 -0.0870 -1.7113
   40MOL   H30515203   3.276   6.232   0.832 -0.1854 -0.0417 -2.1764
   40MOL   C30615204   3.209   6.473   0.875  0.4086  0.0281 -0.1622
   40MOL   C30715205   3.229   6.568   0.993 -0.8724 -0.5747 -0.0311
   40MOL   O30815206   3.318   6.459   0.969  0.5928  0.1235  0.0266
   40MOL   C30915207   3.146   6.554   1.123  0.1283 -0.5818  0.0517
   40MOL   O31015208   3.186   6.646   1.216  0.5033 -0.7508 -0.2864
   40MOL   C31115209   3.272   6.615   1.321 -0.0784 -1.3297 -0.3585
   40MOL   C31215210   3.359   6.502   1.327  0.2963  0.0947 -0.2045
   40MOL   C31315211   3.459   6.486   1.425 -0.5532 -0.0096 -0.0877
   40MOL   C31415212   3.454   6.577   1.533 -0.6402 -0.2840  0.8358
   40MOL   C31515213   3.363   6.687   1.534  0.5594 -0.6252 -0.0104
   40MOL   C31615214   3.274   6.706   1.427 -0.0472  0.2568 -0.5835
   40MOL   H31715215   3.239   6.509   0.777  1.0017 -0.5560 -0.2010
   40MOL   H31815216   3.267   6.669   0.976  0.0308 -0.2390  3.5688
   40MOL   H31915217   3.145   6.449   1.152 -1.3389 -0.1913  1.4630
   40MOL   H32015218   3.041   6.575   1.106  0.1004 -1.1224 -0.4538
   40MOL   H32115219   3.353   6.436   1.241 -3.4793 -0.5081  0.4200
   40MOL   H32215220   3.535   6.409   1.418 -0.2918  0.1367  0.9451
   40MOL   H32315221   3.529   6.576   1.610  1.0213  0.1590 -0.7424
   40MOL   H32415222   3.377   6.759   1.614 -1.3490  0.4682 -0.6230
   40MOL   C32515223   3.199   6.835   1.424  0.1860  0.7104  0.6043
   40MOL   C32615224   3.064   6.850   1.487  0.5397 -0.2123  0.7224
   40MOL   O32715225   3.185   6.892   1.554 -0.2130 -0.1095 -0.3848
   40MOL   C32815226   2.989   6.739   1.552 -0.0705  0.3541 -0.4976
   40MOL   O32915227   2.895   6.799   1.641 -0.1123  0.3299 -0.6683
   40MOL   C33015228   2.829   6.725   1.741 -0.4321 -0.1454 -0.2693
   40MOL   C33115229   2.807   6.586   1.733 -0.2689  0.1442 -0.1168
   40MOL   C33215230   2.734   6.520   1.832 -0.4346 -0.1164  0.4469
   40MOL   C33315231   2.669   6.591   1.937  0.1727  0.5486  0.3049
   40MOL   C33415232   2.686   6.731   1.942 -0.3781 -0.3202 -0.0367
   40MOL   C33515233   2.762   6.795   1.846  0.6000 -0.5334 -0.0905
   40MOL   H33615234   3.242   6.896   1.345  0.1598 -1.5267 -1.2222
   40MOL   H33715235   3.000   6.929   1.446  0.2453 -0.3592  0.8957
   40MOL   H33815236   3.055   6.671   1.606 -3.2443 -1.1182  1.7350
   40MOL   H33915237   2.939   6.673   1.482 -1.5342  2.1187 -1.1616
   40MOL   H34015238   2.845   6.531   1.648 -0.0601  0.1710 -0.0405
   40MOL   H34115239   2.700   6.418   1.823 -2.9989  0.7128  0.2367
   40MOL   H34215240   2.606   6.540   2.008 -0.4861  0.0690 -0.5974
   40MOL   H34315241   2.645   6.792   2.022  0.0734 -0.2432  0.1357
   40MOL   C34415242   2.765   6.951   1.855  0.1441 -0.8663  0.7191
   40MOL   C34515243   2.696   7.046   1.753 -0.7801  0.0214  0.2269
   40MOL   O34615244   2.632   7.008   1.878  0.1396 -0.2490  0.0931
   40MOL   C34715245   2.635   7.002   1.621  0.1627 -0.2580 -0.0913
   40MOL   O34815246   2.546   7.111   1.590 -0.0973 -0.1997 -0.4225
   40MOL   C34915247   2.507   7.124   1.459  0.9864  0.0668 -0.2885
   40MOL   C35015248   2.540   7.028   1.357  0.2661 -0.5592  0.2744
   40MOL   C35115249   2.498   7.065   1.226 -0.1281  0.9938  0.5407
   40MOL   C35215250   2.438   7.183   1.201 -0.3520 -0.1736 -0.2526
   40MOL   C35315251   2.412   7.274   1.303  0.1256 -0.0312 -0.0182
   40MOL   C35415252   2.447   7.250   1.437 -0.0805  0.5302  0.5663
   40MOL   H35515253   2.834   6.998   1.926  1.3476 -2.1541  0.4289
   40MOL   H35615254   2.740   7.145   1.743 -0.9646  0.0570 -0.2559
   40MOL   H35715255   2.571   6.915   1.635 -1.7028  1.0923  0.0142
   40MOL   H35815256   2.712   6.971   1.550  0.4421 -1.6237  0.7819
   40MOL   H35915257   2.599   6.938   1.363 -1.4671 -1.9043 -2.0501
   40MOL   H36015258   2.519   7.003   1.140 -0.7309  2.3228 -0.5907
   40MOL   H36115259   2.406   7.187   1.098 -0.0270 -1.1443 -0.3959
   40MOL   H36215260   2.360   7.361   1.265  0.5198 -0.2154 -0.9964
   40MOL   C36315261   2.418   7.349   1.544 -0.8413 -0.7034 -0.1086
   40MOL   C36415262   2.526   7.427   1.619  0.1188  0.0528  0.0804
   40MOL   O36515263   2.454   7.485   1.511 -0.3184  0.3354  0.0263
   40MOL   C36615264   2.675   7.418   1.587 -0.0506 -0.7131 -0.5103
   40MOL   O36715265   2.748   7.456   1.703 -0.2580 -0.8606 -0.1685
   40MOL   C36815266   2.744   7.584   1.751  0.1547 -0.3373 -0.3872
   40MOL   C36915267   2.700   7.693   1.671 -0.3845 -0.7127  0.4903
   40MOL   C37015268   2.714   7.819   1.722 -0.2845 -0.1137 -0.3035
   40MOL   C37115269   2.766   7.843   1.846  0.7790 -1.1049  1.0544
   40MOL   C37215270   2.803   7.740   1.924  0.8009 -0.2636  0.2786
   40MOL   C37315271   2.792   7.607   1.880  0.1710 -0.3939 -0.1272
   40MOL   H37415272   2.317   7.337   1.583 -1.6845 -1.5649 -2.5228
   40MOL   H37515273   2.496   7.474   1.713 -1.0972  0.1818 -0.3707
   40MOL   H37615274   2.720   7.472   1.504 -1.5667  2.0848  0.4326
   40MOL   H37715275   2.697   7.312   1.573 -0.3399 -0.7128 -0.9504
   40MOL   H37815276   2.658   7.679   1.573  0.1066 -1.5989  0.3970
   40MOL   H37915277   2.695   7.908   1.663 -1.6178 -0.7105 -0.7792
   40MOL   H38015278   2.789   7.946   1.868 -1.6140 -0.1918 -0.5469
   40MOL   H38115279   2.827   7.756   2.028  1.2435  0.3791  0.0814
   40MOL   H38215280   2.834   7.525   1.937 -0.0563 -0.2501  0.2505
   41MOL     C115281   0.711   4.902   6.704 -0.3045  0.9227  0.6068
   41MOL     C215282   0.635   4.895   6.826 -0.2408  0.2070 -0.9715
   41MOL     O315283   0.584   4.970   6.714 -0.3359 -0.1279 -0.5829
   41MOL     C415284   0.671   4.970   6.949 -0.5125 -0.2787 -0.3659
   41MOL     O515285   0.569   4.951   7.044 -0.1876  0.1776 -0.1465
   41MOL     C615286   0.478   5.056   7.061  0.1635 -0.5440  0.2757
   41MOL     C715287   0.442   5.140   6.954  0.0970 -0.0829  1.3184
   41MOL     C815288   0.350   5.244   6.977  0.1073  0.0991 -0.4180
   41MOL     C915289   0.281   5.250   7.103  0.4551  0.2357 -0.0544
   41MOL    C1015290   0.317   5.162   7.208 -0.0702 -0.3762 -0.3867
   41MOL    C1115291   0.416   5.063   7.189 -0.2815 -0.3546  0.8995
   41MOL    H1215292   0.716   4.822   6.631  0.9551  1.1423  0.4464
   41MOL    H1315293   0.594   4.794   6.838  0.5813  0.0020  0.1702
   41MOL    H1415294   0.680   5.076   6.924 -1.0820 -0.5046 -1.5355
   41MOL    H1515295   0.769   4.946   6.990 -0.5641 -0.3011 -0.2553
   41MOL    H1615296   0.493   5.135   6.859  0.8166 -1.4931  1.7684
   41MOL    H1715297   0.328   5.311   6.895 -0.9271  0.9903  0.5676
   41MOL    H1815298   0.195   5.313   7.115  0.6306  0.6813 -1.0511
   41MOL    H1915299   0.263   5.166   7.302  1.0872  2.2857  0.2335
   41MOL    H2015300   0.797   4.967   6.713 -0.4291  1.3163 -0.8507
   41MOL    C2115301   0.449   4.967   7.298  0.1719  0.5032 -0.0462
   41MOL    C2215302   0.579   4.972   7.384 -0.1335  0.0187 -0.0739
   41MOL    O2315303   0.462   5.043   7.425 -0.3351 -0.9957  1.0241
   41MOL    C2415304   0.701   5.061   7.347  0.6230  0.6271  0.9664
   41MOL    O2515305   0.754   5.117   7.467 -0.5644 -0.2362 -0.2518
   41MOL    C2615306   0.837   5.230   7.445  0.6018 -0.8672 -0.2231
   41MOL    C2715307   0.900   5.261   7.321  0.4602  0.5942 -0.7589
   41MOL    C2815308   0.984   5.369   7.300 -0.1061  0.3103 -0.1024
   41MOL    C2915309   1.000   5.459   7.401  0.1834  0.1409  0.3226
   41MOL    C3015310   0.954   5.431   7.532 -0.4764  0.1098 -0.5871
   41MOL    C3115311   0.868   5.319   7.555 -0.9134 -0.0067 -0.8284
   41MOL    H3215312   0.376   4.887   7.306  1.9067 -1.3622 -2.1159
   41MOL    H3315313   0.601   4.895   7.458 -0.5672  1.3398  1.4554
   41MOL    H3415314   0.667   5.138   7.278  0.6921 -0.5548 -0.4223
   41MOL    H3515315   0.786   5.003   7.311  0.2997 -0.3399  1.7139
   41MOL    H3615316   0.898   5.184   7.245  1.4148 -1.1239  0.9143
   41MOL    H3715317   1.030   5.385   7.204 -1.0198 -1.4161 -0.8565
   41MOL    H3815318   1.067   5.541   7.382  0.0632  0.3108  0.6340
   41MOL    H3915319   0.981   5.504   7.607 -0.8172 -0.6497  0.2862
   41MOL    C4015320   0.822   5.302   7.696  0.4595  0.5388  0.9565
   41MOL    C4115321   0.907   5.269   7.821  0.2266 -0.0359 -0.9385
   41MOL    O4215322   0.860   5.398   7.794 -0.1048  0.4638 -0.4593
   41MOL    C4315323   1.056   5.245   7.808 -0.0748  0.3990  0.2597
   41MOL    O4415324   1.131   5.224   7.929  0.8804  0.4320 -0.4400
   41MOL    C4515325   1.151   5.337   8.009 -0.2633 -0.5810 -0.1665
   41MOL    C4615326   1.135   5.475   7.961 -0.0751 -0.5677 -0.1308
   41MOL    C4715327   1.154   5.582   8.050 -0.7169 -0.2141  0.4057
   41MOL    C4815328   1.197   5.559   0.009 -0.1348 -0.3858 -0.1690
   41MOL    C4915329   1.208   5.424   0.051 -0.2247 -0.8927 -0.2269
   41MOL    C5015330   1.187   5.315   8.139 -0.1688  0.0888 -1.0536
   41MOL    H5115331   0.721   5.263   7.703 -0.0280  1.2490 -1.3852
   41MOL    H5215332   0.858   5.228   7.908 -0.9729  2.5319 -0.3465
   41MOL    H5315333   1.103   5.308   7.733 -0.6767  0.8191  0.2326
   41MOL    H5415334   1.067   5.144   7.768 -0.1626  0.8800 -1.0124
   41MOL    H5515335   1.097   5.498   7.863 -2.6481 -0.6813  0.7984
   41MOL    H5615336   1.134   5.682   8.017 -1.6497 -1.5804 -3.4130
   41MOL    H5715337   1.201   5.638   0.084  1.8959 -0.8811  0.2787
   41MOL    H5815338   1.239   5.413   0.154  1.8456 -0.6751 -0.7974
   41MOL    C5915339   1.214   5.174   0.022 -0.1097 -0.6183  0.9399
   41MOL    C6015340   1.360   5.132   0.038 -0.3745 -0.3352  0.1702
   41MOL    O6115341   1.271   5.171   0.147 -0.5007  0.0317  0.5236
   41MOL    C6215342   1.474   5.232   0.009 -0.5969  0.4972 -0.4164
   41MOL    O6315343   1.592   5.163   0.037  0.1320  0.9996 -0.5569
   41MOL    C6415344   1.615   5.126   0.165 -0.5216 -0.0915 -0.0950
   41MOL    C6515345   1.589   5.206   0.278 -0.0886  0.2499  0.0783
   41MOL    C6615346   1.620   5.156   0.406  0.0802  0.2983  0.6062
   41MOL    C6715347   1.684   5.035   0.421 -0.5527  0.0700 -0.3460
   41MOL    C6815348   1.711   4.956   0.311 -0.4750  0.3185 -0.0194
   41MOL    C6915349   1.681   5.000   0.180 -0.1141 -0.0751  0.2179
   41MOL    H7015350   1.150   5.095   8.154 -1.7345  0.0418  2.2599
   41MOL    H7115351   1.380   5.025   0.036  0.6468 -0.2001  2.2900
   41MOL    H7215352   1.469   5.322   0.070 -2.0234 -1.1171  1.9064
   41MOL    H7315353   1.479   5.256   8.073 -0.6846  1.9089 -0.1083
   41MOL    H7415354   1.553   5.307   0.269  1.1512  0.6899 -0.0599
   41MOL    H7515355   1.603   5.221   0.491 -0.0027  1.5640 -0.3666
   41MOL    H7615356   1.706   5.002   0.521  0.7743  0.0283 -0.6289
   41MOL    H7715357   1.770   4.868   0.332  1.0768  1.9418  2.6988
   41MOL    C7815358   1.712   4.913   0.052  0.1180  0.1877 -0.9001
   41MOL    C7915359   1.836   4.922   8.150 -0.6421 -1.1023  0.2024
   41MOL    O8015360   1.815   4.815   0.070 -0.5087  0.0898  0.3249
   41MOL    C8115361   1.949   5.020   0.003  0.6227  0.1594  0.0840
   41MOL    O8215362   2.058   4.966   8.110 -0.2125  0.7396  0.5263
   41MOL    C8315363   2.171   4.943   0.009 -1.2564  0.5410 -0.4647
   41MOL    C8415364   2.184   4.836   0.106 -0.1652  0.1497  0.5993
   41MOL    C8515365   2.308   4.800   0.161  0.0511 -0.4187  0.2415
   41MOL    C8615366   2.423   4.874   0.131  0.1839  0.2892 -0.3461
   41MOL    C8715367   2.409   4.980   0.041 -0.3050  0.4065 -0.4738
   41MOL    C8815368   2.288   5.012   8.148 -0.3983  0.0453  0.0023
   41MOL    H8915369   1.626   4.891   8.159 -0.4799 -0.7533  0.2304
   41MOL    H9015370   1.837   4.875   8.052 -0.9193 -1.9796  0.6051
   41MOL    H9115371   1.957   5.044   0.109 -2.6621 -0.2183  0.4497
   41MOL    H9215372   1.919   5.114   8.126 -2.4694 -0.4838  0.6426
   41MOL    H9315373   2.094   4.777   0.117  0.5195 -0.7406  1.4195
   41MOL    H9415374   2.309   4.709   0.219  0.9188 -0.4313  0.2214
   41MOL    H9515375   2.516   4.849   0.181 -1.3039 -1.6953  1.5528
   41MOL    H9615376   2.499   5.029   0.008 -0.0814  0.8759  0.8249
   41MOL    C9715377   2.273   5.128   8.048 -0.0244 -0.1988 -0.6131
   41MOL    C9815378   2.318   5.280   8.076  0.0840 -0.1291  0.0441
   41MOL    O9915379   2.397   5.187   7.999 -0.3422  0.6212  0.0633
   41MOL   C10015380   2.371   5.325   0.043  0.7436  0.4733 -0.1122
   41MOL   O10115381   2.301   5.259   0.149 -0.1121 -0.1310 -0.1208
   41MOL   C10215382   2.170   5.299   0.174 -0.2227  0.3266 -0.5708
   41MOL   C10315383   2.103   5.405   0.108  0.2185  0.0248  0.3430
   41MOL   C10415384   1.967   5.440   0.137  0.0409 -0.1915 -0.0510
   41MOL   C10515385   1.902   5.365   0.237 -0.7083 -0.4400  0.1671
   41MOL   C10615386   1.968   5.266   0.307  0.5114  0.1182 -0.2861
   41MOL   C10715387   2.106   5.234   0.280  0.2443  0.3720  0.6553
   41MOL   H10815388   2.193   5.101   7.979 -0.3164  0.2411 -0.4386
   41MOL   H10915389   2.268   5.361   8.023  1.9877 -0.2681 -2.0475
   41MOL   H11015390   2.365   5.434   0.045  1.9688  0.5292  1.0388
   41MOL   H11115391   2.474   5.291   0.051  1.7131  3.7964  3.1111
   41MOL   H11215392   2.145   5.465   0.028 -1.5524  1.0203  0.1237
   41MOL   H11315393   1.926   5.525   0.084 -0.1566  0.4302  1.0787
   41MOL   H11415394   1.795   5.373   0.246 -0.8057 -2.8883  1.7226
   41MOL   H11515395   1.921   5.195   0.373  1.3003 -1.8172 -1.7382
   41MOL   C11615396   2.159   5.111   0.346 -0.0524 -0.2872 -0.1166
   41MOL   C11715397   2.289   5.110   0.427  0.1719 -0.4207 -0.2697
   41MOL   O11815398   2.157   5.103   0.491  0.7338 -0.4111 -0.3084
   41MOL   C11915399   2.379   5.232   0.448  0.0496 -0.8093 -0.2524
   41MOL   O12015400   2.469   5.229   0.558 -0.1882 -0.0072 -0.2377
   41MOL   C12115401   2.416   5.205   0.683  0.4115 -0.4609  0.3703
   41MOL   C12215402   2.280   5.244   0.716 -0.4084  0.2224  0.7718
   41MOL   C12315403   2.232   5.211   0.846 -0.4728 -0.0096  0.4107
   41MOL   C12415404   2.317   5.157   0.942 -0.3343 -0.6586 -0.1252
   41MOL   C12515405   2.447   5.114   0.909 -0.2670 -0.0898  0.6990
   41MOL   C12615406   2.493   5.131   0.778  0.0590  0.0202 -0.1924
   41MOL   H12715407   2.119   5.023   0.295  1.9218 -3.0554  2.8432
   41MOL   H12815408   2.351   5.021   0.413  0.3413 -0.6019  1.4700
   41MOL   H12915409   2.311   5.318   0.448  0.7593 -0.2293  0.7849
   41MOL   H13015410   2.443   5.250   0.362  0.3948 -0.0618  0.1509
   41MOL   H13115411   2.213   5.298   0.650  1.3084 -0.8256 -1.8717
   41MOL   H13215412   2.131   5.237   0.875 -0.5392  1.3590 -0.9785
   41MOL   H13315413   2.276   5.136   1.040 -3.3665 -0.2550 -1.2574
   41MOL   H13415414   2.516   5.066   0.976 -0.0665  1.1761  1.4120
   41MOL   C13515415   2.638   5.089   0.752 -0.8400  1.1699  0.2489
   41MOL   C13615416   2.757   5.183   0.774 -0.5856 -0.0477  0.5132
   41MOL   O13715417   2.725   5.086   0.870 -0.0437 -0.4726 -0.4250
   41MOL   C13815418   2.747   5.332   0.795  0.4014 -0.4624 -0.7492
   41MOL   O13915419   2.879   5.364   0.845  0.0443  0.0935  0.2836
   41MOL   C14015420   2.916   5.492   0.872 -0.6457 -0.6206 -0.0513
   41MOL   C14115421   2.821   5.604   0.857  0.3322  0.0010  0.6516
   41MOL   C14215422   2.859   5.734   0.892  0.3822 -1.5125 -0.3578
   41MOL   C14315423   2.985   5.763   0.939 -0.4867  0.1757 -0.0301
   41MOL   C14415424   3.082   5.660   0.959 -0.7001  0.4206 -0.5166
   41MOL   C14515425   3.052   5.528   0.920  0.2851  0.9033 -0.0578
   41MOL   H14615426   2.642   5.005   0.683 -3.3267  0.1753  1.2529
   41MOL   H14715427   2.835   5.157   0.703  0.0131 -0.8213  1.4316
   41MOL   H14815428   2.683   5.357   0.879  1.1449  0.2456 -0.3870
   41MOL   H14915429   2.723   5.384   0.702 -0.3907 -0.3798 -0.5024
   41MOL   H15015430   2.720   5.589   0.824 -0.2075  1.2599  1.6613
   41MOL   H15115431   2.789   5.815   0.880 -0.4005 -2.3083 -1.2557
   41MOL   H15215432   3.010   5.867   0.956 -0.3513  0.2613 -0.7499
   41MOL   H15315433   3.178   5.686   1.000 -0.9770 -1.0896  1.1932
   41MOL   C15415434   3.160   5.436   0.938  0.0455  0.1139  0.0369
   41MOL   C15515435   3.242   5.362   0.828 -0.2957 -0.7085 -0.4576
   41MOL   O15615436   3.282   5.485   0.878  0.0601 -0.0853  0.1720
   41MOL   C15715437   3.195   5.353   0.679  0.0503 -0.3928 -0.1425
   41MOL   O15815438   3.284   5.268   0.603 -0.6020 -0.7624  0.5710
   41MOL   C15915439   3.269   5.253   0.465 -0.2182  0.0544 -1.0691
   41MOL   C16015440   3.235   5.357   0.386  0.5111 -0.4594 -0.3786
   41MOL   C16115441   3.209   5.337   0.255  0.0849  0.5860  0.0039
   41MOL   C16215442   3.243   5.216   0.192  0.6072 -0.0400 -0.1098
   41MOL   C16315443   3.312   5.117   0.265  0.3466  0.7845 -0.3521
   41MOL   C16415444   3.306   5.129   0.408 -0.8565 -0.2108  0.4062
   41MOL   H16515445   3.166   5.428   1.047  1.3761  1.7301  0.0874
   41MOL   H16615446   3.303   5.275   0.851 -1.4404 -1.3470  0.2467
   41MOL   H16715447   3.194   5.453   0.636  1.6914 -0.1399  0.3957
   41MOL   H16815448   3.094   5.311   0.683 -0.2691  0.5738  2.9034
   41MOL   H16915449   3.211   5.454   0.428 -0.4731 -1.3460  1.1894
   41MOL   H17015450   3.161   5.409   0.190  0.3244  0.6846 -0.0650
   41MOL   H17115451   3.225   5.200   0.087 -0.9060  2.5037 -0.2990
   41MOL   H17215452   3.340   5.022   0.223  0.5962  1.8731 -2.7930
   41MOL   C17315453   3.344   5.021   0.496  0.1588 -0.6059 -0.5427
   41MOL   C17415454   3.238   4.924   0.543 -0.1182  0.8770  0.3876
   41MOL   O17515455   3.326   4.892   0.432 -0.1591  0.3684  0.0718
   41MOL   C17615456   3.089   4.937   0.514 -0.6084 -0.2005  0.4113
   41MOL   O17715457   3.008   4.838   0.571  0.4396  0.2802  0.0062
   41MOL   C17815458   2.870   4.843   0.550  0.1980 -0.2663 -0.4955
   41MOL   C17915459   2.802   4.920   0.455  0.2856 -0.6455  0.3259
   41MOL   C18015460   2.667   4.899   0.429 -0.1614  0.3724  0.1372
   41MOL   C18115461   2.591   4.814   0.511  0.8622  0.5869  0.7693
   41MOL   C18215462   2.652   4.738   0.607 -0.1963  0.2424 -0.1847
   41MOL   C18315463   2.792   4.753   0.626 -0.6062 -0.3674 -0.5041
   41MOL   H18415464   3.447   5.013   0.530  0.5060 -1.7734 -1.8188
   41MOL   H18515465   3.265   4.885   0.640  0.1488 -1.3517 -0.5522
   41MOL   H18615466   3.072   4.954   0.407  2.1925 -0.6117 -0.1310
   41MOL   H18715467   3.051   5.027   0.562 -0.6089  0.5810 -1.0036
   41MOL   H18815468   2.854   4.997   0.400 -1.7894  0.2127 -0.5255
   41MOL   H18915469   2.613   4.962   0.360  1.6575 -0.2696 -1.9291
   41MOL   H19015470   2.484   4.800   0.504  0.7000  0.9294  2.3042
   41MOL   H19115471   2.600   4.664   0.666 -0.0242 -0.8230 -1.3469
   41MOL   C19215472   2.864   4.659   0.717 -0.4105 -0.5460 -0.1899
   41MOL   C19315473   2.855   4.675   0.864  0.8788  0.3801  0.9379
   41MOL   O19415474   2.781   4.573   0.799  0.7803  0.3544 -0.2977
   41MOL   C19515475   2.783   4.788   0.941 -0.4393  0.2280  0.1388
   41MOL   O19615476   2.784   4.767   1.084  0.4142 -0.4220  0.1611
   41MOL   C19715477   2.665   4.708   1.132 -0.0482 -0.4779  0.1284
   41MOL   C19815478   2.580   4.615   1.063 -0.0793 -0.6575 -0.1095
   41MOL   C19915479   2.462   4.565   1.119  0.1770 -0.3840 -0.4338
   41MOL   C20015480   2.434   4.598   1.251  0.4694 -0.6197 -0.0751
   41MOL   C20115481   2.518   4.678   1.330 -0.7804 -0.3571 -0.6799
   41MOL   C20215482   2.634   4.732   1.270 -0.3043 -0.1835 -0.3972
   41MOL   H20315483   2.928   4.591   0.662  0.5961  1.2089 -1.2669
   41MOL   H20415484   2.946   4.638   0.912  1.0400 -1.2186 -0.5805
   41MOL   H20515485   2.686   4.801   0.893  1.2169  2.6779 -2.7407
   41MOL   H20615486   2.845   4.877   0.929 -2.0465  1.1824 -1.2817
   41MOL   H20715487   2.615   4.587   0.965  2.3557  0.6090  0.3521
   41MOL   H20815488   2.387   4.508   1.066 -0.1518 -0.0267 -0.3520
   41MOL   H20915489   2.341   4.562   1.295  0.8936 -0.9412  0.5638
   41MOL   H21015490   2.495   4.692   1.434  1.5498 -1.4833  0.0176
   41MOL   C21115491   2.720   4.832   1.338 -0.1287 -0.1866 -0.2654
   41MOL   C21215492   2.700   4.982   1.341  0.5034 -1.1324  0.0529
   41MOL   O21315493   2.649   4.896   1.447 -0.7646 -0.1497  0.1670
   41MOL   C21415494   2.586   5.043   1.256  0.2782  0.2088  0.7007
   41MOL   O21515495   2.559   5.176   1.305 -0.6666  0.4025  0.4910
   41MOL   C21615496   2.647   5.282   1.291  0.2713  0.0284  0.4101
   41MOL   C21715497   2.758   5.272   1.205 -0.2564 -0.6437 -0.7978
   41MOL   C21815498   2.843   5.385   1.182  0.4541  0.1669 -0.7327
   41MOL   C21915499   2.808   5.506   1.241 -0.3127  0.4556  0.1378
   41MOL   C22015500   2.709   5.515   1.335 -0.3336  0.1894  0.3555
   41MOL   C22115501   2.626   5.402   1.361 -0.4793 -0.0954  0.5907
   41MOL   H22215502   2.817   4.783   1.349  0.5465  1.0686 -0.4443
   41MOL   H22315503   2.782   5.042   1.380 -0.7446  0.0741  0.8394
   41MOL   H22415504   2.497   4.981   1.267 -0.0302  0.1745 -1.6987
   41MOL   H22515505   2.614   5.052   1.151 -0.3869 -1.7950  0.3332
   41MOL   H22615506   2.778   5.180   1.151  3.0856 -0.3079 -0.2718
   41MOL   H22715507   2.928   5.376   1.116  0.8137 -1.3693 -0.0785
   41MOL   H22815508   2.875   5.587   1.219  0.6354 -0.5448 -0.7368
   41MOL   H22915509   2.686   5.608   1.384  1.9416  0.3577  1.1581
   41MOL   C23015510   2.491   5.423   1.435 -0.3331  0.1771 -0.1859
   41MOL   C23115511   2.466   5.395   1.576 -0.7819 -0.6312 -0.2253
   41MOL   O23215512   2.494   5.528   1.532 -0.9379 -0.2483  0.1641
   41MOL   C23315513   2.576   5.336   1.675  0.4734 -0.2050 -0.1281
   41MOL   O23415514   2.523   5.349   1.808 -0.2253  0.2632 -0.2646
   41MOL   C23515515   2.532   5.474   1.874 -0.4186  0.6365  0.1654
   41MOL   C23615516   2.582   5.593   1.818 -0.0881 -0.7258  0.0231
   41MOL   C23715517   2.581   5.713   1.896 -0.8583  0.6247 -0.0038
   41MOL   C23815518   2.511   5.718   2.016  0.4500 -0.2429 -0.2530
   41MOL   C23915519   2.448   5.602   2.064 -0.4576 -0.0259 -0.5048
   41MOL   C24015520   2.464   5.479   1.999  0.1651 -0.3756 -0.1110
   41MOL   H24115521   2.399   5.421   1.377 -0.8981  1.5457  0.6369
   41MOL   H24215522   2.364   5.372   1.606 -0.8948  0.7784  0.5297
   41MOL   H24315523   2.680   5.367   1.663  0.6932 -0.1123  1.8300
   41MOL   H24415524   2.567   5.229   1.658 -1.1331 -0.3066  1.1865
   41MOL   H24515525   2.635   5.598   1.724 -0.5452  1.7207 -0.1353
   41MOL   H24615526   2.634   5.800   1.861  1.4265 -0.5576  0.4349
   41MOL   H24715527   2.511   5.809   2.075 -4.4378  0.1607 -0.6714
   41MOL   H24815528   2.410   5.620   2.163 -2.7063 -1.2249 -1.0988
   41MOL   C24915529   2.414   5.346   2.055  0.2880 -0.1915  0.4876
   41MOL   C25015530   2.501   5.246   2.123 -0.3697 -0.1135  0.9268
   41MOL   O25115531   2.419   5.336   2.195  0.1792  0.4874  0.2867
   41MOL   C25215532   2.655   5.262   2.145 -0.0922 -0.1979  0.1686
   41MOL   O25315533   2.717   5.136   2.172 -0.1210 -0.5448  0.1281
   41MOL   C25415534   2.702   5.077   2.296 -0.9326 -0.0823 -0.0847
   41MOL   C25515535   2.623   5.130   2.400 -0.0084 -0.2179 -0.4479
   41MOL   C25615536   2.601   5.052   2.514 -0.6067  0.8153 -0.2377
   41MOL   C25715537   2.638   4.914   2.517  0.1380 -0.2030 -0.7729
   41MOL   C25815538   2.729   4.863   2.420 -0.6870  0.4689 -0.2042
   41MOL   C25915539   2.758   4.946   2.308 -0.6230 -0.4884 -0.0909
   41MOL   H26015540   2.312   5.324   2.022  0.3229 -2.2572  1.6383
   41MOL   H26115541   2.472   5.141   2.133  1.9526 -0.7004  1.7299
   41MOL   H26215542   2.680   5.345   2.212 -0.6858  1.2012 -1.3057
   41MOL   H26315543   2.696   5.313   2.058  0.3246 -1.3649 -0.3183
   41MOL   H26415544   2.581   5.229   2.385 -0.4563 -0.1585  1.1258
   41MOL   H26515545   2.545   5.099   2.594  1.6128  4.6208 -0.8142
   41MOL   H26615546   2.609   4.853   2.601  1.3939  0.1086 -0.1055
   41MOL   H26715547   2.750   4.758   2.415 -0.2789  0.6444 -3.2783
   41MOL   C26815548   2.829   4.884   2.199 -0.5049 -0.7644  0.8560
   41MOL   C26915549   2.975   4.913   2.166 -0.6296 -0.2433 -1.0128
   41MOL   O27015550   2.937   4.799   2.239  0.6299 -0.1183  0.3024
   41MOL   C27115551   3.077   5.010   2.230  0.5405  0.4208  0.2425
   41MOL   O27215552   3.205   4.962   2.193 -0.3243  0.2121  0.3009
   41MOL   C27315553   3.314   5.035   2.238 -0.2894 -0.3210 -0.0269
   41MOL   C27415554   3.318   5.161   2.301  0.3989  0.2697  0.3243
   41MOL   C27515555   3.437   5.221   2.346 -0.0683 -0.0663  0.1269
   41MOL   C27615556   3.560   5.166   2.320  0.0714  0.2126  0.6337
   41MOL   C27715557   3.555   5.051   2.237  0.3895  0.3497 -0.3265
   41MOL   C27815558   3.441   4.985   2.194  0.2426 -0.4539  0.1197
   41MOL   H27915559   2.764   4.843   2.122 -0.5096 -1.0930  1.0316
   41MOL   H28015560   3.006   4.890   2.065 -1.9802  0.6435 -1.6356
   41MOL   H28115561   3.061   5.013   2.337 -0.2102  0.1857  0.1436
   41MOL   H28215562   3.056   5.108   2.186  0.6171  1.2030  1.9031
   41MOL   H28315563   3.224   5.208   2.323 -0.4592 -0.6287 -1.2756
   41MOL   H28415564   3.439   5.316   2.399  1.1993 -1.2210  2.2282
   41MOL   H28515565   3.654   5.209   2.352  0.3501  0.6691 -0.7582
   41MOL   H28615566   3.650   5.008   2.209 -0.0209  1.1805 -3.1216
   41MOL   C28715567   3.458   4.862   2.112  0.8401  0.1546  0.0981
   41MOL   C28815568   3.412   4.841   1.973  0.1001 -0.1613  0.6443
   41MOL   O28915569   3.549   4.868   2.004  1.2629  0.4532  0.0751
   41MOL   C29015570   3.334   4.947   1.904  0.2797  0.3532 -0.5686
   41MOL   O29115571   3.306   4.912   1.768  0.0660  0.3491 -0.3246
   41MOL   C29215572   3.179   4.864   1.740 -0.1802  0.2728  0.1466
   41MOL   C29315573   3.093   4.780   1.818 -0.1344 -0.7382  0.7222
   41MOL   C29415574   2.962   4.751   1.771  0.3187  0.2301  0.2264
   41MOL   C29515575   2.911   4.798   1.646 -0.5202 -0.0280 -0.3247
   41MOL   C29615576   2.989   4.897   1.575  0.6579 -0.5694  0.2868
   41MOL   C29715577   3.117   4.932   1.625 -1.1170  0.0636 -0.8892
   41MOL   H29815578   3.453   4.774   2.177 -1.7600 -1.0431 -1.6324
   41MOL   H29915579   3.391   4.742   1.935  1.7694  1.1576 -4.0924
   41MOL   H30015580   3.393   5.038   1.910 -0.0562  0.4415  2.1720
   41MOL   H30115581   3.243   4.955   1.964 -0.0583 -1.3624 -0.8228
   41MOL   H30215582   3.130   4.749   1.915 -3.7327 -2.7484  1.5213
   41MOL   H30315583   2.892   4.703   1.837 -1.0411 -0.5779 -1.7463
   41MOL   H30415584   2.810   4.776   1.617 -0.4997 -0.5091 -0.0283
   41MOL   H30515585   2.946   4.938   1.485  0.1404 -2.7313 -0.4856
   41MOL   C30615586   3.211   5.023   1.546  0.0834 -0.6017 -0.4527
   41MOL   C30715587   3.271   4.978   1.418 -0.6295  0.7806 -0.9638
   41MOL   O30815588   3.150   5.061   1.425 -0.4178  0.2661  0.3073
   41MOL   C30915589   3.255   4.835   1.366  0.1065 -0.0224  0.5452
   41MOL   O31015590   3.297   4.828   1.228 -0.2447 -0.3212  0.3288
   41MOL   C31115591   3.228   4.899   1.130  0.1041  0.0262 -0.0548
   41MOL   C31215592   3.101   4.954   1.155  1.0474 -0.1782 -0.5848
   41MOL   C31315593   3.037   5.034   1.059  0.3980  0.5788  0.3055
   41MOL   C31415594   3.101   5.064   0.938 -0.3916  0.3024  0.2079
   41MOL   C31515595   3.227   5.009   0.908  0.3437 -1.1269  0.4561
   41MOL   C31615596   3.284   4.914   1.001  0.2122  0.3550 -0.1732
   41MOL   H31715597   3.259   5.100   1.606 -1.1331 -0.0712 -0.1493
   41MOL   H31815598   3.361   5.027   1.383 -1.2139  0.1994 -3.4256
   41MOL   H31915599   3.166   4.783   1.401  0.3821  0.4060  1.8828
   41MOL   H32015600   3.320   4.770   1.424  0.1527 -2.0900 -1.7259
   41MOL   H32115601   3.046   4.942   1.247 -2.6868  1.3394 -2.5133
   41MOL   H32215602   2.945   5.087   1.078 -0.3742 -0.4172 -0.6038
   41MOL   H32315603   3.050   5.132   0.872  0.7032  1.9864  1.0574
   41MOL   H32415604   3.279   5.024   0.815  1.8563  3.3408  1.9043
   41MOL   C32515605   3.411   4.847   0.973 -0.2309 -0.0041 -0.2146
   41MOL   C32615606   3.428   4.725   0.890 -0.4309 -0.1398  0.4158
   41MOL   O32715607   3.441   4.855   0.833 -0.2561 -0.1971 -0.6094
   41MOL   C32815608   3.306   4.645   0.829 -0.4603  0.3177  0.3997
   41MOL   O32915609   3.352   4.583   0.711  0.1909 -0.3623  0.0975
   41MOL   C33015610   3.271   4.476   0.680  0.5360 -0.0911 -0.4664
   41MOL   C33115611   3.240   4.372   0.775 -0.5306 -1.2068  0.4128
   41MOL   C33215612   3.155   4.269   0.741  0.1395 -1.0411 -0.0755
   41MOL   C33315613   3.099   4.262   0.617 -0.1398  0.0621  0.5262
   41MOL   C33415614   3.126   4.356   0.522  0.5660  0.2972 -0.3218
   41MOL   C33515615   3.221   4.458   0.547 -0.7387 -0.3653  0.5735
   41MOL   H33615616   3.487   4.880   1.043 -1.3192  1.5513  0.2651
   41MOL   H33715617   3.529   4.685   0.880 -0.2235 -0.0101  1.8670
   41MOL   H33815618   3.220   4.699   0.790 -1.0540 -1.3884 -0.7016
   41MOL   H33915619   3.279   4.586   0.916 -3.1970  0.6572 -0.1657
   41MOL   H34015620   3.280   4.373   0.875  0.7238  1.1630 -0.0526
   41MOL   H34115621   3.139   4.187   0.809  0.7876  0.0159  1.3754
   41MOL   H34215622   3.028   4.184   0.596 -0.2550  0.5274 -0.8315
   41MOL   H34315623   3.090   4.339   0.421  0.3523  1.7982 -0.5101
   41MOL   C34415624   3.245   4.560   0.434 -0.0754  0.0777 -0.0453
   41MOL   C34515625   3.373   4.564   0.346  0.2583 -0.1148  0.8244
   41MOL   O34615626   3.252   4.505   0.303  0.0474  0.6701  0.0904
   41MOL   C34715627   3.483   4.464   0.363  0.5860  0.5292 -0.0928
   41MOL   O34815628   3.537   4.445   0.238  0.4533 -0.2752  0.7871
   41MOL   C34915629   3.622   4.338   0.225 -0.7638 -0.3315 -0.1027
   41MOL   C35015630   3.726   4.316   0.315 -0.4421  0.5552 -0.0778
   41MOL   C35115631   3.818   4.210   0.285 -0.0636  0.1997 -0.0332
   41MOL   C35215632   3.800   4.130   0.168 -0.1354 -0.6017  0.5199
   41MOL   C35315633   3.693   4.155   0.081 -0.5193  0.0873  0.1309
   41MOL   C35415634   3.606   4.266   0.107 -0.0500  0.1854 -0.6808
   41MOL   H35515635   3.176   4.641   0.456 -0.9502 -1.4480  3.1348
   41MOL   H35615636   3.402   4.663   0.312  0.6870 -0.6759 -0.4594
   41MOL   H35715637   3.436   4.371   0.395 -0.3896  1.0907  0.1344
   41MOL   H35815638   3.562   4.505   0.425  0.5678 -0.8591  0.8775
   41MOL   H35915639   3.741   4.376   0.404 -0.5863 -0.2680  0.5144
   41MOL   H36015640   3.901   4.185   0.349 -0.0204 -0.3988 -0.3184
   41MOL   H36115641   3.876   4.054   0.151  0.0030 -0.1827 -0.7610
   41MOL   H36215642   3.677   4.099   8.161 -1.1928  0.9076 -0.2671
   41MOL   C36315643   3.496   4.307   0.005 -0.3800  0.0346  0.3784
   41MOL   C36415644   3.515   4.423   8.088 -0.6781  0.1966 -0.4436
   41MOL   O36515645   3.540   4.291   8.036 -0.0137  0.1749  0.5822
   41MOL   C36615646   3.627   4.523   8.104  0.8660  0.1874 -0.4425
   41MOL   O36715647   3.614   4.629   0.033  0.0399 -0.1472  0.0964
   41MOL   C36815648   3.709   4.732   0.025 -0.8169 -0.4046 -0.1974
   41MOL   C36915649   3.722   4.818   0.139 -0.5728 -0.2303 -0.3894
   41MOL   C37015650   3.807   4.931   0.138 -0.1014  0.5016  0.2582
   41MOL   C37115651   3.888   4.957   0.028 -0.0920  0.3387  0.2056
   41MOL   C37215652   3.878   4.868   8.086  0.2503 -0.2085 -0.3208
   41MOL   C37315653   3.788   4.760   8.077  0.6193 -0.5833 -0.3493
   41MOL   H37415654   3.402   4.259   0.028 -0.1680 -0.7316 -0.3299
   41MOL   H37515655   3.431   4.475   8.044  0.3330  1.1114 -1.3299
   41MOL   H37615656   3.628   4.578   8.010  0.2666  0.0094 -0.5584
   41MOL   H37715657   3.719   4.466   8.115  0.4531 -0.5296 -0.6579
   41MOL   H37815658   3.658   4.799   0.224  0.1474 -0.2329  0.1526
   41MOL   H37915659   3.809   4.998   0.223 -0.4872 -0.1371  0.7701
   41MOL   H38015660   3.959   5.039   0.022 -1.7005  1.8125  0.8549
   41MOL   H38115661   3.942   4.892   8.003  2.0463  3.1298  1.9197
   41MOL   H38215662   3.787   4.710   7.981  0.7573 -0.6308 -0.3266
   42MOL     C115663   0.432   4.571   0.040  0.1868  0.5077 -0.1324
   42MOL     C215664   0.294   4.614   0.081 -0.2178  0.3531  0.2265
   42MOL     O315665   0.403   4.648   0.159 -0.2371  0.4269 -0.3150
   42MOL     C415666   0.198   4.518   0.138 -0.1277  0.6340  0.0319
   42MOL     O515667   0.236   4.385   0.093 -0.6735 -0.2006 -0.4190
   42MOL     C615668   0.170   4.278   0.145  0.2859 -0.2236 -0.5964
   42MOL     C715669   0.087   4.283   0.260 -0.5507  0.2976  0.0118
   42MOL     C815670   0.010   4.172   0.301 -0.4117 -0.5554 -0.2979
   42MOL     C915671   0.030   4.056   0.232 -0.3557  0.7831  0.4585
   42MOL    C1015672   0.116   4.047   0.117  0.1495 -0.3734 -0.3252
   42MOL    C1115673   0.187   4.156   0.077 -0.2267  0.3327  0.3314
   42MOL    H1215674   0.474   4.639   8.136  0.1624  1.4350  0.7015
   42MOL    H1315675   0.256   4.700   0.026 -1.2843 -0.5645 -0.5117
   42MOL    H1415676   0.091   4.539   0.139 -0.1735  0.4533 -0.5361
   42MOL    H1515677   0.220   4.522   0.244  1.3179  1.3949 -0.2849
   42MOL    H1615678   0.069   4.380   0.304  0.1099  0.3217  0.2241
   42MOL    H1715679   8.115   4.186   0.386 -1.4668  0.0226 -1.1886
   42MOL    H1815680   8.159   3.967   0.278  1.0618 -0.5261 -0.8003
   42MOL    H1915681   0.124   3.958   0.056  1.7929  0.5626 -1.5139
   42MOL    H2015682   0.481   4.475   0.057  1.8512  1.4301  0.3395
   42MOL    C2115683   0.274   4.147   8.130 -0.3986 -0.1228 -0.4197
   42MOL    C2215684   0.410   4.091   8.144 -0.2606  0.1598 -0.1916
   42MOL    O2315685   0.300   4.008   8.099  0.0883 -0.5183  0.5472
   42MOL    C2415686   0.470   4.029   0.104 -0.6335  0.2609  0.0770
   42MOL    O2515687   0.558   3.925   0.076 -0.3193  0.3937  0.1582
   42MOL    C2615688   0.538   3.820   0.163 -0.4866 -0.2442 -0.1442
   42MOL    C2715689   0.552   3.832   0.307  0.4648  0.1677 -0.9846
   42MOL    C2815690   0.547   3.718   0.392 -0.2480 -0.3758 -0.0324
   42MOL    C2915691   0.521   3.593   0.339 -0.1880  0.1467 -0.0746
   42MOL    C3015692   0.515   3.574   0.198  0.1598  0.1706 -0.3777
   42MOL    C3115693   0.532   3.688   0.108 -0.0409 -0.1130 -0.0915
   42MOL    H3215694   0.262   4.222   8.052 -1.3167  0.6165  0.4144
   42MOL    H3315695   0.480   4.119   8.065  0.2129 -1.7125 -0.4627
   42MOL    H3415696   0.384   3.988   0.156 -1.0179  0.8045 -0.1285
   42MOL    H3515697   0.512   4.113   0.158 -0.3174  0.2092 -0.0832
   42MOL    H3615698   0.569   3.926   0.358 -0.5518 -0.7770  1.1498
   42MOL    H3715699   0.570   3.727   0.498  0.8965  0.8844 -0.3764
   42MOL    H3815700   0.532   3.504   0.398  1.9442 -0.7266 -1.7059
   42MOL    H3915701   0.510   3.472   0.161  0.1697  0.0614 -0.0828
   42MOL    C4015702   0.542   3.675   8.127  0.2499  0.9593  0.1224
   42MOL    C4115703   0.675   3.662   8.064 -0.0322 -0.5057  0.3966
   42MOL    O4215704   0.590   3.546   8.092  0.7960  0.1176  0.1340
   42MOL    C4315705   0.805   3.669   8.139 -0.3981  0.7388 -0.0722
   42MOL    O4415706   0.911   3.643   8.054 -0.1421  0.0602 -0.2413
   42MOL    C4515707   1.041   3.641   8.106  0.0130 -0.2028  0.0608
   42MOL    C4615708   1.068   3.671   0.074  0.0824  0.4662 -0.1140
   42MOL    C4715709   1.200   3.678   0.115 -0.1901  0.1631 -0.2107
   42MOL    C4815710   1.306   3.639   0.028  0.4737  0.0466 -0.1023
   42MOL    C4915711   1.282   3.605   8.059 -0.8036  0.0630  0.1777
   42MOL    C5015712   1.149   3.615   8.011 -0.3435  0.0238 -0.5901
   42MOL    H5115713   0.447   3.690   8.077  1.0596  0.5753 -1.5891
   42MOL    H5215714   0.674   3.704   7.964 -1.7924  0.0770  0.6600
   42MOL    H5315715   0.797   3.594   0.048  0.3605  1.0452  0.2960
   42MOL    H5415716   0.817   3.769   0.010 -0.1762  0.3479  0.8445
   42MOL    H5515717   0.990   3.693   0.145 -0.2226 -3.0721  0.7379
   42MOL    H5615718   1.230   3.700   0.216  0.4824  0.4653 -0.4714
   42MOL    H5715719   1.402   3.638   0.077  0.0223 -0.3297  0.7961
   42MOL    H5815720   1.370   3.581   8.001  0.4699  2.0802  1.2136
   42MOL    C5915721   1.116   3.584   7.867  0.2326 -0.2092  0.1743
   42MOL    C6015722   1.089   3.671   7.750 -0.2805  0.2807  0.7250
   42MOL    O6115723   1.218   3.622   7.774  0.0101 -0.2953  0.3239
   42MOL    C6215724   1.081   3.817   7.755  0.3378 -0.2288 -0.2828
   42MOL    O6315725   1.092   3.861   7.620 -0.6259 -0.1799 -0.4014
   42MOL    C6415726   1.089   3.999   7.596  0.1603  1.0422 -0.1329
   42MOL    C6515727   1.138   4.088   7.688 -0.0099 -1.0553  0.2210
   42MOL    C6615728   1.126   4.229   7.666 -0.1342  0.1993 -0.2469
   42MOL    C6715729   1.081   4.270   7.542 -0.1745 -0.6277 -0.6095
   42MOL    C6815730   1.038   4.183   7.444 -0.8262 -0.2026  0.5498
   42MOL    C6915731   1.052   4.046   7.469  0.2432  0.0012 -0.2239
   42MOL    H7015732   1.065   3.489   7.852 -3.3824  1.3574  1.8651
   42MOL    H7115733   1.033   3.621   7.671 -0.4318 -0.2499  1.1627
   42MOL    H7215734   1.168   3.849   7.812  0.7135  1.4342 -1.6989
   42MOL    H7315735   0.986   3.857   7.788 -0.6236 -1.1447 -1.8892
   42MOL    H7415736   1.176   4.059   7.785 -0.6487  1.9022  1.3962
   42MOL    H7515737   1.144   4.302   7.743  0.5811 -0.3657  0.1281
   42MOL    H7615738   1.069   4.375   7.520 -0.7692 -0.6938 -0.6225
   42MOL    H7715739   1.011   4.215   7.344  0.0588 -0.5484  0.2053
   42MOL    C7815740   1.026   3.944   7.362  0.4731  0.7169 -0.6429
   42MOL    C7915741   0.906   3.865   7.357  0.4796 -0.0715  0.6865
   42MOL    O8015742   0.924   3.984   7.278  0.6951  0.0827  0.5821
   42MOL    C8115743   0.799   3.884   7.470  1.1143  1.3542  0.4120
   42MOL    O8215744   0.744   3.758   7.510 -0.1268 -0.3675 -0.3251
   42MOL    C8315745   0.642   3.752   7.599 -0.0687  0.4537 -0.6998
   42MOL    C8415746   0.572   3.866   7.652 -0.7459  0.3617 -0.3124
   42MOL    C8515747   0.473   3.849   7.753  0.1648  0.4140 -0.0740
   42MOL    C8615748   0.436   3.720   7.797 -0.0816 -0.0699 -0.0690
   42MOL    C8715749   0.503   3.610   7.746 -0.1865  0.5867  0.3453
   42MOL    C8815750   0.605   3.624   7.649  0.0312  0.3892 -0.1363
   42MOL    H8915751   1.116   3.911   7.310  1.2692  2.8973 -0.7369
   42MOL    H9015752   0.914   3.772   7.301  0.1399  1.2253 -1.6240
   42MOL    H9115753   0.710   3.937   7.434 -1.0485 -0.8444  2.3199
   42MOL    H9215754   0.845   3.934   7.555  1.6214  1.3884  0.1145
   42MOL    H9315755   0.579   3.969   7.619 -1.3391  0.5663  0.2063
   42MOL    H9415756   0.429   3.937   7.798  0.0938 -0.7474  2.1774
   42MOL    H9515757   0.361   3.720   7.875  0.6356  0.0402  0.6233
   42MOL    H9615758   0.474   3.513   7.786 -0.6477  0.2600 -0.7503
   42MOL    C9715759   0.682   3.513   7.589  1.0062  0.1161 -0.4905
   42MOL    C9815760   0.755   3.414   7.680 -0.3250  0.0334  0.1694
   42MOL    O9915761   0.624   3.390   7.626 -0.3401  0.3552 -0.7572
   42MOL   C10015762   0.771   3.426   7.826 -0.2458  0.0945 -0.1787
   42MOL   O10115763   0.840   3.318   7.879 -0.2235 -0.4178  0.2676
   42MOL   C10215764   0.771   3.215   7.934 -0.5554 -0.0956 -0.3387
   42MOL   C10315765   0.647   3.169   7.878  0.6437  0.3331  0.6141
   42MOL   C10415766   0.574   3.068   7.938  0.2809  0.7470 -0.5191
   42MOL   C10515767   0.622   3.005   8.055  0.4628 -0.2037 -0.1308
   42MOL   C10615768   0.746   3.044   8.106  0.1570 -0.5472  0.5171
   42MOL   C10715769   0.818   3.148   8.046 -0.5572 -0.4024 -0.1682
   42MOL   H10815770   0.705   3.508   7.483  2.5917 -1.5400 -0.0843
   42MOL   H10915771   0.839   3.355   7.643  0.1262  2.2835 -2.5976
   42MOL   H11015772   0.675   3.448   7.875 -0.8182 -2.5904 -0.0201
   42MOL   H11115773   0.825   3.518   7.844 -1.9651  1.1038 -0.0465
   42MOL   H11215774   0.593   3.216   7.797 -2.0110  0.6535  2.5164
   42MOL   H11315775   0.476   3.046   7.898  1.1872  0.6075 -2.7601
   42MOL   H11415776   0.564   2.930   8.108 -2.0143  0.6926 -1.5283
   42MOL   H11515777   0.773   3.007   0.034  2.0847  2.7030  1.2820
   42MOL   C11615778   0.945   3.207   8.106  0.1346  0.3694  0.5005
   42MOL   C11715779   0.952   3.277   0.071  0.1974  0.2396  0.2510
   42MOL   O11815780   0.981   3.143   0.054 -0.3040 -0.5960 -0.1675
   42MOL   C11915781   0.829   3.313   0.159  0.3369 -0.7231 -0.6894
   42MOL   O12015782   0.855   3.374   0.290 -0.5034 -0.4010  0.1139
   42MOL   C12115783   0.944   3.317   0.383 -0.1679  0.8129  0.2764
   42MOL   C12215784   0.997   3.188   0.372  0.1670  0.7832  0.0496
   42MOL   C12315785   1.090   3.139   0.467  0.3959 -0.1905  0.2955
   42MOL   C12415786   1.125   3.220   0.576 -0.1249 -0.5405 -0.0213
   42MOL   C12515787   1.072   3.350   0.594 -0.4520 -0.6406  0.0447
   42MOL   C12615788   0.983   3.400   0.497 -0.1550 -0.4729  0.0911
   42MOL   H12715789   1.024   3.222   8.034 -0.9583 -1.9202 -1.2380
   42MOL   H12815790   1.041   3.336   0.091 -0.1358  0.7339  0.2695
   42MOL   H12915791   0.775   3.220   0.172  0.7285 -1.2859 -2.9493
   42MOL   H13015792   0.763   3.379   0.103 -0.1181 -2.4105 -2.1908
   42MOL   H13115793   0.966   3.127   0.288 -1.6013  0.6597  0.7639
   42MOL   H13215794   1.139   3.043   0.462  0.9220  0.0699  0.4385
   42MOL   H13315795   1.197   3.191   0.651  0.6762 -1.0809 -0.9842
   42MOL   H13415796   1.106   3.399   0.684 -0.2706 -1.1443  0.2482
   42MOL   C13515797   0.938   3.541   0.500  0.0726  0.0298 -0.2136
   42MOL   C13615798   0.815   3.580   0.572 -0.0121  0.0792 -0.2469
   42MOL   O13715799   0.943   3.603   0.630  0.7561 -0.3580 -0.4383
   42MOL   C13815800   0.728   3.476   0.648 -0.6555 -0.1961 -0.0709
   42MOL   O13915801   0.613   3.525   0.705  0.5296 -0.2611  0.1205
   42MOL   C14015802   0.622   3.576   0.833 -0.2139  0.0709 -0.1330
   42MOL   C14115803   0.733   3.628   0.891  0.2535  0.3526 -0.6021
   42MOL   C14215804   0.731   3.669   1.031  0.2653 -0.0584  0.1082
   42MOL   C14315805   0.607   3.658   1.108  0.1049  0.0138  0.2780
   42MOL   C14415806   0.492   3.612   1.041  0.1814 -0.0001 -0.1909
   42MOL   C14515807   0.502   3.563   0.906  0.2776 -0.4746 -0.0510
   42MOL   H14615808   0.971   3.599   0.414  3.1473 -1.0169  0.1948
   42MOL   H14715809   0.763   3.666   0.532 -0.7451 -0.6737 -0.9484
   42MOL   H14815810   0.787   3.420   0.721  1.7199  0.1164 -1.6948
   42MOL   H14915811   0.697   3.394   0.582 -2.4145 -0.5698  1.1877
   42MOL   H15015812   0.828   3.639   0.842 -0.4588  1.3378 -1.7841
   42MOL   H15115813   0.820   3.712   1.075 -0.1588  0.4061  0.5136
   42MOL   H15215814   0.606   3.688   1.212 -1.0295  0.1090  0.2418
   42MOL   H15315815   0.398   3.611   1.094 -0.2038  0.5900 -0.8578
   42MOL   C15415816   0.388   3.504   0.841 -0.0298 -0.4981  0.4355
   42MOL   C15515817   0.366   3.357   0.829 -0.4842  0.1072 -0.0008
   42MOL   O15615818   0.297   3.437   0.927  0.4665 -0.3576 -0.0695
   42MOL   C15715819   0.458   3.250   0.886  0.1822 -0.3649 -0.4091
   42MOL   O15815820   0.397   3.122   0.857 -0.2202  1.1694  0.4142
   42MOL   C15915821   0.443   3.025   0.934  0.0512  0.5414 -0.5339
   42MOL   C16015822   0.565   3.021   0.998  0.4187  0.0139 -0.2860
   42MOL   C16115823   0.589   2.911   1.084  0.4933 -0.1249 -0.6181
   42MOL   C16215824   0.493   2.811   1.104 -0.1708 -0.1973 -0.3290
   42MOL   C16315825   0.374   2.813   1.029 -0.0689  0.1382  1.2405
   42MOL   C16415826   0.346   2.921   0.938  0.2001  0.8574 -0.1075
   42MOL   H16515827   0.346   3.570   0.766 -0.3038 -0.6021  0.4985
   42MOL   H16615828   0.303   3.328   0.746  0.4374 -0.6904 -0.4408
   42MOL   H16715829   0.466   3.276   0.991  0.1972  0.5636 -0.6334
   42MOL   H16815830   0.553   3.256   0.833  0.3232 -1.0753 -0.2397
   42MOL   H16915831   0.638   3.101   0.996  0.9641 -0.4892 -1.0984
   42MOL   H17015832   0.684   2.916   1.135 -0.1954  0.9837  0.6105
   42MOL   H17115833   0.524   2.726   1.164 -0.2895  0.7917  1.1576
   42MOL   H17215834   0.310   2.726   1.035 -0.4552  0.3007 -0.3945
   42MOL   C17315835   0.221   2.922   0.860  0.0072 -0.2968  0.0007
   42MOL   C17415836   0.231   2.910   0.713 -0.0362  0.7593  0.1505
   42MOL   O17515837   0.186   2.801   0.795 -0.0386 -0.4259 -0.3422
   42MOL   C17615838   0.358   2.880   0.642  0.1707  0.2195  0.5896
   42MOL   O17715839   0.346   2.894   0.502 -0.0764 -0.0959  0.6047
   42MOL   C17815840   0.350   3.021   0.448  0.4113  0.3458 -0.0146
   42MOL   C17915841   0.350   3.144   0.517  0.1773 -0.5262  0.2938
   42MOL   C18015842   0.346   3.267   0.449  0.4220  0.4691 -0.5953
   42MOL   C18115843   0.365   3.270   0.306  0.4253 -0.1372 -0.3651
   42MOL   C18215844   0.364   3.146   0.241  0.0602  0.0225 -0.3379
   42MOL   C18315845   0.360   3.024   0.309 -0.5924  0.4008  0.1501
   42MOL   H18415846   0.139   2.978   0.905  1.9578 -0.0913  3.4909
   42MOL   H18515847   0.154   2.971   0.666 -1.2705  1.5338  3.0651
   42MOL   H18615848   0.393   2.781   0.671 -0.0328 -0.5925 -1.8059
   42MOL   H18715849   0.439   2.947   0.669  0.3913  1.1065 -2.0650
   42MOL   H18815850   0.357   3.138   0.625  2.0125  0.1425  0.2333
   42MOL   H18915851   0.336   3.358   0.505 -1.0394  1.1507 -1.9379
   42MOL   H19015852   0.378   3.360   0.247 -0.0624  0.3014  0.1893
   42MOL   H19115853   0.382   3.145   0.134 -0.1766 -1.8170 -0.3902
   42MOL   C19215854   0.380   2.896   0.229  0.2648  0.2796  0.3175
   42MOL   C19315855   0.277   2.792   0.211  0.0585  0.2816  0.4443
   42MOL   O19415856   0.300   2.892   0.111 -0.2449 -0.0765 -0.4019
   42MOL   C19515857   0.142   2.806   0.285 -0.0718  0.1331 -0.1957
   42MOL   O19615858   0.067   2.689   0.257 -0.3801  0.4510  0.1921
   42MOL   C19715859   8.127   2.707   0.177  0.4838 -0.6926 -0.3176
   42MOL   C19815860   8.132   2.794   0.067  0.3785  0.2453  0.6259
   42MOL   C19915861   8.019   2.838   8.162 -0.8583  0.3093 -0.4240
   42MOL   C20015862   7.895   2.778   0.038  0.2496 -0.2109  0.8580
   42MOL   C20115863   7.886   2.686   0.139  0.0760  0.2149  0.0521
   42MOL   C20215864   8.002   2.650   0.209 -0.5586  0.0500 -0.1949
   42MOL   H20315865   0.484   2.866   0.219  0.8900  2.7602 -1.1344
   42MOL   H20415866   0.293   2.699   0.157  2.1655  0.1863  1.1931
   42MOL   H20515867   0.092   2.902   0.273 -4.1709 -1.7217  1.0265
   42MOL   H20615868   0.153   2.799   0.393 -1.5115 -0.0379 -0.0434
   42MOL   H20715869   0.056   2.842   0.045 -1.6071  4.0933  0.0583
   42MOL   H20815870   8.024   2.917   8.089  0.0415  2.4074  1.8311
   42MOL   H20915871   7.807   2.814   8.156 -0.1213 -1.2745  0.7434
   42MOL   H21015872   7.792   2.638   0.160  0.7884 -0.6897  1.2379
   42MOL   C21115873   8.011   2.549   0.324 -0.4476 -0.4629  0.2277
   42MOL   C21215874   8.006   2.602   0.466  0.1028 -0.1767  0.1930
   42MOL   O21315875   7.888   2.552   0.402  0.1799  0.3618 -0.2006
   42MOL   C21415876   7.981   2.747   0.508 -0.3515  0.5056 -0.6144
   42MOL   O21515877   7.926   2.745   0.642 -0.3779 -0.5374  0.2347
   42MOL   C21615878   7.921   2.865   0.706  0.8966  0.2585  0.4131
   42MOL   C21715879   7.942   2.991   0.645 -0.0968 -0.2895 -0.2472
   42MOL   C21815880   7.951   3.110   0.716  0.3849  0.2798 -0.3987
   42MOL   C21915881   7.939   3.100   0.856 -0.7004  0.6218 -0.3491
   42MOL   C22015882   7.901   2.985   0.917 -0.2312 -0.7664 -0.7217
   42MOL   C22115883   7.897   2.858   0.846 -0.1527  0.1417  1.0443
   42MOL   H22215884   8.026   2.448   0.287  1.3961 -0.0438 -0.2266
   42MOL   H22315885   8.042   2.537   0.545  1.0103  2.0481  1.6656
   42MOL   H22415886   7.912   2.795   0.438 -2.9617  0.5876  1.9293
   42MOL   H22515887   8.067   2.814   0.514  0.4250 -0.3122 -2.2386
   42MOL   H22615888   7.950   3.011   0.539  0.7116 -1.8189 -0.4962
   42MOL   H22715889   7.951   3.209   0.674 -2.3215  1.2393  1.7566
   42MOL   H22815890   7.955   3.186   0.919  1.5904  0.4964 -0.7206
   42MOL   H22915891   7.902   2.990   1.025  1.4026 -3.2592 -0.6018
   42MOL   C23015892   7.859   2.729   0.915  0.1325  0.2789 -0.2009
   42MOL   C23115893   7.961   2.623   0.939  0.3691 -0.6964 -0.4163
   42MOL   O23215894   7.913   2.716   1.044  0.0736  0.3233 -0.0293
   42MOL   C23315895   8.101   2.624   0.908 -0.8388  0.6442  0.0480
   42MOL   O23415896   8.168   2.536   0.995  0.2077  0.6621 -0.0231
   42MOL   C23515897   0.051   2.583   1.113 -0.0531 -0.0194 -0.3656
   42MOL   C23615898   0.028   2.716   1.160 -0.0052  0.4520 -0.2877
   42MOL   C23715899   0.098   2.774   1.263  0.6163 -0.2663  0.4154
   42MOL   C23815900   0.179   2.691   1.342 -0.0137  0.1897 -0.2460
   42MOL   C23915901   0.190   2.554   1.317  0.0968 -0.8302  0.3297
   42MOL   C24015902   0.130   2.502   1.195 -0.2884 -0.0295 -0.8541
   42MOL   H24115903   7.761   2.686   0.895  1.4621 -2.3571 -1.2806
   42MOL   H24215904   7.913   2.526   0.937 -2.4510  0.6805 -1.5934
   42MOL   H24315905   8.149   2.721   0.894 -1.6101  0.9134 -0.7454
   42MOL   H24415906   8.106   2.569   0.815 -1.5210 -2.1655  1.6242
   42MOL   H24515907   8.140   2.787   1.103 -1.4173 -1.7385 -1.6767
   42MOL   H24615908   0.076   2.876   1.287  0.3388 -0.1732 -0.2314
   42MOL   H24715909   0.230   2.730   1.429  2.3033 -0.6642 -1.1865
   42MOL   H24815910   0.235   2.485   1.388 -1.7337 -0.6197  1.7475
   42MOL   C24915911   0.127   2.353   1.164  0.6272  0.1672 -0.2698
   42MOL   C25015912   0.234   2.299   1.076  0.3541  0.0749 -0.3883
   42MOL   O25115913   0.240   2.296   1.217  0.3548 -0.7430  0.1175
   42MOL   C25215914   0.346   2.384   1.017  0.0533 -0.1034  0.4213
   42MOL   O25315915   0.467   2.311   1.000 -0.1295  0.2520 -0.1645
   42MOL   C25415916   0.552   2.368   0.910  0.6982 -0.8695 -0.0140
   42MOL   C25515917   0.557   2.511   0.884  0.1994 -0.5482  0.1005
   42MOL   C25615918   0.646   2.567   0.797 -0.6557  0.4691  0.0927
   42MOL   C25715919   0.745   2.490   0.737 -0.2152  0.4965  0.7188
   42MOL   C25815920   0.740   2.348   0.758  0.5982  0.0225  0.4645
   42MOL   C25915921   0.641   2.287   0.840 -0.0578 -0.6156 -0.6792
   42MOL   H26015922   0.033   2.302   1.185  1.9024 -2.2210 -0.2030
   42MOL   H26115923   0.200   2.210   1.024  2.0887 -1.2883  0.7555
   42MOL   H26215924   0.368   2.476   1.071 -1.2011 -0.0298  0.8228
   42MOL   H26315925   0.318   2.423   0.919 -1.2350 -1.1187  0.3711
   42MOL   H26415926   0.481   2.580   0.919 -0.6844 -1.3643 -0.1762
   42MOL   H26515927   0.637   2.672   0.776  0.3592  0.6292  0.4510
   42MOL   H26615928   0.816   2.538   0.671  2.2752 -4.1574 -0.1872
   42MOL   H26715929   0.810   2.279   0.713 -0.0236 -0.1819 -0.2093
   42MOL   C26815930   0.650   2.136   0.861  0.0061 -0.2694 -0.4796
   42MOL   C26915931   0.533   2.043   0.826 -0.3556  0.9543  0.1582
   42MOL   O27015932   0.648   2.062   0.742 -0.4320  0.0049  0.3047
   42MOL   C27115933   0.392   2.083   0.774 -0.2124  0.2542  0.5413
   42MOL   O27215934   0.306   1.976   0.809 -0.5927 -0.0263  0.1365
   42MOL   C27315935   0.172   1.999   0.811  0.0721 -0.0036  0.0105
   42MOL   C27415936   0.107   2.121   0.780 -0.0386  0.2883 -0.0416
   42MOL   C27515937   8.142   2.139   0.808 -0.2635  0.0687  0.1254
   42MOL   C27615938   8.065   2.032   0.846  0.3666  0.6916  0.2874
   42MOL   C27715939   8.120   1.909   0.883  0.5119  0.5212  0.5966
   42MOL   C27815940   0.084   1.891   0.846  0.7802 -0.1903  0.0685
   42MOL   H27915941   0.737   2.103   0.917 -0.3022 -0.2953 -0.0124
   42MOL   H28015942   0.544   1.947   0.875 -2.5102  0.0630 -1.0701
   42MOL   H28115943   0.395   2.095   0.666 -1.7383  1.8460  0.6640
   42MOL   H28215944   0.376   2.176   0.829 -1.2940  0.5277 -0.2391
   42MOL   H28315945   0.167   2.208   0.758  1.6688 -0.4932  1.3383
   42MOL   H28415946   8.083   2.228   0.791 -2.2423 -0.7694  2.3385
   42MOL   H28515947   7.959   2.043   0.864  0.5703  0.8254  1.4516
   42MOL   H28615948   8.054   1.836   0.927  2.1133 -0.6668  1.0684
   42MOL   C28715949   0.134   1.755   0.884 -0.1993 -0.3126 -0.9056
   42MOL   C28815950   0.179   1.655   0.779  0.2649 -0.7287  0.2345
   42MOL   O28915951   0.271   1.728   0.859 -0.2474 -0.0640 -0.0680
   42MOL   C29015952   0.168   1.681   0.628 -0.2794 -0.6475 -0.8380
   42MOL   O29115953   0.276   1.629   0.553  0.4607  1.5123  0.3710
   42MOL   C29215954   0.343   1.711   0.466 -0.2264  0.2877 -0.0881
   42MOL   C29315955   0.267   1.762   0.362 -0.6484  0.2730  0.0681
   42MOL   C29415956   0.329   1.850   0.271  0.4925 -0.1012 -0.1929
   42MOL   C29515957   0.460   1.885   0.284  0.3277 -0.5606 -0.1489
   42MOL   C29615958   0.536   1.835   0.393  0.1329  0.2675  0.0140
   42MOL   C29715959   0.478   1.752   0.490 -0.0612  0.5917 -0.6955
   42MOL   H29815960   0.102   1.726   0.984  0.0878  1.3407 -0.3150
   42MOL   H29915961   0.173   1.548   0.798  2.6094 -1.2355 -1.5880
   42MOL   H30015962   0.165   1.790   0.619 -1.0514 -0.1535  3.8345
   42MOL   H30115963   0.068   1.662   0.589 -0.6187 -0.2588 -0.1754
   42MOL   H30215964   0.162   1.739   0.354 -0.5881  0.0159  0.0078
   42MOL   H30315965   0.273   1.893   0.189  0.4879 -0.6148 -0.4658
   42MOL   H30415966   0.504   1.963   0.224 -0.7367  0.2423  0.0993
   42MOL   H30515967   0.636   1.876   0.401  0.1328  0.3183 -0.2429
   42MOL   C30615968   0.552   1.690   0.604  0.3720 -0.0826  0.3743
   42MOL   C30715969   0.643   1.564   0.584 -0.5421  0.2169  0.3621
   42MOL   O30815970   0.695   1.696   0.593 -0.0402  0.2338  0.3675
   42MOL   C30915971   0.686   1.500   0.454  0.4729 -0.3399  0.0118
   42MOL   O31015972   0.827   1.464   0.442  0.3715  0.3739  0.3747
   42MOL   C31115973   0.870   1.381   0.342  0.2617  0.1962 -0.1191
   42MOL   C31215974   0.787   1.312   0.251 -0.7443 -0.6006  0.0729
   42MOL   C31315975   0.838   1.231   0.147  0.5807 -0.0175  0.1222
   42MOL   C31415976   0.978   1.211   0.134  0.0478  0.3826  0.1918
   42MOL   C31515977   1.063   1.267   0.233  0.1150 -0.9297  0.0597
   42MOL   C31615978   1.010   1.355   0.329 -0.0918  0.5768  0.4808
   42MOL   H31715979   0.517   1.725   0.701 -0.2407 -3.9672  1.6641
   42MOL   H31815980   0.664   1.510   0.676 -1.0537  2.6850  1.9873
   42MOL   H31915981   0.654   1.571   0.378 -0.2605  1.5855  2.0788
   42MOL   H32015982   0.626   1.408   0.451  3.2572 -2.1886 -1.5132
   42MOL   H32115983   0.681   1.325   0.270 -0.3383  2.6808  0.4664
   42MOL   H32215984   0.774   1.184   0.074 -0.2323  1.3068 -0.0419
   42MOL   H32315985   1.030   1.163   0.053 -1.6753  0.8455 -1.2094
   42MOL   H32415986   1.167   1.241   0.226  0.5850  0.5469  1.2457
   42MOL   C32515987   1.101   1.437   0.423  0.0034  0.3478  0.5396
   42MOL   C32615988   1.160   1.380   0.546 -0.9252 -0.1670 -0.4803
   42MOL   O32715989   1.238   1.400   0.433 -0.1022 -0.2735  0.4321
   42MOL   C32815990   1.140   1.237   0.590 -0.1977  1.2454 -0.3753
   42MOL   O32915991   1.222   1.236   0.704 -0.1809  0.1805  0.0437
   42MOL   C33015992   1.242   1.116   0.769  0.8167 -0.3144 -2.1991
   42MOL   C33115993   1.213   0.990   0.703  0.0887 -0.2275  0.0837
   42MOL   C33215994   1.228   0.863   0.765 -0.2773 -0.2273  0.1524
   42MOL   C33315995   1.282   0.857   0.899 -0.7408 -0.1591  0.5529
   42MOL   C33415996   1.310   0.979   0.965  0.1273  0.2560  0.0422
   42MOL   C33515997   1.300   1.106   0.898 -0.4651  0.8969 -0.1561
   42MOL   H33615998   1.093   1.546   0.430  0.8633  0.4453  0.0766
   42MOL   H33715999   1.184   1.446   0.629 -1.4483 -1.2841  0.5725
   42MOL   H33816000   1.172   1.170   0.510 -1.5836  0.1871 -0.0673
   42MOL   H33916001   1.037   1.228   0.625 -0.0977  1.3243 -0.0628
   42MOL   H34016002   1.167   0.989   0.606 -1.3548  2.5474  0.6603
   42MOL   H34116003   1.199   0.775   0.709  2.2586 -0.9342 -0.1258
   42MOL   H34216004   1.292   0.762   0.949  0.7865  0.1841  0.9413
   42MOL   H34316005   1.339   0.984   1.069 -1.7474 -2.1358  0.7333
   42MOL   C34416006   1.346   1.226   0.971 -0.4318  0.0508  0.3020
   42MOL   C34516007   1.262   1.338   1.018 -0.6217 -0.0755  0.5268
   42MOL   O34616008   1.301   1.238   1.109 -0.0639 -0.2708  0.3406
   42MOL   C34716009   1.112   1.346   0.990 -0.2970  0.2436 -0.0008
   42MOL   O34816010   1.065   1.442   1.083 -0.2126 -0.5407  0.0915
   42MOL   C34916011   0.994   1.551   1.032  0.0048  0.0408 -0.5299
   42MOL   C35016012   0.902   1.541   0.928  0.6589 -0.8874 -0.1051
   42MOL   C35116013   0.815   1.653   0.905 -0.6179  0.5399  0.6356
   42MOL   C35216014   0.829   1.777   0.968  0.0484 -0.0401  0.1064
   42MOL   C35316015   0.923   1.781   1.074 -0.9286 -0.2475  0.7429
   42MOL   C35416016   1.008   1.671   1.101  0.1805  0.7718 -0.7169
   42MOL   H35516017   1.453   1.235   0.958 -0.7976  0.2599 -2.9957
   42MOL   H35616018   1.316   1.432   1.018  0.8772 -0.9196 -1.5193
   42MOL   H35716019   1.077   1.243   0.998  4.0818 -1.3343  0.6681
   42MOL   H35816020   1.106   1.383   0.887  0.5216  1.7552  0.4803
   42MOL   H35916021   0.876   1.451   0.873 -2.0947 -1.4469  1.9557
   42MOL   H36016022   0.730   1.636   0.841 -1.0700  1.5558  0.9559
   42MOL   H36116023   0.759   1.858   0.954  0.1870  0.3418  1.5463
   42MOL   H36216024   0.939   1.876   1.124  1.9146 -1.7605  2.7793
   42MOL   C36316025   1.106   1.682   1.209 -0.1161 -0.3283  0.7494
   42MOL   C36416026   1.260   1.696   1.189  0.0960  0.0437 -0.3753
   42MOL   O36516027   1.177   1.811   1.210 -0.6770  0.7156  0.4989
   42MOL   C36616028   1.328   1.697   1.050  0.3412  0.4565 -0.7530
   42MOL   O36716029   1.248   1.665   0.933 -0.5036 -0.5746 -0.3790
   42MOL   C36816030   1.185   1.764   0.861  1.1446 -0.5159 -0.0729
   42MOL   C36916031   1.128   1.720   0.739 -0.3682 -0.0089  0.2566
   42MOL   C37016032   1.045   1.804   0.665 -0.2232 -0.4248 -0.2368
   42MOL   C37116033   1.026   1.938   0.713  0.0653  0.1198  0.2270
   42MOL   C37216034   1.080   1.987   0.833 -0.1913  0.4182 -0.4188
   42MOL   C37316035   1.163   1.894   0.904  0.5742 -0.0467  0.5716
   42MOL   H37416036   1.057   1.657   1.303  3.4977  1.4187  3.2526
   42MOL   H37516037   1.317   1.656   1.272  1.4098 -2.2300 -2.3242
   42MOL   H37616038   1.405   1.621   1.050 -0.4713 -0.3784 -1.7879
   42MOL   H37716039   1.390   1.786   1.040 -0.0299  1.1648  2.4804
   42MOL   H37816040   1.129   1.616   0.708 -1.3782  0.6576 -2.1206
   42MOL   H37916041   0.997   1.775   0.573 -1.1949  1.6354 -0.4166
   42MOL   H38016042   0.962   2.005   0.657  1.0754  0.5414 -0.4428
   42MOL   H38116043   1.070   2.091   0.862  0.3992 -0.2363  2.2795
   42MOL   H38216044   1.205   1.924   0.999 -2.0970  2.7402  0.9530
   43MOL     C116045   5.756   5.841   4.629 -0.5018 -1.0407  0.1730
   43MOL     C216046   5.901   5.845   4.592 -0.1582  0.6699 -0.2903
   43MOL     O316047   5.834   5.951   4.669  0.1870  0.3935 -0.1858
   43MOL     C416048   5.971   5.909   4.470 -0.7300  1.2161  0.2570
   43MOL     O516049   6.098   5.962   4.492 -0.1603  0.2336 -0.4488
   43MOL     C616050   6.201   5.868   4.516 -0.1263 -0.1332  0.4037
   43MOL     C716051   6.203   5.726   4.495  0.2226  0.0122  0.1533
   43MOL     C816052   6.321   5.652   4.511 -0.9666  0.2570  0.0089
   43MOL     C916053   6.444   5.715   4.546  0.6788  0.9104  0.4720
   43MOL    C1016054   6.437   5.849   4.593  0.1571  0.3443 -0.0434
   43MOL    C1116055   6.320   5.926   4.568  0.4546 -0.3596  0.0067
   43MOL    H1216056   5.723   5.783   4.715 -0.7200  0.1882  0.9337
   43MOL    H1316057   5.954   5.776   4.657 -0.3705  0.2824 -0.5240
   43MOL    H1416058   5.913   5.990   4.425  0.7416  2.0268 -0.2322
   43MOL    H1516059   5.966   5.840   4.386 -1.1948 -0.3555  1.5542
   43MOL    H1616060   6.117   5.675   4.455 -1.9607  3.4540  0.2861
   43MOL    H1716061   6.315   5.547   4.485 -1.9082  0.4858 -0.7413
   43MOL    H1816062   6.536   5.659   4.540  0.3320  0.5397 -1.5796
   43MOL    H1916063   6.531   5.898   4.615  0.1734 -0.1892  1.0905
   43MOL    H2016064   5.689   5.848   4.545 -1.7605  1.0743  1.3241
   43MOL    C2116065   6.325   6.077   4.581  0.0952 -0.6404  0.3461
   43MOL    C2216066   6.272   6.156   4.701  0.1624  0.0683 -0.1061
   43MOL    O2316067   6.412   6.120   4.691 -0.1978  0.0716 -0.4060
   43MOL    C2416068   6.192   6.082   4.806  0.4202 -0.5189 -0.1386
   43MOL    O2516069   6.174   6.144   4.935  0.0495  0.2596 -0.2597
   43MOL    C2616070   6.089   6.253   4.947 -0.3139  0.3162  0.2202
   43MOL    C2716071   6.001   6.304   4.849 -0.4409 -0.3266  0.5656
   43MOL    C2816072   5.925   6.419   4.874  0.2805  0.0901  1.0132
   43MOL    C2916073   5.933   6.488   4.997  0.0013  0.4225  0.2531
   43MOL    C3016074   6.015   6.439   5.096  0.4398  0.2592  0.6544
   43MOL    C3116075   6.097   6.325   5.071  0.5015 -0.3886  0.0235
   43MOL    H3216076   6.332   6.131   4.487 -0.1598  2.0522  1.8551
   43MOL    H3316077   6.252   6.262   4.686 -2.1502 -0.4314 -0.7099
   43MOL    H3416078   6.247   5.993   4.836 -0.1820 -0.2020  1.9701
   43MOL    H3516079   6.096   6.046   4.770  0.0774  1.2599 -1.0734
   43MOL    H3616080   5.996   6.263   4.749 -2.3516  1.1115  0.0334
   43MOL    H3716081   5.848   6.446   4.802  0.9418  0.2933  0.3777
   43MOL    H3816082   5.861   6.567   5.013 -2.0624 -1.0432 -1.4641
   43MOL    H3916083   6.016   6.498   5.186  0.4346  0.8020  0.3011
   43MOL    C4016084   6.185   6.283   5.178  0.2326 -1.0926 -0.2862
   43MOL    C4116085   6.328   6.314   5.186  0.2004  0.9892  0.1767
   43MOL    O4216086   6.228   6.385   5.268 -0.2868 -0.0146  0.2527
   43MOL    C4316087   6.393   6.382   5.067  0.2186  0.1316 -0.2201
   43MOL    O4416088   6.520   6.434   5.095 -0.5979  0.2178  0.3381
   43MOL    C4516089   6.537   6.557   5.152 -0.4315 -0.1097 -0.0788
   43MOL    C4616090   6.433   6.637   5.213  0.6991  0.2241  0.1330
   43MOL    C4716091   6.462   6.770   5.259  0.4715 -0.0553 -0.2630
   43MOL    C4816092   6.595   6.821   5.252 -0.1905  0.7117  0.3753
   43MOL    C4916093   6.692   6.736   5.191 -0.1819 -0.4247 -0.2889
   43MOL    C5016094   6.664   6.607   5.145 -0.0881 -0.0410  0.4768
   43MOL    H5116095   6.138   6.198   5.226  1.6943 -1.4114  0.6029
   43MOL    H5216096   6.389   6.246   5.244  0.7528  1.0986 -0.2667
   43MOL    H5316097   6.333   6.465   5.030  0.3857  1.6107  2.7556
   43MOL    H5416098   6.411   6.310   4.986  2.3812 -1.0414  1.2446
   43MOL    H5516099   6.329   6.610   5.219  0.6224 -0.1514 -2.3066
   43MOL    H5616100   6.373   6.826   5.285 -0.5269 -2.3626  1.5385
   43MOL    H5716101   6.617   6.919   5.292  0.1243  1.5061 -1.6663
   43MOL    H5816102   6.789   6.781   5.181  0.3175 -1.7915 -1.9207
   43MOL    C5916103   6.775   6.525   5.084 -0.8203 -0.5687 -0.1498
   43MOL    C6016104   6.796   6.527   4.932 -0.2272  0.3461 -0.5378
   43MOL    O6116105   6.873   6.603   5.018 -0.4333  0.2443 -0.7152
   43MOL    C6216106   6.713   6.598   4.831 -0.6343 -0.0372 -0.4041
   43MOL    O6316107   6.772   6.605   4.702  0.4770 -0.7606 -0.1377
   43MOL    C6416108   6.799   6.484   4.644 -0.4334  1.2656 -0.1951
   43MOL    C6516109   6.719   6.368   4.672  0.5342  1.0148  0.2053
   43MOL    C6616110   6.752   6.240   4.613  0.0025 -0.9417  0.4277
   43MOL    C6716111   6.860   6.238   4.527 -0.3426 -0.0818 -0.1574
   43MOL    C6816112   6.939   6.347   4.500 -0.0474 -1.2447  0.0732
   43MOL    C6916113   6.906   6.474   4.554  0.6135 -0.3683 -0.0282
   43MOL    H7016114   6.827   6.458   5.152  1.1540  1.8478  0.8343
   43MOL    H7116115   6.845   6.435   4.900  2.4672  0.8964  1.7892
   43MOL    H7216116   6.695   6.702   4.860 -0.1694 -0.1641  0.3443
   43MOL    H7316117   6.614   6.555   4.822 -0.8764  1.0628 -3.6454
   43MOL    H7416118   6.632   6.360   4.735 -0.2966  0.7764 -0.9706
   43MOL    H7516119   6.689   6.154   4.632 -0.3889 -0.7133  0.1751
   43MOL    H7616120   6.888   6.144   4.482 -0.6411 -0.4987  0.5186
   43MOL    H7716121   7.018   6.336   4.428  0.7336  0.2254  0.6886
   43MOL    C7816122   6.993   6.593   4.531  0.7867 -0.0610  0.1987
   43MOL    C7916123   7.109   6.629   4.629 -0.0515 -0.2772 -0.6537
   43MOL    O8016124   7.128   6.570   4.498 -0.4629  0.3015  0.0561
   43MOL    C8116125   7.147   6.535   4.742 -0.4170  0.1179 -0.6303
   43MOL    O8216126   7.259   6.585   4.817  0.4520 -0.0845 -0.3934
   43MOL    C8316127   7.266   6.546   4.954  0.2492 -0.1943  0.8170
   43MOL    C8416128   7.209   6.430   5.001 -0.0076  0.3258  0.1506
   43MOL    C8516129   7.220   6.389   5.136 -0.0216 -0.6547 -0.0851
   43MOL    C8616130   7.272   6.478   5.228  0.4075 -0.0116  0.5612
   43MOL    C8716131   7.327   6.599   5.185  0.2441 -0.8001  0.3901
   43MOL    C8816132   7.317   6.638   5.052 -1.0870  0.1373  0.2322
   43MOL    H8916133   6.944   6.684   4.496  0.9622  0.0953  0.3603
   43MOL    H9016134   7.131   6.734   4.641 -1.7198  0.2679 -2.0442
   43MOL    H9116135   7.177   6.439   4.699  2.2692  0.6319 -0.0309
   43MOL    H9216136   7.061   6.517   4.807  0.2569  0.5008  0.3883
   43MOL    H9316137   7.161   6.365   4.930 -0.8400 -1.5795  2.3793
   43MOL    H9416138   7.182   6.292   5.163  0.2470 -0.6759  0.2316
   43MOL    H9516139   7.278   6.453   5.333 -0.3444 -0.8639  0.4030
   43MOL    H9616140   7.378   6.661   5.258  1.9831  0.5061 -1.8472
   43MOL    C9716141   7.350   6.782   5.004  0.4711 -0.4122 -0.0045
   43MOL    C9816142   7.283   6.904   5.053  0.0293 -0.3321 -0.3049
   43MOL    O9916143   7.403   6.866   5.112  0.0655 -0.5746 -0.0185
   43MOL   C10016144   7.163   6.889   5.147  0.3479  0.2749 -0.0862
   43MOL   O10116145   7.089   7.008   5.156 -0.2412  0.3959  0.1633
   43MOL   C10216146   6.966   7.014   5.094 -0.6150 -0.8705 -0.1406
   43MOL   C10316147   6.933   6.954   4.969 -0.2362  0.5606 -0.2764
   43MOL   C10416148   6.811   6.971   4.916  0.4279  0.0739  0.2673
   43MOL   C10516149   6.710   7.050   4.975 -0.0996  0.3488 -0.2930
   43MOL   C10616150   6.745   7.125   5.090 -0.0390  0.3739 -0.1421
   43MOL   C10716151   6.874   7.105   5.152 -0.2536  0.0436  0.3788
   43MOL   H10816152   7.435   6.773   4.937  1.4903 -1.5637  1.4239
   43MOL   H10916153   7.283   6.983   4.978  0.8306  0.7872  0.8544
   43MOL   H11016154   7.207   6.868   5.245 -0.1159 -1.6753 -0.2755
   43MOL   H11116155   7.110   6.794   5.135  0.6472  0.2065 -0.8855
   43MOL   H11216156   7.004   6.888   4.920  1.2637  0.7626  1.5689
   43MOL   H11316157   6.791   6.936   4.815 -4.2611  0.5347  0.8858
   43MOL   H11416158   6.612   7.064   4.929 -0.4549  0.9114  0.6204
   43MOL   H11516159   6.678   7.194   5.140 -1.6336 -1.6422  0.5936
   43MOL   C11616160   6.908   7.175   5.280 -0.4526  0.0978 -0.4367
   43MOL   C11716161   6.918   7.328   5.298 -0.5189  0.1812  0.3741
   43MOL   O11816162   6.799   7.247   5.343  0.0089 -0.1174  0.0913
   43MOL   C11916163   6.904   7.426   5.190 -0.3145  0.6772  0.6242
   43MOL   O12016164   6.933   7.386   5.056 -0.0785 -0.6809 -0.8513
   43MOL   C12116165   7.064   7.358   5.021 -1.0713 -0.6381  0.4716
   43MOL   C12216166   7.173   7.375   5.113 -0.0225 -0.6148 -0.6358
   43MOL   C12316167   7.309   7.355   5.083  0.1291 -0.2682  0.0453
   43MOL   C12416168   7.337   7.306   4.955 -0.0468  0.5046  0.6497
   43MOL   C12516169   7.235   7.282   4.861  0.3466 -0.1458 -0.5714
   43MOL   C12616170   7.104   7.316   4.894 -0.9740 -0.1667 -0.3310
   43MOL   H12716171   6.967   7.116   5.349 -0.6167 -0.3082 -0.6415
   43MOL   H12816172   6.980   7.366   5.379 -1.7514  1.8550  0.5488
   43MOL   H12916173   6.960   7.517   5.217  0.5498  0.0898  0.8379
   43MOL   H13016174   6.797   7.443   5.200 -0.0490  1.8666  1.5388
   43MOL   H13116175   7.145   7.407   5.212 -2.2747  0.7059 -1.6764
   43MOL   H13216176   7.389   7.368   5.154 -0.2066 -2.0953  0.7814
   43MOL   H13316177   7.437   7.277   4.928  0.0398  2.5153 -1.4210
   43MOL   H13416178   7.252   7.245   4.761  0.9686  1.0093 -0.8982
   43MOL   C13516179   7.001   7.297   4.791  0.0503  0.2518  0.1410
   43MOL   C13616180   6.928   7.407   4.720 -0.6564 -0.1347  1.0211
   43MOL   O13716181   7.051   7.360   4.665  0.3190  0.2111 -0.8560
   43MOL   C13816182   6.913   7.551   4.769  0.2099  0.1125 -0.1573
   43MOL   O13916183   7.039   7.605   4.813  0.0995 -0.4468 -0.6574
   43MOL   C14016184   7.050   7.737   4.856  0.4343 -0.0288  0.0918
   43MOL   C14116185   6.948   7.813   4.916  0.1207 -0.7608 -0.4652
   43MOL   C14216186   6.973   7.935   4.973 -0.5567 -0.3208 -0.3382
   43MOL   C14316187   7.101   7.985   4.975 -0.0027 -0.7225 -0.5891
   43MOL   C14416188   7.200   7.915   4.904  0.2182  0.1527 -0.4769
   43MOL   C14516189   7.180   7.788   4.844 -0.2950  0.3432 -0.8790
   43MOL   H14616190   6.963   7.195   4.783  0.6844 -0.0817  1.2169
   43MOL   H14716191   6.840   7.377   4.664 -0.0748 -3.2311  1.6606
   43MOL   H14816192   6.846   7.552   4.855 -0.1100  1.0623 -0.4129
   43MOL   H14916193   6.874   7.618   4.692  0.2845  0.1768 -0.1410
   43MOL   H15016194   6.849   7.771   4.927  0.2074 -0.9950 -0.5728
   43MOL   H15116195   6.895   7.988   5.025 -1.6001 -3.5239  1.4815
   43MOL   H15216196   7.121   8.082   5.018 -3.6230 -0.5381  0.8593
   43MOL   H15316197   7.297   7.962   4.897  0.6739 -0.4193  1.5812
   43MOL   C15416198   7.286   7.719   4.767 -0.3289 -0.2910 -0.4995
   43MOL   C15516199   7.322   7.763   4.634  0.7075 -0.2949 -0.0250
   43MOL   O15616200   7.407   7.804   4.741 -0.4942 -0.2610  0.0194
   43MOL   C15716201   7.241   7.878   4.571 -0.5705  0.0800  0.5363
   43MOL   O15816202   7.289   7.924   4.445  0.1124  0.0059  0.0137
   43MOL   C15916203   7.382   8.028   4.439 -0.1917 -0.3601  0.2274
   43MOL   C16016204   7.448   8.082   4.551 -0.7780 -0.4334  0.1476
   43MOL   C16116205   7.538   0.022   4.535  0.3588  0.2675  0.0226
   43MOL   C16216206   7.570   0.070   4.407 -0.6101 -0.0131 -0.8095
   43MOL   C16316207   7.499   0.024   4.296 -0.7530  0.4294 -0.8462
   43MOL   C16416208   7.413   8.078   4.315 -0.1213  0.6594 -0.7443
   43MOL   H16516209   7.298   7.612   4.783  0.1023 -0.1794 -0.0335
   43MOL   H16616210   7.358   7.688   4.564  0.8112 -0.9266  0.7029
   43MOL   H16716211   7.214   7.960   4.638 -3.1206  0.6291 -1.1329
   43MOL   H16816212   7.145   7.835   4.543  1.0535 -1.2386 -3.3462
   43MOL   H16916213   7.447   8.037   4.649  0.9027 -1.1553 -0.1630
   43MOL   H17016214   7.581   0.063   4.626 -1.1195  0.0435  0.8400
   43MOL   H17116215   7.636   0.155   4.395  1.3940 -1.4601 -0.3235
   43MOL   H17216216   7.511   0.059   4.194  0.0017 -1.7790 -1.5374
   43MOL   C17316217   7.356   8.015   4.190 -0.6030 -0.0503  0.1731
   43MOL   C17416218   7.218   8.017   4.150  0.3126  0.0261 -0.2483
   43MOL   O17516219   7.316   8.104   4.097 -0.1376 -0.4632 -0.0718
   43MOL   C17616220   7.111   8.095   4.222  0.8677  0.3060  0.3607
   43MOL   O17716221   6.985   8.104   4.154  0.2647 -0.0716 -0.2163
   43MOL   C17816222   6.932   0.061   4.164 -0.4583  0.1560 -0.0666
   43MOL   C17916223   6.977   0.165   4.079 -0.2967 -0.2112 -0.0295
   43MOL   C18016224   6.910   0.289   4.080 -0.5454  0.7428 -0.3327
   43MOL   C18116225   6.793   0.301   4.159 -0.1577  0.2599  0.0020
   43MOL   C18216226   6.752   0.204   4.243 -0.1947  0.4700  0.1209
   43MOL   C18316227   6.820   0.078   4.245 -0.1965  0.0974  0.7032
   43MOL   H18416228   7.405   7.926   4.150 -0.1108  0.7022 -0.9343
   43MOL   H18516229   7.184   7.941   4.080 -2.4894 -0.6925  1.8156
   43MOL   H18616230   7.151   0.025   4.238  0.9583 -0.0023  2.2254
   43MOL   H18716231   7.101   8.051   4.321  0.9467 -2.1055 -0.6746
   43MOL   H18816232   7.059   0.133   4.016  0.1224 -2.4766  1.5815
   43MOL   H18916233   6.949   0.373   4.024  0.5233  1.2464  1.1271
   43MOL   H19016234   6.740   0.395   4.152  1.7002  1.3778  0.3826
   43MOL   H19116235   6.667   0.227   4.305 -1.3040 -0.2209 -1.1206
   43MOL   C19216236   6.763   8.126   4.315  0.4059  0.7062  0.5458
   43MOL   C19316237   6.762   8.117   4.467  0.4267  0.4984 -0.5173
   43MOL   O19416238   6.640   8.159   4.395  0.0189  0.2521  0.0917
   43MOL   C19516239   6.801   0.058   4.571  0.3773 -0.0878  0.3460
   43MOL   O19616240   6.712   0.075   4.679  0.0194  0.5022  0.3711
   43MOL   C19716241   6.749   0.148   4.787 -0.0101  0.2775 -0.1444
   43MOL   C19816242   6.864   0.108   4.865  0.3103  0.7601  0.1336
   43MOL   C19916243   6.903   0.181   4.977  0.1724  0.5594  0.0482
   43MOL   C20016244   6.835   0.303   5.008  0.4631  0.4719  0.2677
   43MOL   C20116245   6.730   0.347   4.926 -0.3386  0.2868  0.2033
   43MOL   C20216246   6.690   0.267   4.819  0.1140  0.5196 -0.3124
   43MOL   H20316247   6.756   8.037   4.253 -1.7062 -0.0396  1.7627
   43MOL   H20416248   6.766   8.018   4.512  0.9990  1.2014  1.0455
   43MOL   H20516249   6.801   0.147   4.510  0.2395 -0.1338  0.2784
   43MOL   H20616250   6.902   0.050   4.612  1.0109 -4.7276 -1.8248
   43MOL   H20716251   6.924   0.021   4.842 -0.5615 -0.4597  2.2667
   43MOL   H20816252   6.992   0.151   5.031 -0.3280 -1.5407 -0.2597
   43MOL   H20916253   6.884   0.363   5.083  3.6749 -0.2567 -1.1626
   43MOL   H21016254   6.683   0.442   4.947  1.3889  1.5900 -1.6602
   43MOL   C21116255   6.588   0.319   4.723  0.8746 -0.0590 -0.9665
   43MOL   C21216256   6.448   0.258   4.720 -0.5720 -0.3739  0.2829
   43MOL   O21316257   6.473   0.378   4.787  0.6262 -0.3128 -0.4596
   43MOL   C21416258   6.401   0.149   4.808 -0.3199  0.1890  0.7377
   43MOL   O21516259   6.266   0.100   4.791 -0.0263 -0.1949  0.7314
   43MOL   C21616260   6.231   0.036   4.664  0.0235 -0.6308  0.6423
   43MOL   C21716261   6.333   8.150   4.585 -0.4148  0.3066  0.1088
   43MOL   C21816262   6.295   8.086   4.464 -0.4826  0.2539 -0.6749
   43MOL   C21916263   6.161   8.074   4.430  0.1411 -0.6417  1.1566
   43MOL   C22016264   6.057   8.120   4.518 -0.4127 -0.5258  0.6881
   43MOL   C22116265   6.095   0.017   4.635  0.1378  0.4557 -0.2079
   43MOL   H22216266   6.627   0.360   4.631  0.8947  2.8100  0.2884
   43MOL   H22316267   6.395   0.255   4.625 -0.5371  1.8807  0.1662
   43MOL   H22416268   6.387   0.193   4.907 -0.9424  0.6529  0.4454
   43MOL   H22516269   6.475   0.070   4.799 -0.6198  0.0722 -0.7321
   43MOL   H22616270   6.437   8.157   4.612 -0.6742 -0.7109  1.4501
   43MOL   H22716271   6.372   8.033   4.409  2.8509  1.8770  2.1852
   43MOL   H22816272   6.129   8.021   4.341 -1.6774 -0.1607  1.5073
   43MOL   H22916273   5.952   8.104   4.497 -0.1571 -1.5533  0.1089
   43MOL   C23016274   5.983   0.073   4.722 -0.6107  0.5051  0.1510
   43MOL   C23116275   5.964   0.219   4.728  0.6905 -0.3452 -0.0989
   43MOL   O23216276   5.892   0.133   4.640 -0.2381  0.3066  0.0503
   43MOL   C23316277   6.036   0.330   4.650 -0.1007  0.3156 -0.0641
   43MOL   O23416278   5.999   0.454   4.707 -0.4307 -1.1064 -0.0586
   43MOL   C23516279   5.881   0.510   4.672  0.0680  0.0024  1.0019
   43MOL   C23616280   5.843   0.516   4.533 -0.4137 -0.0739 -0.0955
   43MOL   C23716281   5.717   0.578   4.500  0.0090 -0.2673  0.1546
   43MOL   C23816282   5.638   0.643   4.599 -0.1923  0.0088 -0.6204
   43MOL   C23916283   5.690   0.648   4.726  0.5536 -0.1029 -0.7948
   43MOL   C24016284   5.810   0.585   4.760  0.1840  0.2453  0.2502
   43MOL   H24116285   5.934   0.008   4.794 -0.4094  0.5582  0.3329
   43MOL   H24216286   5.912   0.254   4.817 -0.4376 -1.5850 -0.2675
   43MOL   H24316287   6.030   0.332   4.542  2.1799  0.3876 -0.2120
   43MOL   H24416288   6.143   0.315   4.666 -0.2855 -0.3976  0.5651
   43MOL   H24516289   5.901   0.461   4.461  0.6144 -0.2282  0.8427
   43MOL   H24616290   5.696   0.574   4.394  2.4979  0.5630 -0.4003
   43MOL   H24716291   5.542   0.686   4.573 -0.8095 -1.3943 -0.7019
   43MOL   H24816292   5.631   0.697   4.802 -0.5549  0.5521 -2.0556
   43MOL   C24916293   5.867   0.597   4.900  0.0338 -0.5034 -0.5652
   43MOL   C25016294   5.987   0.677   4.940  0.0292 -0.3319 -0.1229
   43MOL   O25116295   5.855   0.727   4.959 -0.1690 -0.2543  0.0074
   43MOL   C25216296   6.075   0.766   4.844 -0.1969  0.2887 -0.6961
   43MOL   O25316297   6.155   0.839   4.927 -0.4473 -0.7010  0.1734
   43MOL   C25416298   6.178   0.978   4.911 -0.0716 -0.2116  0.2099
   43MOL   C25516299   6.159   1.042   4.784  0.0381  0.8609  0.5301
   43MOL   C25616300   6.187   1.174   4.759  0.7263 -0.5217  0.6038
   43MOL   C25716301   6.247   1.248   4.861 -0.3430  1.6550 -0.0005
   43MOL   C25816302   6.274   1.189   4.992 -0.4116  0.2282 -0.3118
   43MOL   C25916303   6.243   1.054   5.013 -0.2019 -0.1445  0.0827
   43MOL   H26016304   5.855   0.506   4.958  0.2012 -0.3888 -0.3501
   43MOL   H26116305   6.040   0.635   5.025  0.1129  0.6040  0.2882
   43MOL   H26216306   6.013   0.837   4.790  0.0830  0.4568 -0.7982
   43MOL   H26316307   6.136   0.703   4.779 -0.6212 -2.4106  1.4304
   43MOL   H26416308   6.108   0.985   4.708  0.9431  0.0356  0.5264
   43MOL   H26516309   6.160   1.227   4.670  2.3743  1.7861  1.4362
   43MOL   H26616310   6.279   1.351   4.848  1.8822  1.0692  0.7302
   43MOL   H26716311   6.309   1.238   5.081 -0.6093  0.4549 -0.3584
   43MOL   C26816312   6.252   0.991   5.152  0.0982 -0.7099  0.9565
   43MOL   C26916313   6.369   0.918   5.219 -0.3324 -0.5590 -0.1837
   43MOL   O27016314   6.348   1.059   5.241  0.0075  0.0979 -0.2436
   43MOL   C27116315   6.483   0.880   5.128  0.3114  0.0663 -0.2753
   43MOL   O27216316   6.567   0.776   5.176  0.5399  0.1978  0.3784
   43MOL   C27316317   6.509   0.653   5.179 -0.0925 -0.3367 -0.4440
   43MOL   C27416318   6.377   0.618   5.138  0.1052 -0.5786 -0.6751
   43MOL   C27516319   6.324   0.490   5.130 -0.2651 -0.7483 -0.6143
   43MOL   C27616320   6.414   0.383   5.162  0.8598 -0.9788  0.2436
   43MOL   C27716321   6.545   0.409   5.207 -0.4813 -0.2589  0.5960
   43MOL   C27816322   6.593   0.542   5.216 -0.5259  0.5077  0.3917
   43MOL   H27916323   6.151   0.990   5.192  0.3086 -0.3048  1.5075
   43MOL   H28016324   6.349   0.876   5.317  0.7422 -0.0111  0.2642
   43MOL   H28116325   6.545   0.966   5.105  1.3599 -1.1886 -2.3343
   43MOL   H28216326   6.446   0.836   5.035  0.3318  0.5796 -0.5276
   43MOL   H28316327   6.308   0.695   5.107  1.2045  0.2720 -1.0920
   43MOL   H28416328   6.221   0.461   5.113 -0.3539 -0.9529  0.2350
   43MOL   H28516329   6.381   0.281   5.161  2.4071 -1.4907  0.5987
   43MOL   H28616330   6.612   0.326   5.228  0.0669 -0.0889 -0.4300
   43MOL   C28716331   6.732   0.566   5.254  1.1295  0.1393 -0.3317
   43MOL   C28816332   6.770   0.573   5.401  0.3462 -0.1126  0.2606
   43MOL   O28916333   6.799   0.460   5.317  0.6230  0.5722  0.4029
   43MOL   C29016334   6.693   0.517   5.513 -0.0089  0.1353 -0.1834
   43MOL   O29116335   6.763   0.549   5.629 -0.2449  0.1655 -0.9135
   43MOL   C29216336   6.756   0.468   5.737 -0.3181  0.2612 -0.4841
   43MOL   C29316337   6.682   0.347   5.753 -0.8103  0.0950 -0.0323
   43MOL   C29416338   6.673   0.279   5.879 -0.0828 -0.1324 -0.4463
   43MOL   C29516339   6.758   0.312   5.984  0.4157  0.6854 -0.6919
   43MOL   C29616340   6.839   0.429   5.966  1.1972  0.4943  0.0280
   43MOL   C29716341   6.843   0.507   5.844 -0.3126  0.4335 -0.0468
   43MOL   H29816342   6.792   0.610   5.175 -0.8283  2.3766 -0.6339
   43MOL   H29916343   6.858   0.633   5.426 -1.2457  1.1282  3.1483
   43MOL   H30016344   6.677   0.411   5.495  0.5775  0.0496 -0.1936
   43MOL   H30116345   6.598   0.571   5.512 -0.0828  0.0370  0.9312
   43MOL   H30216346   6.618   0.311   5.673 -0.7143 -0.3840  0.1032
   43MOL   H30316347   6.617   0.187   5.887 -0.3196 -0.3061 -3.4372
   43MOL   H30416348   6.776   0.250   6.071  1.0222 -0.3537 -1.5539
   43MOL   H30516349   6.895   0.451   6.056  1.3610  1.9031 -0.4010
   43MOL   C30616350   6.945   0.621   5.828  0.3405  0.9933 -0.6779
   43MOL   C30716351   6.907   0.761   5.849 -0.8382 -0.2421 -0.0590
   43MOL   O30816352   6.977   0.686   5.952 -0.3187  0.2655 -0.2452
   43MOL   C30916353   6.759   0.810   5.874  0.0352 -0.9833  0.1901
   43MOL   O31016354   6.736   0.932   5.957  0.2136  0.1310 -0.4835
   43MOL   C31116355   6.794   0.925   6.085  0.4776  0.5775  0.0409
   43MOL   C31216356   6.793   0.803   6.155 -0.3971 -0.4918  0.1875
   43MOL   C31316357   6.844   0.793   6.283  0.1022  0.3624  0.2700
   43MOL   C31416358   6.890   0.903   6.350  0.4633  0.8729  0.1267
   43MOL   C31516359   6.887   1.029   6.284  0.0119  1.2297 -0.2471
   43MOL   C31616360   6.840   1.041   6.150 -0.3425  0.6840  0.5563
   43MOL   H31716361   7.018   0.600   5.750  1.8766 -0.7115  1.1457
   43MOL   H31816362   6.967   0.828   5.787 -2.6337  0.7852 -0.7386
   43MOL   H31916363   6.689   0.732   5.902 -0.7086 -0.7537 -0.9756
   43MOL   H32016364   6.724   0.824   5.772 -0.7275 -0.4894  0.5154
   43MOL   H32116365   6.758   0.709   6.116 -2.0498  0.5231 -0.8904
   43MOL   H32216366   6.825   0.697   6.328  1.3493  0.3297  0.7261
   43MOL   H32316367   6.920   0.898   6.454 -0.2930 -0.0919  0.3044
   43MOL   H32416368   6.912   1.110   6.352 -1.1534 -1.3004  3.3632
   43MOL   C32516369   6.843   1.171   6.093 -0.0462  0.3097  0.6065
   43MOL   C32616370   6.722   1.252   6.058  0.8016 -0.2396  0.5225
   43MOL   O32716371   6.795   1.261   6.193 -0.3104  0.0868 -0.2173
   43MOL   C32816372   6.582   1.199   6.057  0.1162  0.1463  0.3694
   43MOL   O32916373   6.483   1.295   6.100 -0.6011 -0.5030 -0.2415
   43MOL   C33016374   6.432   1.391   6.015 -0.1448 -0.6835  0.0895
   43MOL   C33116375   6.471   1.412   5.876  0.2812 -0.0801 -0.3650
   43MOL   C33216376   6.408   1.505   5.791  0.2395  0.0506 -0.0805
   43MOL   C33316377   6.302   1.579   5.840  0.7666 -0.5088  0.7115
   43MOL   C33416378   6.260   1.563   5.969  0.4233  0.2286 -0.8783
   43MOL   C33516379   6.324   1.469   6.058  0.6755  0.0630 -0.3859
   43MOL   H33616380   6.943   1.192   6.056 -1.0460  1.1844 -1.6649
   43MOL   H33716381   6.741   1.340   5.997 -1.0220 -1.0385 -1.2322
   43MOL   H33816382   6.575   1.114   6.126  1.2821  0.3931  0.8051
   43MOL   H33916383   6.562   1.160   5.957 -0.5661 -3.2669  1.7672
   43MOL   H34016384   6.548   1.354   5.826  1.5571  1.6091 -0.3881
   43MOL   H34116385   6.434   1.525   5.688 -1.4810 -0.1891 -0.5884
   43MOL   H34216386   6.243   1.646   5.779  0.0264 -0.9279  0.9711
   43MOL   H34316387   6.174   1.612   6.013  1.1811  1.6635 -0.9869
   43MOL   C34416388   6.269   1.446   6.200  0.4466 -0.2522  0.3640
   43MOL   C34516389   6.303   1.532   6.323 -1.2739  1.0780 -0.2769
   43MOL   O34616390   6.187   1.556   6.239  0.7722 -0.3893  0.2460
   43MOL   C34716391   6.412   1.635   6.318  0.5818  0.2656 -0.2626
   43MOL   O34816392   6.454   1.698   6.436 -0.0993 -0.0074  0.1812
   43MOL   C34916393   6.362   1.776   6.504  0.0728 -0.5310 -0.6326
   43MOL   C35016394   6.263   1.838   6.430 -0.1866 -0.2687  1.0676
   43MOL   C35116395   6.167   1.920   6.496 -0.3800 -0.5265 -0.2825
   43MOL   C35216396   6.174   1.940   6.631  0.1280  0.8533 -0.2189
   43MOL   C35316397   6.268   1.871   6.702 -0.1628  0.6005 -0.3563
   43MOL   C35416398   6.367   1.793   6.643  0.0608  0.1210  0.0219
   43MOL   H35516399   6.218   1.350   6.212  0.1681  0.0769  1.8237
   43MOL   H35616400   6.290   1.475   6.415  0.4372  0.8640 -0.1518
   43MOL   H35716401   6.382   1.706   6.241 -0.6544 -2.1403 -2.0703
   43MOL   H35816402   6.495   1.579   6.275  1.0119 -0.7758  1.8745
   43MOL   H35916403   6.248   1.832   6.323  0.5143 -2.1289  1.0541
   43MOL   H36016404   6.083   1.961   6.443 -0.3834 -0.3924 -0.1751
   43MOL   H36116405   6.094   1.998   6.676 -0.8075  0.7228 -1.6645
   43MOL   H36216406   6.279   1.881   6.809 -0.0568 -1.7988 -0.1171
   43MOL   C36316407   6.481   1.730   6.727 -0.7459 -0.7119  0.6941
   43MOL   C36416408   6.606   1.807   6.753 -0.2433  0.1558  0.1046
   43MOL   O36516409   6.498   1.791   6.855 -0.2228 -0.7986 -0.2841
   43MOL   C36616410   6.638   1.946   6.704  0.4800 -0.3981 -0.6583
   43MOL   O36716411   6.761   1.994   6.756 -0.0225 -0.2567 -0.3462
   43MOL   C36816412   6.878   1.929   6.741  0.7257 -0.1336  0.1652
   43MOL   C36916413   6.977   1.939   6.842  0.1870  0.4383  0.3664
   43MOL   C37016414   7.099   1.881   6.826 -0.9609 -0.1188  0.1890
   43MOL   C37116415   7.129   1.816   6.701 -0.0359 -0.9016 -0.2536
   43MOL   C37216416   7.027   1.796   6.604 -0.5192  0.5077 -0.1310
   43MOL   C37316417   6.900   1.850   6.626  0.7813 -0.2253 -0.0090
   43MOL   H37416418   6.489   1.621   6.720 -2.5923 -0.7024 -2.6574
   43MOL   H37516419   6.696   1.745   6.755  0.3699  1.0642  0.9541
   43MOL   H37616420   6.554   2.009   6.734 -0.0342 -1.3162 -0.1368
   43MOL   H37716421   6.632   1.951   6.595  0.7506  1.5734 -0.5940
   43MOL   H37816422   6.955   1.995   6.932  1.1792 -0.2569  1.0576
   43MOL   H37916423   7.175   1.891   6.902  1.4188 -0.5154 -2.0608
   43MOL   H38016424   7.226   1.769   6.695  0.7668  0.6448  0.0904
   43MOL   H38116425   7.055   1.750   6.510  0.5718  1.7212 -0.4058
   43MOL   H38216426   6.826   1.847   6.547  1.7633 -1.0108 -0.9199
   44MOL     C116427   3.135   5.615   6.885  0.3784 -0.2519 -0.5344
   44MOL     C216428   3.080   5.510   6.981  0.5023 -0.1149 -0.1463
   44MOL     O316429   2.998   5.620   6.928 -0.0497  0.1848  0.0341
   44MOL     C416430   3.137   5.514   7.119  0.8618 -0.0576  0.3759
   44MOL     O516431   3.244   5.595   7.136  0.1403 -0.6220  0.2738
   44MOL     C616432   3.343   5.556   7.233  0.2544 -0.2799  0.1119
   44MOL     C716433   3.316   5.459   7.336 -0.8143 -1.0668 -0.5703
   44MOL     C816434   3.416   5.426   7.430 -0.0879 -1.0820  0.5139
   44MOL     C916435   3.537   5.496   7.424  0.4242 -0.0390 -0.6236
   44MOL    C1016436   3.558   5.600   7.332 -0.4504  0.1866  0.0237
   44MOL    C1116437   3.467   5.623   7.229  0.2200  0.0025  0.0347
   44MOL    H1216438   3.144   5.601   6.777 -2.2013  0.6796 -0.8999
   44MOL    H1316439   3.049   5.413   6.943  2.1850 -1.1753  1.0916
   44MOL    H1416440   3.153   5.411   7.150 -2.8636 -0.2283  1.9952
   44MOL    H1516441   3.066   5.556   7.191  0.8814 -1.2016  1.0822
   44MOL    H1616442   3.220   5.410   7.341 -1.2629  0.0446  2.3181
   44MOL    H1716443   3.391   5.359   7.511  0.0749 -0.6273  0.9467
   44MOL    H1816444   3.616   5.472   7.495 -0.4585 -0.5152  0.2119
   44MOL    H1916445   3.655   5.644   7.312 -1.8960  2.4280 -2.5022
   44MOL    H2016446   3.204   5.693   6.918  0.2833 -0.0301 -0.8557
   44MOL    C2116447   3.504   5.710   7.113 -0.2413  0.2032 -0.0978
   44MOL    C2216448   3.476   5.853   7.094  0.5903  0.2610  0.5994
   44MOL    O2316449   3.592   5.810   7.160 -0.4858  0.1262 -0.9010
   44MOL    C2416450   3.367   5.909   7.193  0.2261 -0.2386 -0.5598
   44MOL    O2516451   3.350   6.045   7.167 -0.2595  0.0086 -0.1798
   44MOL    C2616452   3.437   6.140   7.214  0.5172 -0.0719 -0.6097
   44MOL    C2716453   3.548   6.107   7.290 -0.2010 -0.5543  0.1974
   44MOL    C2816454   3.634   6.212   7.332 -0.3166  0.1831 -0.1184
   44MOL    C2916455   3.598   6.346   7.311  0.1096  0.3877  0.3370
   44MOL    C3016456   3.486   6.382   7.242 -0.6279  0.6106 -0.1717
   44MOL    C3116457   3.410   6.276   7.186  0.5270 -0.5414 -0.2094
   44MOL    H3216458   3.551   5.662   7.027  1.2398  0.8767  0.3168
   44MOL    H3316459   3.494   5.897   6.996  0.0022  0.2482  0.4785
   44MOL    H3416460   3.390   5.886   7.297  2.1526 -0.1123 -0.9405
   44MOL    H3516461   3.272   5.864   7.163 -0.9437  0.9225  1.2739
   44MOL    H3616462   3.571   6.006   7.321  2.0498  0.3313  1.5828
   44MOL    H3716463   3.724   6.195   7.389 -0.2567 -0.3518 -0.3725
   44MOL    H3816464   3.657   6.424   7.357  0.3890  0.0992  0.4669
   44MOL    H3916465   3.465   6.487   7.223  0.3036  0.7038 -0.7306
   44MOL    C4016466   3.299   6.306   7.088 -0.0836 -0.0904  0.6418
   44MOL    C4116467   3.153   6.315   7.119 -0.1669  0.4392 -0.4035
   44MOL    O4216468   3.235   6.431   7.118 -0.8230  0.3585  0.6058
   44MOL    C4316469   3.094   6.277   7.259 -0.1071 -0.4295  0.4696
   44MOL    O4416470   2.965   6.337   7.277  0.0776 -0.1648  0.3532
   44MOL    C4516471   2.877   6.271   7.363 -0.4558  0.2969 -0.3333
   44MOL    C4616472   2.893   6.138   7.414  0.5369 -0.3965  0.3591
   44MOL    C4716473   2.803   6.086   7.508  0.2006  0.1582  0.8150
   44MOL    C4816474   2.691   6.157   7.547 -0.3211 -0.5614 -0.0007
   44MOL    C4916475   2.664   6.286   7.485  0.3237  0.3324  0.7804
   44MOL    C5016476   2.761   6.341   7.395  0.1339 -0.4040  0.1495
   44MOL    H5116477   3.308   6.277   6.983 -0.4327  1.1581  0.2656
   44MOL    H5216478   3.080   6.319   7.038  1.4148 -0.6067 -1.9118
   44MOL    H5316479   3.155   6.314   7.341 -2.7304 -0.5946  2.5642
   44MOL    H5416480   3.109   6.170   7.270 -1.0041 -0.3253  3.0092
   44MOL    H5516481   2.977   6.072   7.404  1.8526  1.0815  1.4875
   44MOL    H5616482   2.827   5.988   7.547  0.7284 -0.7751 -1.7913
   44MOL    H5716483   2.618   6.128   7.621 -1.4171 -0.8347 -1.1726
   44MOL    H5816484   2.570   6.331   7.514 -0.6871 -0.1475 -1.6176
   44MOL    C5916485   2.738   6.477   7.339  1.0077 -0.7510 -0.2906
   44MOL    C6016486   2.621   6.512   7.248  0.2898 -0.2812 -0.0803
   44MOL    O6116487   2.612   6.530   7.390  0.4742  0.0597 -0.6387
   44MOL    C6216488   2.519   6.413   7.195 -0.6561 -1.0481  0.2088
   44MOL    O6316489   2.575   6.342   7.084  0.3780 -0.6308  0.1300
   44MOL    C6416490   2.587   6.398   6.967 -0.2426 -0.0683  0.0076
   44MOL    C6516491   2.496   6.495   6.923 -0.2530  0.2701  0.2801
   44MOL    C6616492   2.501   6.538   6.789  0.3564  0.6196  0.1671
   44MOL    C6716493   2.598   6.483   6.703 -0.0028  0.6245 -0.4062
   44MOL    C6816494   2.690   6.396   6.751  0.3136  0.4253 -0.7407
   44MOL    C6916495   2.688   6.355   6.882 -0.4093  0.7923  0.1670
   44MOL    H7016496   2.822   6.544   7.354  0.5704  0.0225 -1.2602
   44MOL    H7116497   2.626   6.606   7.193  0.2507 -0.1655  0.1120
   44MOL    H7216498   2.429   6.472   7.177  0.8151  1.7066  1.4027
   44MOL    H7316499   2.494   6.343   7.275 -2.0123 -0.3164  0.4379
   44MOL    H7416500   2.424   6.549   6.982  1.4011  4.4689 -1.3173
   44MOL    H7516501   2.432   6.617   6.763 -1.1962 -1.0097 -0.8552
   44MOL    H7616502   2.598   6.519   6.602 -1.2565 -0.0712 -0.6555
   44MOL    H7716503   2.772   6.360   6.690  0.7275  1.0614 -0.5665
   44MOL    C7816504   2.784   6.250   6.937  0.3108 -0.3838  0.0953
   44MOL    C7916505   2.752   6.103   6.959 -0.0834 -0.5784 -0.4290
   44MOL    O8016506   2.823   6.149   6.837 -0.3010  0.2051 -0.7772
   44MOL    C8116507   2.620   6.052   6.932 -0.5377  0.5816 -0.2558
   44MOL    O8216508   2.625   5.916   6.886  0.0156 -0.1768 -0.1237
   44MOL    C8316509   2.511   5.854   6.832 -0.1960 -0.3804  1.1135
   44MOL    C8416510   2.388   5.916   6.814  0.6675 -0.5176 -0.1674
   44MOL    C8516511   2.283   5.846   6.744 -0.4539 -0.0236 -0.7833
   44MOL    C8616512   2.305   5.713   6.698 -0.0891  0.8135 -0.6198
   44MOL    C8716513   2.425   5.649   6.730 -0.5408 -0.3208 -0.2140
   44MOL    C8816514   2.535   5.720   6.794  0.0704 -0.5240 -0.5729
   44MOL    H8916515   2.861   6.288   7.004 -1.1083  2.3831  0.2298
   44MOL    H9016516   2.814   6.054   7.035 -0.6228  0.4338  0.6796
   44MOL    H9116517   2.581   6.113   6.851 -1.7716 -0.3897 -0.4158
   44MOL    H9216518   2.569   6.054   7.028 -0.9334 -0.5228 -0.4364
   44MOL    H9316519   2.377   6.019   6.845  1.0139 -0.6233  0.3100
   44MOL    H9416520   2.186   5.892   6.733 -1.5973 -1.1971  3.3726
   44MOL    H9516521   2.220   5.676   6.642  0.6266 -1.3006 -0.3628
   44MOL    H9616522   2.442   5.549   6.692 -0.5912 -0.2365 -0.4608
   44MOL    C9716523   2.666   5.653   6.825 -0.6526 -0.1707 -0.2835
   44MOL    C9816524   2.682   5.514   6.877  0.2964  0.7145 -0.2778
   44MOL    O9916525   2.674   5.534   6.735 -0.0221  0.3904  0.0251
   44MOL   C10016526   2.578   5.422   6.929 -0.3993  0.1438  0.0097
   44MOL   O10116527   2.627   5.292   6.921  0.1018 -0.2264  0.0178
   44MOL   C10216528   2.731   5.257   7.004  0.3147  0.1983  0.8302
   44MOL   C10316529   2.771   5.321   7.127 -0.4647 -0.1485  0.0006
   44MOL   C10416530   2.879   5.277   7.210  0.1052 -0.0449 -0.5932
   44MOL   C10516531   2.948   5.162   7.172 -0.0602 -0.0654  0.2727
   44MOL   C10616532   2.914   5.095   7.053  0.7735 -0.0986  0.2594
   44MOL   C10716533   2.808   5.144   6.964 -0.1464 -0.0063  0.7535
   44MOL   H10816534   2.756   5.714   6.826  0.4232 -1.7328  1.3723
   44MOL   H10916535   2.779   5.495   6.921  1.2624  0.0076 -2.6370
   44MOL   H11016536   2.492   5.416   6.862  1.2629  0.7934 -2.2592
   44MOL   H11116537   2.532   5.447   7.024  0.7296 -1.8626  1.1276
   44MOL   H11216538   2.709   5.401   7.163 -0.3507  0.6789 -1.5975
   44MOL   H11316539   2.905   5.330   7.301  2.2264 -1.2333 -0.4908
   44MOL   H11416540   3.032   5.126   7.229  0.3393  1.8076  0.8931
   44MOL   H11516541   2.967   5.005   7.025 -2.0718 -1.8467  0.2057
   44MOL   C11616542   2.764   5.051   6.851 -0.4669 -0.2671 -0.4683
   44MOL   C11716543   2.783   5.113   6.717 -0.1038  0.7125  0.2258
   44MOL   O11816544   2.863   4.999   6.766 -0.3269 -0.6343 -0.3255
   44MOL   C11916545   2.854   5.246   6.691  0.7212  0.2660  0.0543
   44MOL   O12016546   2.937   5.240   6.574 -0.3240  0.0192 -0.3613
   44MOL   C12116547   3.011   5.345   6.529  0.3512 -0.0030 -0.4514
   44MOL   C12216548   2.989   5.486   6.564  0.0143  0.0295 -0.7441
   44MOL   C12316549   3.064   5.588   6.508  0.5432 -0.2655  0.2235
   44MOL   C12416550   3.165   5.562   6.416 -0.1835 -0.3981 -0.8758
   44MOL   C12516551   3.190   5.425   6.385 -0.4595 -0.6886  0.6982
   44MOL   C12616552   3.112   5.317   6.435 -0.1778  0.5719  0.0465
   44MOL   H12716553   2.672   4.997   6.870 -0.7608  0.0290 -1.0512
   44MOL   H12816554   2.714   5.082   6.638 -0.6621  0.4053  0.8294
   44MOL   H12916555   2.938   5.258   6.760 -0.8605 -2.3003  2.5275
   44MOL   H13016556   2.784   5.329   6.686  0.8139  0.4371  1.3027
   44MOL   H13116557   2.917   5.513   6.640  1.0169  3.1652 -0.8686
   44MOL   H13216558   3.042   5.692   6.528 -0.4111 -0.7403  1.6806
   44MOL   H13316559   3.232   5.638   6.378  0.7997 -0.1320  1.3234
   44MOL   H13416560   3.274   5.404   6.320  0.9331  3.0778  1.1591
   44MOL   C13516561   3.140   5.174   6.396  0.4175 -0.1178  0.2858
   44MOL   C13616562   3.053   5.097   6.309  0.5875 -0.4746  0.1997
   44MOL   O13716563   3.168   5.168   6.256  0.2011  0.0895 -0.0711
   44MOL   C13816564   2.918   5.143   6.261  0.3815 -0.4136  0.8684
   44MOL   O13916565   2.885   5.054   6.154  0.4607 -0.2851  0.3612
   44MOL   C14016566   2.757   5.047   6.113 -0.6548 -0.6603 -0.1879
   44MOL   C14116567   2.675   5.157   6.083 -0.1283 -0.0472  0.2197
   44MOL   C14216568   2.546   5.141   6.039  0.0167 -0.1032 -0.5720
   44MOL   C14316569   2.497   5.010   6.023 -0.5339  0.2002 -0.1295
   44MOL   C14416570   2.584   4.900   6.037  0.0204 -0.5834 -0.0341
   44MOL   C14516571   2.710   4.919   6.090 -0.6791  0.8951 -0.3398
   44MOL   H14616572   3.230   5.136   6.444  0.0768 -2.3441 -0.7843
   44MOL   H14716573   3.074   4.991   6.311 -2.5591 -1.1453  0.0917
   44MOL   H14816574   2.910   5.248   6.232 -3.3061 -0.5770  1.0883
   44MOL   H14916575   2.857   5.142   6.351  1.9439 -1.5793  1.9429
   44MOL   H15016576   2.700   5.262   6.092 -0.2392  0.0878 -0.9466
   44MOL   H15116577   2.487   5.225   6.006  1.2177  1.4899  1.2330
   44MOL   H15216578   2.397   4.985   5.990 -0.8868  0.7058  0.5521
   44MOL   H15316579   2.564   4.798   6.008  0.9538 -1.1118  1.1274
   44MOL   C15416580   2.796   4.804   6.100 -0.1515 -0.4665  0.0259
   44MOL   C15516581   2.843   4.740   6.228 -0.0743 -0.7759 -0.1779
   44MOL   O15616582   2.732   4.689   6.162  0.2366  0.0311  0.1115
   44MOL   C15716583   2.803   4.798   6.368 -0.6043  0.5749  0.0487
   44MOL   O15816584   2.849   4.702   6.465  0.0203  0.2932  0.4376
   44MOL   C15916585   2.790   4.579   6.471 -0.4049  0.7636 -0.0458
   44MOL   C16016586   2.649   4.557   6.451  0.7024 -0.1686 -0.4194
   44MOL   C16116587   2.596   4.427   6.469 -0.1478 -0.6898  0.1857
   44MOL   C16216588   2.681   4.319   6.492  0.0194  0.2223  0.3045
   44MOL   C16316589   2.811   4.342   6.530 -0.2380 -0.6639  0.3013
   44MOL   C16416590   2.867   4.473   6.517  0.6988 -0.2570  0.8050
   44MOL   H16516591   2.840   4.774   6.005 -1.3780 -1.7580 -0.1570
   44MOL   H16616592   2.919   4.662   6.228  0.4773 -0.2417 -0.4708
   44MOL   H16716593   2.699   4.829   6.382 -0.8537  0.7546 -2.1336
   44MOL   H16816594   2.866   4.886   6.382 -1.2501  1.1294 -0.5068
   44MOL   H16916595   2.584   4.637   6.417  0.4417 -0.1963  0.0038
   44MOL   H17016596   2.491   4.402   6.464 -0.3129  0.1417 -0.7463
   44MOL   H17116597   2.641   4.219   6.501 -2.6713  1.2714  0.4644
   44MOL   H17216598   2.876   4.263   6.562  2.2051  0.4669 -1.7087
   44MOL   C17316599   3.011   4.502   6.563  0.1175 -0.0980 -0.2655
   44MOL   C17416600   3.047   4.555   6.702 -0.5351  0.3581 -0.0289
   44MOL   O17516601   3.045   4.412   6.666 -0.2140 -0.1033 -0.1220
   44MOL   C17616602   2.935   4.612   6.796 -0.2808  0.4415  0.0207
   44MOL   O17716603   2.996   4.606   6.931  0.0071  0.3563 -0.6105
   44MOL   C17816604   2.930   4.665   7.041 -0.3464 -0.4383  0.8362
   44MOL   C17916605   2.814   4.738   7.028 -0.0706 -0.4449  0.3599
   44MOL   C18016606   2.759   4.806   7.137  0.2882 -0.4469 -0.0037
   44MOL   C18116607   2.817   4.794   7.266  0.0137  0.3980  1.0935
   44MOL   C18216608   2.945   4.726   7.277  1.0552  0.1537 -0.6689
   44MOL   C18316609   2.999   4.663   7.164  0.7849 -0.1954 -0.8085
   44MOL   H18416610   3.080   4.490   6.479 -1.8212  0.7651 -2.0370
   44MOL   H18516611   3.146   4.595   6.718  0.9122 -2.2598 -1.9039
   44MOL   H18616612   2.839   4.563   6.781  1.2449 -2.2984 -1.1749
   44MOL   H18716613   2.907   4.715   6.778 -0.2287  0.4651  0.0766
   44MOL   H18816614   2.763   4.755   6.934  1.2487  2.8579  0.1540
   44MOL   H18916615   2.668   4.863   7.129  1.5610  1.7144  0.6449
   44MOL   H19016616   2.761   4.845   7.343 -0.3762  1.9411 -0.1986
   44MOL   H19116617   2.986   4.711   7.376 -0.2069  1.4496  0.0873
   44MOL   C19216618   3.122   4.580   7.178 -0.1021  0.3701  0.8549
   44MOL   C19316619   3.241   4.600   7.086  0.3072  0.2291  0.0851
   44MOL   O19416620   3.242   4.638   7.230 -0.5216  0.1081 -1.0400
   44MOL   C19516621   3.269   4.720   7.001 -0.2178  0.6436 -0.1387
   44MOL   O19616622   3.398   4.707   6.953 -0.1536 -0.2457  0.3358
   44MOL   C19716623   3.496   4.763   7.029  0.7636  0.4432  0.0247
   44MOL   C19816624   3.475   4.861   7.130  0.2497  0.0617 -0.3089
   44MOL   C19916625   3.579   4.920   7.197 -0.2072  0.8266 -0.2412
   44MOL   C20016626   3.711   4.883   7.166 -0.3271  0.0924  0.0465
   44MOL   C20116627   3.736   4.784   7.073 -0.2562 -0.3293  0.4147
   44MOL   C20216628   3.628   4.727   6.998 -0.0993 -0.4473  0.9286
   44MOL   H20316629   3.094   4.483   7.218 -1.7129  0.0294 -1.0148
   44MOL   H20416630   3.282   4.502   7.067 -0.2146  0.1754 -0.8010
   44MOL   H20516631   3.229   4.820   7.015 -2.3035 -0.2723  0.5504
   44MOL   H20616632   3.224   4.699   6.904  0.0916 -0.3225 -0.0760
   44MOL   H20716633   3.374   4.883   7.159  0.4744 -1.4221  1.7156
   44MOL   H20816634   3.564   4.993   7.275 -0.4860  0.7233 -0.1987
   44MOL   H20916635   3.794   4.931   7.215 -0.7742 -0.3268  1.2386
   44MOL   H21016636   3.837   4.752   7.051  0.0193  0.7254  0.1373
   44MOL   C21116637   3.653   4.617   6.896 -0.6767  0.0556  1.2546
   44MOL   C21216638   3.650   4.635   6.746 -0.2816  0.5477 -0.0149
   44MOL   O21316639   3.771   4.639   6.821 -0.2646  0.0491 -0.2361
   44MOL   C21416640   3.615   4.762   6.666  0.3383  0.5604 -0.4290
   44MOL   O21516641   3.529   4.720   6.554 -0.8172  0.4194 -0.5906
   44MOL   C21616642   3.395   4.752   6.555  0.1870  0.4889  0.0709
   44MOL   C21716643   3.341   4.823   6.669  0.2768  0.3225  0.4974
   44MOL   C21816644   3.206   4.863   6.674  0.0931  0.4840  0.2394
   44MOL   C21916645   3.123   4.838   6.563 -0.2916 -0.7788  0.2787
   44MOL   C22016646   3.178   4.775   6.445  0.1892 -0.1123  0.4246
   44MOL   C22116647   3.313   4.734   6.440 -0.0166  0.3944  0.5272
   44MOL   H22216648   3.654   4.518   6.941  1.5571 -0.3754  0.3614
   44MOL   H22316649   3.640   4.547   6.683  3.5086  0.8071 -1.1034
   44MOL   H22416650   3.705   4.802   6.619  0.4532  2.0137  0.9767
   44MOL   H22516651   3.592   4.845   6.732  0.3591 -0.1657  0.5156
   44MOL   H22616652   3.383   4.853   6.764  0.5577 -0.5518  0.6519
   44MOL   H22716653   3.160   4.919   6.754 -1.1792 -0.8206  0.4307
   44MOL   H22816654   3.018   4.864   6.560 -0.4094 -1.2364  0.4581
   44MOL   H22916655   3.116   4.766   6.357  2.0755 -1.8193 -0.7502
   44MOL   C23016656   3.376   4.673   6.320  0.4413 -0.1301 -0.2315
   44MOL   C23116657   3.426   4.535   6.301  0.1309  0.0169  0.7763
   44MOL   O23216658   3.289   4.567   6.260 -0.0984  0.2486 -0.1819
   44MOL   C23316659   3.441   4.442   6.421 -0.1831 -0.1052 -0.5624
   44MOL   O23416660   3.490   4.311   6.384 -0.1521 -0.6254  0.3116
   44MOL   C23516661   3.459   4.210   6.470 -0.3837 -0.5710 -0.6315
   44MOL   C23616662   3.558   4.168   6.559  0.3746 -0.5769  0.3940
   44MOL   C23716663   3.541   4.063   6.653 -0.0043 -0.1490 -0.0310
   44MOL   C23816664   3.421   3.991   6.655 -0.2401  0.6509 -0.4723
   44MOL   C23916665   3.314   4.036   6.571 -0.4421 -0.0977  0.0162
   44MOL   C24016666   3.334   4.140   6.473 -0.5420  0.7672 -0.0555
   44MOL   H24116667   3.407   4.752   6.251 -0.4134  0.7380  0.3566
   44MOL   H24216668   3.473   4.493   6.213 -1.2621  0.4191 -0.1711
   44MOL   H24316669   3.341   4.436   6.463  0.6805  0.7461  1.6667
   44MOL   H24416670   3.507   4.471   6.503 -1.7807  3.1627 -0.3813
   44MOL   H24516671   3.652   4.220   6.548  0.2924 -0.2308  1.2218
   44MOL   H24616672   3.619   4.017   6.712 -1.4244 -2.7367 -0.0985
   44MOL   H24716673   3.395   3.910   6.721  0.6395  1.0656  0.4001
   44MOL   H24816674   3.226   3.973   6.580 -0.6622  0.3117  0.8791
   44MOL   C24916675   3.222   4.174   6.372 -0.0991 -0.3427  0.0841
   44MOL   C25016676   3.197   4.090   6.245  0.3258 -0.4860  0.4347
   44MOL   O25116677   3.120   4.074   6.362 -0.3447  0.2779 -0.3007
   44MOL   C25216678   3.283   3.978   6.203  0.4471  0.6328 -0.0168
   44MOL   O25316679   3.228   3.884   6.106  0.2239 -0.6889  0.4342
   44MOL   C25416680   3.125   3.802   6.141 -0.2224  0.1153 -0.0094
   44MOL   C25516681   3.091   3.783   6.276 -0.1398  1.5371  0.2430
   44MOL   C25616682   2.977   3.703   6.319 -0.2382 -0.0231  0.0237
   44MOL   C25716683   2.904   3.633   6.217  0.3128 -0.0270 -0.6124
   44MOL   C25816684   2.937   3.639   6.080 -0.0979  0.4227  0.6962
   44MOL   C25916685   3.042   3.734   6.041 -0.1151 -0.5998  0.1138
   44MOL   H26016686   3.180   4.273   6.386 -1.8656 -1.0825  0.0982
   44MOL   H26116687   3.168   4.152   6.160  2.6066 -0.0300 -0.0427
   44MOL   H26216688   3.339   3.930   6.284 -0.3826 -0.2816  0.0168
   44MOL   H26316689   3.358   4.026   6.140 -0.9695  1.5378 -1.0317
   44MOL   H26416690   3.153   3.830   6.351 -0.0004 -2.5252  2.8641
   44MOL   H26516691   2.944   3.695   6.422  1.1001  1.6038  0.6003
   44MOL   H26616692   2.823   3.567   6.245  0.6645 -0.1924  0.0132
   44MOL   H26716693   2.873   3.588   6.008  2.5241 -0.8816 -0.7672
   44MOL   C26816694   3.061   3.773   5.900  0.3151 -0.1153 -0.1656
   44MOL   C26916695   3.163   3.710   5.815  0.0256 -0.3105  0.0749
   44MOL   O27016696   3.021   3.671   5.811  0.1239  0.2960  0.4856
   44MOL   C27116697   3.259   3.603   5.862  0.1596  0.0105  0.1209
   44MOL   O27216698   3.319   3.569   5.738 -0.4853 -0.4775  0.3325
   44MOL   C27316699   3.332   3.438   5.705  0.0912 -0.0866  0.1838
   44MOL   C27416700   3.317   3.325   5.784 -0.4499 -0.5687 -0.2109
   44MOL   C27516701   3.349   3.198   5.729 -0.2132  0.3059  0.2218
   44MOL   C27616702   3.382   3.180   5.594 -0.3019  0.7422 -0.4757
   44MOL   C27716703   3.397   3.293   5.517 -0.6353  0.5241 -0.2066
   44MOL   C27816704   3.374   3.421   5.572  0.0133  0.1962 -0.2801
   44MOL   H27916705   3.017   3.866   5.865 -0.5989 -0.5552 -0.2170
   44MOL   H28016706   3.182   3.762   5.722 -0.0259  1.2324  0.9137
   44MOL   H28116707   3.191   3.527   5.899  2.1812 -1.0358  1.8194
   44MOL   H28216708   3.329   3.632   5.941 -2.1812  2.4655  1.3772
   44MOL   H28316709   3.286   3.328   5.888 -1.5243  1.8082 -0.5821
   44MOL   H28416710   3.354   3.107   5.787 -0.5646  0.7528  0.9615
   44MOL   H28516711   3.414   3.081   5.564  2.1545  1.5455 -0.6136
   44MOL   H28616712   3.424   3.279   5.413 -0.6099  1.1988 -0.2929
   44MOL   C28716713   3.407   3.541   5.487  0.3389  0.2123 -0.1143
   44MOL   C28816714   3.547   3.574   5.432  0.8579 -0.5188 -0.0989
   44MOL   O28916715   3.436   3.517   5.353 -0.3992  0.4463  0.1118
   44MOL   C29016716   3.669   3.485   5.450 -0.1078 -0.4366  0.6321
   44MOL   O29116717   3.784   3.545   5.386 -0.0760 -0.8462 -0.4563
   44MOL   C29216718   3.799   3.540   5.251  0.6413  0.4951  0.5965
   44MOL   C29316719   3.698   3.498   5.157  0.3165  0.2015 -0.0570
   44MOL   C29416720   3.724   3.485   5.018 -0.1082  0.5599  0.8230
   44MOL   C29516721   3.846   3.538   4.969  1.4763 -0.3423 -0.5398
   44MOL   C29616722   3.941   3.597   5.056 -0.6097 -0.2965  0.2591
   44MOL   C29716723   3.918   3.585   5.200  0.4343 -0.2371  0.3088
   44MOL   H29816724   3.334   3.620   5.503 -0.2356 -0.6095  1.4282
   44MOL   H29916725   3.570   3.676   5.403  1.5978  0.4662  3.6517
   44MOL   H30016726   3.646   3.391   5.400 -2.3309  1.5053 -2.1592
   44MOL   H30116727   3.668   3.466   5.558 -2.0675 -0.8186  0.5604
   44MOL   H30216728   3.601   3.465   5.192  1.2869  0.6169  3.1825
   44MOL   H30316729   3.647   3.454   4.949  2.7320 -1.9769 -1.3352
   44MOL   H30416730   3.855   3.546   4.862  0.9127 -0.5653 -0.6054
   44MOL   H30516731   4.021   3.652   5.008 -0.7122 -1.1604 -0.9037
   44MOL   C30616732   4.008   3.663   5.293 -0.0685  0.1554 -0.0528
   44MOL   C30716733   4.116   3.594   5.374 -0.9171 -0.3841 -0.4952
   44MOL   O30816734   4.146   3.659   5.246 -0.0110 -0.4320  0.8212
   44MOL   C30916735   4.152   3.447   5.383  0.2733 -0.2759  0.2842
   44MOL   O31016736   4.218   3.427   5.506  0.4118 -0.0117  0.5873
   44MOL   C31116737   4.152   3.437   5.624 -0.0806 -0.3154 -0.0899
   44MOL   C31216738   4.010   3.448   5.632 -0.4559  0.3404  0.0711
   44MOL   C31316739   3.954   3.463   5.761  0.0524 -0.2035  0.2737
   44MOL   C31416740   4.032   3.465   5.874 -0.2139 -0.2246  0.0908
   44MOL   C31516741   4.168   3.452   5.871  0.0485  0.2245 -0.6273
   44MOL   C31616742   4.230   3.435   5.745  0.5881  0.0760 -0.6233
   44MOL   H31716743   3.967   3.759   5.325 -1.6980 -0.8424  0.9750
   44MOL   H31816744   4.149   3.646   5.464 -1.5192  0.5982 -0.8301
   44MOL   H31916745   4.216   3.422   5.298 -0.3920  3.2572 -1.3435
   44MOL   H32016746   4.060   3.390   5.380  1.4918 -2.3830  1.5014
   44MOL   H32116747   3.947   3.443   5.544  0.7817 -0.7632 -0.7635
   44MOL   H32216748   3.848   3.481   5.766 -0.0146  0.0891 -1.7279
   44MOL   H32316749   3.979   3.481   5.967  1.3998 -1.3124  1.2269
   44MOL   H32416750   4.223   3.463   5.964 -1.3556  0.9325  0.1325
   44MOL   C32516751   4.372   3.403   5.744 -0.8086  0.3577 -0.6663
   44MOL   C32616752   4.467   3.493   5.676 -0.1540 -0.2277 -0.1454
   44MOL   O32716753   4.463   3.494   5.815  0.5384  0.5064  0.2052
   44MOL   C32816754   4.422   3.627   5.606  0.1111  0.7681 -0.2038
   44MOL   O32916755   4.527   3.718   5.581 -0.2148 -0.3240  0.8812
   44MOL   C33016756   4.620   3.675   5.487  0.0351  1.2661  0.1251
   44MOL   C33116757   4.736   3.614   5.546 -0.1518 -0.1200 -0.1778
   44MOL   C33216758   4.828   3.550   5.459  0.5596  0.2240  0.7512
   44MOL   C33316759   4.810   3.551   5.324  0.4782 -0.1373  0.5657
   44MOL   C33416760   4.701   3.620   5.267 -0.3536 -0.0193  0.3453
   44MOL   C33516761   4.603   3.684   5.350 -0.0577 -0.2298 -0.0658
   44MOL   H33616762   4.379   3.296   5.762  1.7728  0.7095  0.6134
   44MOL   H33716763   4.551   3.441   5.632 -0.0586 -2.6591  2.7524
   44MOL   H33816764   4.337   3.675   5.655  0.1799 -0.4619  1.1395
   44MOL   H33916765   4.376   3.599   5.511 -2.9708 -0.2556  1.5285
   44MOL   H34016766   4.758   3.608   5.651  0.4855  1.9949 -0.1704
   44MOL   H34116767   4.919   3.507   5.496 -0.5083 -1.7797  1.1243
   44MOL   H34216768   4.880   3.502   5.258 -1.2769 -1.4649 -0.3481
   44MOL   H34316769   4.690   3.623   5.160  1.1433 -0.8287  0.1630
   44MOL   C34416770   4.492   3.749   5.292  0.1452 -0.5945 -0.0135
   44MOL   C34516771   4.498   3.878   5.213 -0.2438 -0.1519 -0.6906
   44MOL   O34616772   4.474   3.747   5.157  0.2966  0.4361 -0.4293
   44MOL   C34716773   4.614   3.958   5.157 -0.0669  0.3062 -1.0637
   44MOL   O34816774   4.626   4.098   5.206 -0.5025  0.6943  1.0044
   44MOL   C34916775   4.686   4.131   5.322  0.3338  0.1762 -0.3098
   44MOL   C35016776   4.716   4.031   5.418  0.5927 -0.2009  0.2106
   44MOL   C35116777   4.774   4.071   5.540 -0.0757 -0.0676 -0.6597
   44MOL   C35216778   4.810   4.203   5.565 -0.2999  0.5895  0.2052
   44MOL   C35316779   4.776   4.300   5.473  0.3000 -0.4870  0.1923
   44MOL   C35416780   4.716   4.272   5.350 -0.5580  0.0679  1.1376
   44MOL   H35516781   4.401   3.745   5.352 -0.6018 -0.9093 -1.1607
   44MOL   H35616782   4.407   3.937   5.198 -1.7190 -2.7121 -1.9965
   44MOL   H35716783   4.593   3.963   5.050 -0.8355 -1.4589 -1.0067
   44MOL   H35816784   4.704   3.897   5.167  0.4725  0.9822 -1.7159
   44MOL   H35916785   4.704   3.926   5.400 -0.6826 -0.2203  1.1017
   44MOL   H36016786   4.789   3.997   5.617  3.3906  1.3255  0.1125
   44MOL   H36116787   4.868   4.232   5.652  2.6842 -5.8736  0.6802
   44MOL   H36216788   4.800   4.398   5.510  0.9653 -1.1860  1.6584
   44MOL   C36316789   4.676   4.384   5.261 -0.2169 -0.0130  0.2384
   44MOL   C36416790   4.540   4.451   5.276 -0.4637  0.0806 -0.3150
   44MOL   O36516791   4.667   4.511   5.328 -0.0637  0.1478 -0.9843
   44MOL   C36616792   4.444   4.424   5.386 -0.2016  0.2742  0.6895
   44MOL   O36716793   4.320   4.487   5.364  0.3236 -0.5931  0.2767
   44MOL   C36816794   4.237   4.495   5.471  0.0979  0.2079  0.1525
   44MOL   C36916795   4.251   4.415   5.588 -0.1355 -0.1069 -0.3967
   44MOL   C37016796   4.164   4.425   5.700  1.0274 -0.1312 -0.1735
   44MOL   C37116797   4.061   4.518   5.691 -0.7124  0.3869 -0.6588
   44MOL   C37216798   4.041   4.593   5.570 -0.0702  0.0506  0.0328
   44MOL   C37316799   4.127   4.577   5.459 -0.2851 -1.0709 -0.2394
   44MOL   H37416800   4.723   4.376   5.164  1.1550  0.5410  0.8523
   44MOL   H37516801   4.494   4.510   5.197 -1.1664 -1.4326 -1.0480
   44MOL   H37616802   4.495   4.445   5.480 -0.1245 -0.8371  0.9078
   44MOL   H37716803   4.422   4.317   5.375 -2.5491  0.8071 -0.0593
   44MOL   H37816804   4.336   4.349   5.584 -0.9883 -1.2924  0.3586
   44MOL   H37916805   4.164   4.376   5.797  0.8507  2.7128  1.3002
   44MOL   H38016806   3.987   4.529   5.769  0.0943  0.0518  0.1604
   44MOL   H38116807   3.951   4.653   5.570 -0.8573 -1.0415  2.0719
   44MOL   H38216808   4.117   4.631   5.366 -1.2830  0.3854  0.6832
   45MOL     C116809   0.121   1.287   6.182  0.3147  1.1081 -0.2605
   45MOL     C216810   0.142   1.157   6.258 -0.4114 -0.3802  0.0404
   45MOL     O316811   0.254   1.242   6.223  0.2628  0.1427 -0.1461
   45MOL     C416812   0.137   1.012   6.191 -0.6228 -0.0182 -0.2087
   45MOL     O516813   0.085   1.018   6.061 -0.1952 -0.0671  0.1151
   45MOL     C616814   0.055   0.898   6.003 -0.8705 -0.3043  0.5718
   45MOL     C716815   0.094   0.768   6.051  0.5971 -0.2637  0.1063
   45MOL     C816816   0.056   0.653   5.977  0.4501  0.0901  0.1089
   45MOL     C916817   8.162   0.666   5.851 -0.6418  0.9244 -0.1559
   45MOL    C1016818   8.135   0.792   5.799  0.0389 -0.1958  0.8363
   45MOL    C1116819   8.160   0.909   5.876 -0.0089 -0.2549  0.6591
   45MOL    H1216820   0.079   1.361   6.249  2.1248  2.2123 -0.3093
   45MOL    H1316821   0.130   1.154   6.366 -3.1055  3.5216 -0.0336
   45MOL    H1416822   0.084   0.949   6.262  1.8353 -0.4624  1.2899
   45MOL    H1516823   0.241   0.979   6.200  0.2750  2.3448 -1.5367
   45MOL    H1616824   0.152   0.755   6.141 -0.1826  2.0267  0.9727
   45MOL    H1716825   0.058   0.552   6.015  2.1733  0.8042  1.9971
   45MOL    H1816826   8.140   0.584   5.785 -1.3015  0.2984  0.8390
   45MOL    H1916827   8.078   0.797   5.707  1.5052  1.5862 -0.0075
   45MOL    H2016828   0.104   1.280   6.075 -3.9506  0.1011  0.3940
   45MOL    C2116829   8.114   1.043   5.824 -0.4641  0.2811  0.5369
   45MOL    C2216830   0.042   1.131   5.742 -0.0604 -0.0691 -0.1607
   45MOL    O2316831   8.120   1.036   5.680 -0.3304  0.0660  0.2083
   45MOL    C2416832   0.188   1.098   5.726 -0.4423 -0.5993 -0.4391
   45MOL    O2516833   0.243   1.173   5.622 -0.1093 -0.4173 -0.3164
   45MOL    C2616834   0.235   1.115   5.502 -0.1424 -0.4116  0.4336
   45MOL    C2716835   0.126   1.149   5.415  0.3186  0.2632 -0.4573
   45MOL    C2816836   0.120   1.093   5.287 -0.1843 -1.0235  0.3714
   45MOL    C2916837   0.210   0.998   5.251 -0.8166  0.1880 -0.2079
   45MOL    C3016838   0.318   0.961   5.330 -0.6174  0.1889  0.2872
   45MOL    C3116839   0.335   1.022   5.461 -0.4419 -0.1034 -0.2673
   45MOL    H3216840   8.029   1.086   5.876 -1.1570 -0.8302  0.3331
   45MOL    H3316841   0.020   1.231   5.704  0.6001 -0.2501 -1.0269
   45MOL    H3416842   0.200   0.990   5.717  0.6364 -0.5677  0.4922
   45MOL    H3516843   0.238   1.128   5.819 -1.8412 -0.0085  0.1318
   45MOL    H3616844   0.047   1.212   5.454 -0.4466 -0.1302 -1.3667
   45MOL    H3716845   0.030   1.114   5.231 -0.5053 -0.1688  1.1978
   45MOL    H3816846   0.198   0.959   5.151  1.2869  2.1992 -1.3187
   45MOL    H3916847   0.384   0.885   5.292  1.1922  2.6979 -1.7643
   45MOL    C4016848   0.432   0.982   5.560 -0.0007 -0.5391 -0.5337
   45MOL    C4116849   0.461   0.840   5.615  0.2019  0.7002  0.5186
   45MOL    O4216850   0.531   0.898   5.505 -0.1008 -0.6582  0.1079
   45MOL    C4316851   0.381   0.718   5.574 -0.5565  0.3908  0.1332
   45MOL    O4416852   0.469   0.615   5.545  0.8387 -0.9179 -0.5732
   45MOL    C4516853   0.430   0.506   5.479  0.3099  0.0209  0.7078
   45MOL    C4616854   0.286   0.480   5.465  0.1715  0.2314  0.1769
   45MOL    C4716855   0.250   0.368   5.385 -0.8754 -0.2054 -0.4084
   45MOL    C4816856   0.348   0.281   5.338 -0.4331 -0.7644 -0.4567
   45MOL    C4916857   0.486   0.302   5.359 -0.1118 -0.4129  0.0030
   45MOL    C5016858   0.526   0.416   5.427  0.2689 -0.0270  0.2411
   45MOL    H5116859   0.482   1.065   5.609  0.1230 -0.0990 -1.3895
   45MOL    H5216860   0.518   0.822   5.706 -0.6444 -1.1005  0.7351
   45MOL    H5316861   0.325   0.728   5.482  1.6956  0.9995 -1.2081
   45MOL    H5416862   0.308   0.694   5.652  0.9938 -3.2835  0.5486
   45MOL    H5516863   0.208   0.544   5.504  0.3358 -0.1893  1.1819
   45MOL    H5616864   0.148   0.343   5.358 -0.1528 -1.2352 -2.2744
   45MOL    H5716865   0.327   0.201   5.268  2.2988 -1.5821 -0.3963
   45MOL    H5816866   0.555   0.233   5.310 -0.6400  0.4616 -2.0284
   45MOL    C5916867   0.674   0.448   5.429 -0.6839 -0.4067 -0.7438
   45MOL    C6016868   0.760   0.466   5.550 -0.2320 -0.0472  0.5929
   45MOL    O6116869   0.745   0.337   5.479  0.1469 -0.0252 -0.2100
   45MOL    C6216870   0.718   0.459   5.697  0.1638  0.2001  0.5693
   45MOL    O6316871   0.831   0.443   5.776 -0.3313  0.3637 -0.9922
   45MOL    C6416872   0.892   0.312   5.787  0.3114  0.1270 -0.2009
   45MOL    C6516873   0.825   0.191   5.755 -0.4328 -0.7411  0.0902
   45MOL    C6616874   0.897   0.070   5.746  0.7542 -0.3831 -0.5102
   45MOL    C6716875   1.033   0.065   5.784  0.7129 -0.2955  0.4502
   45MOL    C6816876   1.093   0.181   5.841 -0.0092  0.0393  0.2598
   45MOL    C6916877   1.025   0.306   5.836  0.1764  0.0473  0.2439
   45MOL    H7016878   0.702   0.486   5.331 -0.1716 -1.1600 -0.8981
   45MOL    H7116879   0.852   0.520   5.528  0.6251 -2.3131 -1.6490
   45MOL    H7216880   0.644   0.380   5.708  2.2830 -2.0293 -0.7112
   45MOL    H7316881   0.666   0.550   5.728 -3.2118 -0.6288 -2.3825
   45MOL    H7416882   0.720   0.176   5.736 -0.2881 -0.5796 -0.8470
   45MOL    H7516883   0.841   8.151   5.721 -1.1743  0.0687  2.0564
   45MOL    H7616884   1.087   8.142   5.772  0.3711 -0.5087  0.5356
   45MOL    H7716885   1.193   0.164   5.878 -0.0855  0.7733  0.7967
   45MOL    C7816886   1.108   0.419   5.880  0.5099  0.0239  0.0315
   45MOL    C7916887   1.067   0.514   5.992 -0.1220  0.3801 -0.1134
   45MOL    O8016888   1.152   0.402   6.015  0.2615  0.4380 -0.4547
   45MOL    C8116889   0.933   0.520   6.050 -1.0542 -0.5472  0.6046
   45MOL    O8216890   0.914   0.593   6.172  0.0144  0.1939 -0.4299
   45MOL    C8316891   1.016   0.584   6.260  0.1898 -0.1713 -0.2785
   45MOL    C8416892   1.119   0.682   6.248  0.6709 -0.2250 -0.6521
   45MOL    C8516893   1.227   0.670   6.345 -0.1900 -0.9217 -0.0604
   45MOL    C8616894   1.223   0.567   6.439  0.2058 -0.3846 -0.2382
   45MOL    C8716895   1.111   0.490   6.456 -0.4138  0.1272 -1.0248
   45MOL    C8816896   1.005   0.487   6.363  0.7293 -0.6323  0.4723
   45MOL    H8916897   1.183   0.452   5.809  0.6956  1.1882  0.7623
   45MOL    H9016898   1.121   0.609   5.987  0.4346  0.0665 -0.1739
   45MOL    H9116899   0.907   0.415   6.066 -0.7213 -0.7930 -0.4400
   45MOL    H9216900   0.867   0.564   5.975  1.2757 -0.9715 -1.7661
   45MOL    H9316901   1.121   0.762   6.176 -0.6297  1.2034  0.8539
   45MOL    H9416902   1.311   0.738   6.342 -0.5751 -0.2308  2.9236
   45MOL    H9516903   1.310   0.548   6.501  1.6572  1.6835 -1.5654
   45MOL    H9616904   1.123   0.417   6.534  2.0881  1.5509 -0.0035
   45MOL    C9716905   0.883   0.401   6.376  0.5366 -0.2318 -0.4864
   45MOL    C9816906   0.890   0.256   6.335 -0.4934  0.2369  0.6371
   45MOL    O9916907   0.904   0.293   6.473  0.3641  0.1602  0.5828
   45MOL   C10016908   1.010   0.195   6.263  0.0067  0.0796 -0.2355
   45MOL   O10116909   1.010   0.053   6.252  0.3520 -0.0521  0.0310
   45MOL   C10216910   0.901   8.159   6.201  0.1881 -0.2862 -0.6597
   45MOL   C10316911   0.833   0.023   6.080  0.1886 -0.2416  0.2367
   45MOL   C10416912   0.708   8.131   6.048  0.0168 -0.1295  0.1816
   45MOL   C10516913   0.661   8.034   6.141 -0.3451  0.0853 -0.0435
   45MOL   C10616914   0.739   7.986   6.245 -0.2755 -0.5799  0.9556
   45MOL   C10716915   0.860   8.046   6.278 -0.3744  0.4013  0.2327
   45MOL   H10816916   0.789   0.456   6.381  0.4130 -0.5794  1.2357
   45MOL   H10916917   0.792   0.215   6.310  0.6676 -2.2942  0.0107
   45MOL   H11016918   1.108   0.234   6.290 -0.5689  0.6469  1.0426
   45MOL   H11116919   1.008   0.238   6.162 -3.7017 -1.2069 -0.7941
   45MOL   H11216920   0.866   0.112   6.029 -0.7147 -0.8051 -1.3647
   45MOL   H11316921   0.644   8.163   5.968 -0.4785  1.0572  1.0460
   45MOL   H11416922   0.564   7.986   6.129 -0.0545 -0.7232  0.7248
   45MOL   H11516923   0.693   7.902   6.296  0.0141 -1.0710  0.4164
   45MOL   C11616924   0.927   8.012   6.403 -0.6594  0.3626 -0.8256
   45MOL   C11716925   0.873   8.070   6.534 -0.1728 -0.0214  0.2921
   45MOL   O11816926   0.841   7.942   6.487 -0.1503 -0.1732 -0.4924
   45MOL   C11916927   0.753   8.153   6.539 -0.0942 -0.6358  0.5737
   45MOL   O12016928   0.751   0.051   6.663  0.4547  0.3602 -0.2544
   45MOL   C12116929   0.701   0.178   6.661 -0.4485  0.1340  0.3856
   45MOL   C12216930   0.611   0.224   6.563 -0.8047  0.4878 -0.1564
   45MOL   C12316931   0.545   0.350   6.577  0.3710  0.0208  0.5784
   45MOL   C12416932   0.578   0.425   6.692 -0.0690 -1.0302 -0.6803
   45MOL   C12516933   0.682   0.396   6.782  0.5933  0.6272  0.4131
   45MOL   C12616934   0.735   0.265   6.768 -0.8795  0.0434 -0.4007
   45MOL   H12716935   1.020   7.959   6.383 -1.4094 -1.6273  0.7570
   45MOL   H12816936   0.934   8.077   6.623 -0.5142  0.1886  0.5126
   45MOL   H12916937   0.668   8.087   6.522  0.1846 -0.5135 -1.4552
   45MOL   H13016938   0.768   0.057   6.460  0.7411 -1.8566 -0.4471
   45MOL   H13116939   0.574   0.156   6.487  1.4780 -1.5448  0.4718
   45MOL   H13216940   0.472   0.377   6.503  0.8437  1.6518  0.6835
   45MOL   H13316941   0.528   0.520   6.698  2.3827  0.4835 -3.0458
   45MOL   H13416942   0.699   0.461   6.866 -0.6026  0.1337  1.0535
   45MOL   C13516943   0.830   0.210   6.873 -0.3760 -0.2177 -0.6134
   45MOL   C13616944   0.969   0.262   6.896 -0.9227  0.0391  0.2370
   45MOL   O13716945   0.853   0.304   6.974 -0.5360 -0.0175 -0.0888
   45MOL   C13816946   1.031   0.378   6.825  0.1672 -0.2092 -0.4516
   45MOL   O13916947   1.171   0.380   6.847 -0.2155  0.0772  0.1636
   45MOL   C14016948   1.260   0.304   6.775  0.1240  0.0540 -0.2936
   45MOL   C14116949   1.223   0.205   6.677 -0.3995 -0.1991  0.0228
   45MOL   C14216950   1.315   0.121   6.620 -0.1319  0.1407 -0.0721
   45MOL   C14316951   1.452   0.138   6.658  0.0245 -0.0310  0.3687
   45MOL   C14416952   1.500   0.242   6.739 -0.2415 -0.4994 -0.6326
   45MOL   C14516953   1.401   0.323   6.803  0.0279  0.2885  0.0108
   45MOL   H14616954   0.795   0.114   6.909 -0.9909  0.4787  0.6558
   45MOL   H14716955   1.047   0.206   6.948 -0.7563  0.7828  0.7917
   45MOL   H14816956   0.987   0.469   6.865  1.0303  1.0206 -2.2439
   45MOL   H14916957   1.001   0.376   6.720  0.9925  0.0941 -0.6987
   45MOL   H15016958   1.120   0.187   6.651 -0.1762 -0.9546 -0.3606
   45MOL   H15116959   1.287   0.045   6.549 -0.7939  1.5973 -1.4039
   45MOL   H15216960   1.513   0.060   6.616 -0.5897  1.0974 -2.7130
   45MOL   H15316961   1.608   0.247   6.747 -0.3834  1.3919  0.4670
   45MOL   C15416962   1.443   0.419   6.908  0.0208  0.4128 -0.1885
   45MOL   C15516963   1.449   0.387   7.053  0.0455 -0.0106  0.1259
   45MOL   O15616964   1.570   0.392   6.972  0.1401 -0.1296 -0.6346
   45MOL   C15716965   1.429   0.244   7.102  0.3050 -0.0593 -0.2530
   45MOL   O15816966   1.484   0.223   7.232  0.2471 -0.3008 -0.9945
   45MOL   C15916967   1.421   0.269   7.339  0.2321  0.1020 -0.6561
   45MOL   C16016968   1.280   0.300   7.349  0.2896  0.6478 -0.0037
   45MOL   C16116969   1.228   0.330   7.473  0.1535 -0.2267 -0.3105
   45MOL   C16216970   1.301   0.327   7.588 -0.2798 -0.1632 -0.7244
   45MOL   C16316971   1.437   0.305   7.580  0.1229  0.3400 -0.4048
   45MOL   C16416972   1.499   0.262   7.458  0.3195  1.3744 -0.2154
   45MOL   H16516973   1.438   0.523   6.876  0.9264  2.0360  4.5713
   45MOL   H16616974   1.460   0.468   7.126  0.4942 -0.4037  0.5023
   45MOL   H16716975   1.483   0.180   7.032 -0.6875 -1.8281  0.5708
   45MOL   H16816976   1.324   0.218   7.091  0.4445 -0.5110 -0.5258
   45MOL   H16916977   1.213   0.297   7.265 -0.6288  3.9119  0.5398
   45MOL   H17016978   1.126   0.364   7.486  0.4428  0.4191  0.2680
   45MOL   H17116979   1.254   0.361   7.679 -0.3889  0.4583 -1.0088
   45MOL   H17216980   1.497   0.313   7.670  1.1766  0.8526 -1.1491
   45MOL   C17316981   1.647   0.225   7.455 -0.1085  0.1020 -0.3734
   45MOL   C17416982   1.752   0.324   7.430  0.7134  0.5065  0.3160
   45MOL   O17516983   1.717   0.282   7.565  0.0663 -0.2362 -0.2284
   45MOL   C17616984   1.710   0.466   7.391 -0.3936 -0.3998  0.4539
   45MOL   O17716985   1.810   0.561   7.425 -0.2472 -0.3145 -0.3293
   45MOL   C17816986   1.818   0.679   7.356  0.2299  0.3782 -0.1371
   45MOL   C17916987   1.728   0.707   7.255  0.2461  0.2419  0.0568
   45MOL   C18016988   1.728   0.832   7.188 -0.2249 -0.2378  0.3307
   45MOL   C18116989   1.827   0.929   7.219 -0.8517  0.8739  0.6165
   45MOL   C18216990   1.923   0.894   7.315  0.2161  0.0188 -0.2360
   45MOL   C18316991   1.921   0.773   7.390  0.4845  0.1791 -0.0373
   45MOL   H18416992   1.663   0.118   7.460  1.1597  0.2896 -0.3348
   45MOL   H18516993   1.838   0.275   7.383  0.2799 -2.6556  2.6983
   45MOL   H18616994   1.610   0.490   7.427 -0.4213  0.0781  0.0544
   45MOL   H18716995   1.685   0.453   7.286  1.1786  1.5443 -0.1884
   45MOL   H18816996   1.643   0.644   7.232 -0.4819  0.3243  2.4592
   45MOL   H18916997   1.651   0.852   7.115 -0.6433  1.9943  1.3322
   45MOL   H19016998   1.841   1.019   7.162 -0.8399 -0.2367 -1.1724
   45MOL   H19116999   1.996   0.969   7.341  0.3530 -0.6974  1.5259
   45MOL   C19217000   2.012   0.749   7.506 -0.5606 -0.3052 -0.3662
   45MOL   C19317001   2.116   0.647   7.514 -0.7733  0.8378  0.5330
   45MOL   O19417002   2.146   0.779   7.467  0.2403 -0.1383 -0.0048
   45MOL   C19517003   2.136   0.539   7.413 -0.2283  0.8490 -0.0140
   45MOL   O19617004   2.275   0.506   7.403  0.5042 -0.5562 -0.0869
   45MOL   C19717005   2.328   0.472   7.279  0.0517 -0.6398  0.3391
   45MOL   C19817006   2.252   0.434   7.159 -0.2313 -0.6384 -0.8787
   45MOL   C19917007   2.323   0.393   7.043  0.3588  0.3788  0.1867
   45MOL   C20017008   2.464   0.395   7.031  0.7890 -0.3783 -0.0578
   45MOL   C20117009   2.533   0.435   7.143  0.0200  0.3578 -0.0550
   45MOL   C20217010   2.466   0.470   7.266  0.0538 -0.2786  0.3390
   45MOL   H20317011   1.988   0.812   7.591  1.7420  1.7693 -1.2102
   45MOL   H20417012   2.139   0.627   7.619 -1.6746  0.2361  0.6193
   45MOL   H20517013   2.094   0.571   7.318  1.0182  1.1106 -0.4847
   45MOL   H20617014   2.090   0.448   7.451  1.0634  0.1721 -0.0409
   45MOL   H20717015   2.144   0.440   7.155 -0.1754  2.5172  0.8665
   45MOL   H20817016   2.264   0.362   6.958 -1.6814  1.2430  1.2408
   45MOL   H20917017   2.510   0.376   6.936  0.9172  1.0474 -0.2927
   45MOL   H21017018   2.639   0.449   7.130  0.2018 -0.4138  0.5523
   45MOL   C21117019   2.554   0.534   7.369 -0.0983  0.1271 -0.3646
   45MOL   C21217020   2.605   0.482   7.492 -0.1353  0.1127  0.2434
   45MOL   O21317021   2.687   0.480   7.377 -0.2903 -0.2631 -0.4218
   45MOL   C21417022   2.558   0.348   7.542 -0.1274 -0.1218 -0.1634
   45MOL   O21517023   2.670   0.282   7.609  0.2376 -0.0180  0.1650
   45MOL   C21617024   2.643   0.169   7.674 -0.0673  0.3458  0.0545
   45MOL   C21717025   2.524   0.148   7.744 -0.3655 -0.3723 -0.3683
   45MOL   C21817026   2.500   0.025   7.816  0.0586 -0.0933  0.0106
   45MOL   C21917027   2.601   8.106   7.828 -0.1216 -0.6348  0.0135
   45MOL   C22017028   2.719   8.117   7.749  0.4959  0.5314  0.3753
   45MOL   C22117029   2.743   0.070   7.679  0.3526  0.2224  0.4914
   45MOL   H22217030   2.558   0.641   7.350 -0.6048  0.0912 -0.6929
   45MOL   H22317031   2.635   0.553   7.569 -0.7530  1.1405 -0.4376
   45MOL   H22417032   2.531   0.280   7.462 -2.6705 -1.2477  1.6080
   45MOL   H22517033   2.469   0.372   7.600  1.3667  3.8345  0.6525
   45MOL   H22617034   2.439   0.213   7.752  0.3679  0.5250  0.1572
   45MOL   H22717035   2.408   8.165   7.863  0.6819 -2.3733 -0.1501
   45MOL   H22817036   2.604   8.024   7.899 -1.4543 -0.5618  0.1755
   45MOL   H22917037   2.797   8.043   7.752 -1.5015 -1.6070  0.9878
   45MOL   C23017038   2.870   0.105   7.611  0.5652 -0.3475 -0.3954
   45MOL   C23117039   2.970   0.213   7.667  0.7482 -0.4482  0.0342
   45MOL   O23217040   2.994   0.073   7.677  0.0896  0.2607  0.5811
   45MOL   C23317041   2.950   0.273   7.808  0.7652 -0.9475  0.5401
   45MOL   O23417042   3.067   0.332   7.869 -0.0559  0.3848 -0.0666
   45MOL   C23517043   3.104   0.458   7.823  0.2185 -0.8242 -0.1186
   45MOL   C23617044   3.053   0.517   7.705 -0.3843  0.1294  0.3471
   45MOL   C23717045   3.078   0.646   7.671 -0.2711 -0.0918  0.0046
   45MOL   C23817046   3.162   0.719   7.751  0.3553 -0.0191 -0.4173
   45MOL   C23917047   3.212   0.671   7.874  0.9572  0.2303  0.2689
   45MOL   C24017048   3.177   0.541   7.912 -0.2123  0.0397  0.0251
   45MOL   H24117049   2.862   0.074   7.507  0.7449 -2.4437  0.2002
   45MOL   H24217050   3.046   0.265   7.609  0.4193 -0.1581 -0.1379
   45MOL   H24317051   2.912   0.200   7.879 -2.5572 -1.5411 -1.7805
   45MOL   H24417052   2.873   0.350   7.802  1.2420 -0.6273 -1.7512
   45MOL   H24517053   2.995   0.460   7.634  2.9122 -0.4957 -1.9809
   45MOL   H24617054   3.035   0.697   7.586 -0.1642 -1.1899 -0.7087
   45MOL   H24717055   3.188   0.820   7.727 -1.7763  1.5329  3.3182
   45MOL   H24817056   3.267   0.728   7.947 -0.6648  0.4624  1.3261
   45MOL   C24917057   3.218   0.489   8.047  0.0769 -0.0332  0.4548
   45MOL   C25017058   3.341   0.424   8.073  0.6970 -0.1385 -0.1185
   45MOL   O25117059   3.331   0.563   8.094 -0.3968  0.2602 -0.1869
   45MOL   C25217060   3.436   0.376   7.965 -0.3026  0.0070 -0.9358
   45MOL   O25317061   3.565   0.409   8.004  0.4094  0.3124 -0.4591
   45MOL   C25417062   3.620   0.340   8.115 -0.5631 -0.1780  1.4825
   45MOL   C25517063   3.577   0.215   8.159 -0.0382 -0.4066  0.1063
   45MOL   C25617064   3.647   0.145   0.090 -0.6366  0.0985 -0.6401
   45MOL   C25717065   3.763   0.202   0.150  0.1130 -0.8614  0.2954
   45MOL   C25817066   3.805   0.330   0.105 -0.1346 -0.9702 -1.1732
   45MOL   C25917067   3.735   0.406   0.006 -0.1067  0.4060 -0.3702
   45MOL   H26017068   3.137   0.465   8.116  1.0887 -0.3031  1.5708
   45MOL   H26117069   3.346   0.368   8.166 -0.1927 -1.2709 -0.7408
   45MOL   H26217070   3.433   0.429   7.870 -1.1450 -1.9151 -2.0106
   45MOL   H26317071   3.419   0.272   7.938 -0.6442 -0.3063  0.4776
   45MOL   H26417072   3.487   0.172   8.118 -0.4404  0.5876 -0.0640
   45MOL   H26517073   3.622   0.044   0.118 -3.4096  0.9700  0.2259
   45MOL   H26617074   3.824   0.157   0.227  1.5788 -0.6012 -0.6880
   45MOL   H26717075   3.898   0.366   0.147 -0.9923 -0.4627  0.3019
   45MOL   C26817076   3.769   0.548   8.131 -0.4086  0.0426 -0.5300
   45MOL   C26917077   3.730   0.673   0.037 -0.9437 -0.1064  0.7305
   45MOL   O27017078   3.856   0.610   0.061 -0.1323  0.0005  0.0085
   45MOL   C27117079   3.624   0.672   0.148  0.3882 -0.8165  0.1589
   45MOL   O27217080   3.596   0.794   0.219 -0.2719 -0.9375  0.0346
   45MOL   C27317081   3.520   0.889   0.153  0.2655 -0.7360 -0.5754
   45MOL   C27417082   3.589   0.993   0.089 -0.9141  0.6145  0.9536
   45MOL   C27517083   3.515   1.095   0.022 -0.1327  0.6043  0.1543
   45MOL   C27617084   3.373   1.084   0.024  0.1439  0.7817  0.2386
   45MOL   C27717085   3.315   0.970   0.083  0.7686 -0.6934 -0.4975
   45MOL   C27817086   3.382   0.873   0.154 -0.6212 -0.1412 -0.0147
   45MOL   H27917087   3.803   0.553   8.028  1.1012  1.7183  0.0195
   45MOL   H28017088   3.746   0.767   8.153  0.7394 -1.3742 -1.0701
   45MOL   H28117089   3.651   0.605   0.230  0.5011 -0.0359  0.7771
   45MOL   H28217090   3.531   0.635   0.106  1.1184  0.0417 -2.2721
   45MOL   H28317091   3.694   1.007   0.106 -1.1375  2.1720  1.1566
   45MOL   H28417092   3.569   1.181   8.155  0.7956 -0.5911 -1.3002
   45MOL   H28517093   3.300   1.153   8.153 -3.3928 -1.6274  2.1495
   45MOL   H28617094   3.208   0.961   0.075  0.4845 -1.9727  3.7818
   45MOL   C28717095   3.314   0.765   0.234  0.5800 -0.3945 -1.0280
   45MOL   C28817096   3.334   0.752   0.384 -0.1889 -0.1755  0.0905
   45MOL   O28917097   3.216   0.810   0.328 -0.1458  0.1858  0.3391
   45MOL   C29017098   3.412   0.851   0.463  0.1980  0.5504  0.0196
   45MOL   O29117099   3.365   0.826   0.593 -0.0542 -0.5123  0.2563
   45MOL   C29217100   3.433   0.879   0.704 -0.2352 -0.0520  0.5942
   45MOL   C29317101   3.533   0.977   0.695 -0.0366 -0.1068 -0.6475
   45MOL   C29417102   3.603   1.026   0.806  0.7133  0.1080  0.1902
   45MOL   C29517103   3.586   0.965   0.930 -0.3717 -0.8977 -0.0783
   45MOL   C29617104   3.480   0.875   0.947 -0.0403 -0.1012  0.5606
   45MOL   C29717105   3.405   0.830   0.834 -0.4134 -0.8787 -0.5097
   45MOL   H29817106   3.283   0.674   0.182 -1.6832 -0.1337 -0.2029
   45MOL   H29917107   3.316   0.652   0.424 -2.2944 -1.2721 -3.3527
   45MOL   H30017108   3.397   0.956   0.435 -0.3991  0.4705  0.0329
   45MOL   H30117109   3.518   0.826   0.462  0.0720  0.0157 -1.4259
   45MOL   H30217110   3.547   1.021   0.598  0.7274  2.6430  0.6566
   45MOL   H30317111   3.669   1.112   0.796  1.0685  0.1964  2.9447
   45MOL   H30417112   3.639   0.996   1.019 -0.9554  0.8105 -0.3032
   45MOL   H30517113   3.457   0.822   1.038  2.0664 -1.6101  0.2503
   45MOL   C30617114   3.296   0.732   0.846  0.2341  0.1070  0.2917
   45MOL   C30717115   3.331   0.584   0.886 -0.1624  0.4827  0.4163
   45MOL   O30817116   3.275   0.681   0.977 -0.5707 -0.3902 -0.2661
   45MOL   C30917117   3.471   0.530   0.927  0.4938 -0.6455 -0.2531
   45MOL   O31017118   3.560   0.547   0.813  0.0256  0.8485  0.3307
   45MOL   C31117119   3.554   0.468   0.706  0.9549 -0.2181 -0.6241
   45MOL   C31217120   3.456   0.363   0.682 -0.2600 -0.9260 -0.1677
   45MOL   C31317121   3.447   0.300   0.557  0.9122  0.6741 -0.8017
   45MOL   C31417122   3.541   0.329   0.459  0.2305 -0.1482 -0.1497
   45MOL   C31517123   3.641   0.427   0.480 -0.1119  0.0298 -0.0669
   45MOL   C31617124   3.653   0.485   0.606  0.5139  0.5230  0.3706
   45MOL   H31717125   3.208   0.759   0.789 -0.8272  1.6873  2.6087
   45MOL   H31817126   3.264   0.504   0.856 -0.6061  1.8360 -2.3688
   45MOL   H31917127   3.465   0.425   0.954 -2.4279 -0.8483 -1.5224
   45MOL   H32017128   3.514   0.591   1.007 -1.7393  2.4479 -1.3236
   45MOL   H32117129   3.387   0.336   0.761 -0.3792  2.5816  1.0110
   45MOL   H32217130   3.363   0.233   0.552  1.0635  0.5243 -1.3371
   45MOL   H32317131   3.546   0.277   0.364 -0.6211  1.5564 -1.1510
   45MOL   H32417132   3.720   0.455   0.411 -1.0212 -0.7037 -1.4208
   45MOL   C32517133   3.758   0.587   0.641 -0.1652 -0.5517  0.2222
   45MOL   C32617134   3.869   0.559   0.736  0.3179  0.4726  0.4857
   45MOL   O32717135   3.887   0.549   0.593  0.1236 -0.3282  0.7181
   45MOL   C32817136   3.907   0.431   0.818  0.0527 -0.3882 -0.3490
   45MOL   O32917137   3.836   0.315   0.771  0.8099 -0.8246 -0.1612
   45MOL   C33017138   3.903   0.203   0.782  0.3223  1.1374  0.8295
   45MOL   C33117139   3.931   0.167   0.912 -0.3695 -0.0586 -0.4939
   45MOL   C33217140   3.993   0.044   0.945 -0.6181  0.3321 -0.1640
   45MOL   C33317141   4.031   8.131   0.836 -0.2360 -0.4426 -0.2633
   45MOL   C33417142   4.010   8.169   0.703  0.8018 -0.8227  0.0233
   45MOL   C33517143   3.944   0.121   0.676  0.0598  0.0811 -0.1332
   45MOL   H33617144   3.722   0.690   0.641 -1.8118 -1.1144 -0.4677
   45MOL   H33717145   3.912   0.649   0.780  0.8245  0.0839  0.7871
   45MOL   H33817146   3.889   0.459   0.922  0.0881  2.9087 -1.1525
   45MOL   H33917147   4.015   0.423   0.806  0.2411  1.4435 -0.1494
   45MOL   H34017148   3.905   0.235   0.992 -1.0775  0.2294 -0.9568
   45MOL   H34117149   4.009   0.001   1.043  2.2057 -1.2399 -1.2525
   45MOL   H34217150   4.083   8.036   0.847 -0.4991 -0.5766 -0.1689
   45MOL   H34317151   4.042   8.108   0.620 -3.1733 -0.6727 -1.7067
   45MOL   C34417152   3.928   0.160   0.530  0.2825  0.4396 -0.0423
   45MOL   C34517153   4.021   0.263   0.468 -0.1764 -0.1846 -0.0030
   45MOL   O34617154   4.034   0.117   0.442 -0.1158 -0.3010 -0.0849
   45MOL   C34717155   4.138   0.335   0.539 -0.2414 -0.4551 -0.3474
   45MOL   O34817156   4.217   0.400   0.443 -0.6058 -0.8325  0.2030
   45MOL   C34917157   4.331   0.334   0.398 -0.4037  0.6453 -0.9497
   45MOL   C35017158   4.371   0.205   0.447  0.1378  0.5231  0.6089
   45MOL   C35117159   4.499   0.156   0.408  0.2042 -0.8257 -0.5274
   45MOL   C35217160   4.581   0.232   0.323  0.5078  0.2913  0.0360
   45MOL   C35317161   4.534   0.354   0.268 -0.0852  0.1986 -0.4288
   45MOL   C35417162   4.408   0.406   0.301 -0.7214 -0.0025  0.5995
   45MOL   H35517163   3.830   0.139   0.489 -0.1023 -0.7389  1.4009
   45MOL   H35617164   3.966   0.329   0.402  0.9365 -0.8775 -1.6584
   45MOL   H35717165   4.178   0.256   0.603 -0.3870  0.0162  0.3317
   45MOL   H35817166   4.091   0.408   0.605 -3.4212 -0.2815 -2.6822
   45MOL   H35917167   4.316   0.152   0.524  0.5958  0.0126  0.5939
   45MOL   H36017168   4.520   0.054   0.436 -3.7820 -2.1928 -2.1543
   45MOL   H36117169   4.678   0.196   0.291 -0.2696 -1.5460 -0.3009
   45MOL   H36217170   4.600   0.417   0.211 -1.2427  1.5238 -0.3498
   45MOL   C36317171   4.367   0.544   0.248  0.1361  0.9101  0.2579
   45MOL   C36417172   4.392   0.675   0.324  0.0647 -0.0124 -0.1526
   45MOL   O36517173   4.485   0.629   0.223  0.4021 -0.2405 -0.0137
   45MOL   C36617174   4.459   0.685   0.454  0.2089  0.3431 -0.2069
   45MOL   O36717175   4.454   0.810   0.508 -0.1314  0.3102  0.3269
   45MOL   C36817176   4.545   0.903   0.470 -0.1252  0.1742 -0.0887
   45MOL   C36917177   4.530   1.030   0.523  0.5757 -0.7369  0.0520
   45MOL   C37017178   4.619   1.131   0.487  0.3433  0.6408 -0.2639
   45MOL   C37117179   4.725   1.106   0.397 -0.3553  0.1085  0.2244
   45MOL   C37217180   4.728   0.983   0.332  0.5535 -0.2787 -0.5354
   45MOL   C37317181   4.645   0.879   0.374 -0.0882  0.3023  0.8797
   45MOL   H37417182   4.301   0.529   0.164  2.2028  1.2244 -1.4649
   45MOL   H37517183   4.342   0.763   0.284 -1.2968 -0.1443  1.1966
   45MOL   H37617184   4.565   0.660   0.452  0.1514 -0.1827  2.1743
   45MOL   H37717185   4.413   0.604   0.509  1.2564  0.0390  0.2355
   45MOL   H37817186   4.455   1.045   0.600  0.2219 -0.4183 -0.3530
   45MOL   H37917187   4.605   1.227   0.535  0.2351 -0.4098  1.8726
   45MOL   H38017188   4.799   1.182   0.380 -2.0906  2.1523  1.5046
   45MOL   H38117189   4.802   0.969   0.255  2.5974  0.8693  1.1776
   45MOL   H38217190   4.656   0.785   0.323  0.5298  1.4512 -1.1476
   46MOL     C117191   3.530   1.555   3.921  0.6252 -0.3883  0.5434
   46MOL     C217192   3.428   1.458   3.979 -0.2209 -0.1926  0.2296
   46MOL     O317193   3.506   1.546   4.058 -0.1067  0.3751 -0.5796
   46MOL     C417194   3.460   1.308   3.982  0.4451  0.1609 -0.2075
   46MOL     O517195   3.349   1.231   3.935 -0.2288  0.2030  0.3798
   46MOL     C617196   3.234   1.199   4.009  0.3357  0.3612  0.1167
   46MOL     C717197   3.220   1.258   4.138 -0.4515 -0.3413  0.0380
   46MOL     C817198   3.107   1.226   4.217  0.5373  0.2406  0.1468
   46MOL     C917199   3.002   1.151   4.168  0.6522 -0.0195 -0.1951
   46MOL    C1017200   3.013   1.093   4.041 -0.4320 -0.7194 -0.2488
   46MOL    C1117201   3.128   1.111   3.964 -0.5474  0.3078  0.4839
   46MOL    H1217202   3.492   1.647   3.877 -0.6486 -1.4915 -0.7470
   46MOL    H1317203   3.323   1.484   3.993 -0.3586 -0.0638 -0.9690
   46MOL    H1417204   3.482   1.280   4.085 -1.8857 -1.1882 -0.0526
   46MOL    H1517205   3.551   1.287   3.926  2.1788  0.0630  2.5407
   46MOL    H1617206   3.293   1.332   4.169 -0.2961 -0.6049  0.2990
   46MOL    H1717207   3.089   1.269   4.314 -0.5871 -1.7431  0.8549
   46MOL    H1817208   2.908   1.142   4.220  0.6398  0.9455 -0.0544
   46MOL    H1917209   2.929   1.030   4.016 -0.6196 -1.8148  2.9810
   46MOL    H2017210   3.625   1.510   3.892  0.4734 -0.1250 -0.3823
   46MOL    C2117211   3.140   1.049   3.832 -0.1245 -0.3184  1.0311
   46MOL    C2217212   3.244   0.941   3.813 -0.5257 -0.1961 -0.2096
   46MOL    O2317213   3.108   0.907   3.838 -0.0404  0.1458 -0.3441
   46MOL    C2417214   3.344   0.899   3.918 -0.0584  0.8818  0.4180
   46MOL    O2517215   3.413   0.772   3.883  0.0755  0.3319  0.0890
   46MOL    C2617216   3.484   0.761   3.767 -0.3595  0.0882 -0.2422
   46MOL    C2717217   3.540   0.873   3.706 -0.0102 -0.1260  1.4004
   46MOL    C2817218   3.607   0.853   3.586 -0.4646 -0.4063  0.2980
   46MOL    C2917219   3.632   0.726   3.532  0.3318  0.1135  0.3001
   46MOL    C3017220   3.581   0.614   3.597  0.7859  0.2545 -0.5874
   46MOL    C3117221   3.500   0.625   3.711  0.5522  0.2189 -0.0439
   46MOL    H3217222   3.085   1.098   3.752 -0.3329  1.6097  2.2959
   46MOL    H3317223   3.277   0.914   3.713  2.0994 -3.1625  1.3779
   46MOL    H3417224   3.300   0.895   4.017  0.9684  1.5702  0.9121
   46MOL    H3517225   3.417   0.978   3.936  0.6750  0.5715 -1.0945
   46MOL    H3617226   3.524   0.974   3.739  0.9859  0.7173 -0.6042
   46MOL    H3717227   3.650   0.939   3.537 -1.5695  0.4457  0.7847
   46MOL    H3817228   3.685   0.703   3.440  1.8881 -1.5743  1.5994
   46MOL    H3917229   3.582   0.517   3.549  0.6258  0.2193 -0.5172
   46MOL    C4017230   3.431   0.507   3.774 -1.1708 -0.2911 -0.2577
   46MOL    C4117231   3.281   0.486   3.793 -0.4174  0.1891  0.1163
   46MOL    O4217232   3.356   0.423   3.685 -0.3059  0.1957  0.1874
   46MOL    C4317233   3.181   0.598   3.764 -0.2807 -0.4383  0.5051
   46MOL    O4417234   3.049   0.547   3.748 -0.4440 -0.3781 -0.2132
   46MOL    C4517235   2.966   0.532   3.859  0.1988 -0.2096 -0.0120
   46MOL    C4617236   3.011   0.554   3.994  0.3457 -0.4567  0.2307
   46MOL    C4717237   2.913   0.551   4.092 -0.1448 -0.2076 -0.1350
   46MOL    C4817238   2.788   0.486   4.074 -0.2492 -0.4147  0.0701
   46MOL    C4917239   2.755   0.450   3.942  1.2258 -0.1767  0.4354
   46MOL    C5017240   2.836   0.480   3.833 -0.1494 -0.6169  0.0565
   46MOL    H5117241   3.495   0.457   3.847  0.5130  0.5573 -1.1353
   46MOL    H5217242   3.235   0.399   3.840 -2.6511  0.2677 -1.7811
   46MOL    H5317243   3.202   0.638   3.665  0.0231 -1.7284  0.0338
   46MOL    H5417244   3.181   0.682   3.832 -2.4396 -0.1371  0.1720
   46MOL    H5517245   3.102   0.607   4.015 -0.1749  0.4311  0.2647
   46MOL    H5617246   2.940   0.591   4.188  0.8522 -0.7071 -0.1999
   46MOL    H5717247   2.720   0.469   4.156 -1.2550 -0.6252 -0.7998
   46MOL    H5817248   2.655   0.415   3.924  0.5033  2.4265 -0.9510
   46MOL    C5917249   2.779   0.487   3.689  1.0192  0.1757  0.6749
   46MOL    C6017250   2.792   0.379   3.591 -0.3342 -0.9908  0.1807
   46MOL    O6117251   2.677   0.377   3.682  0.4497  0.0735  0.1159
   46MOL    C6217252   2.879   0.255   3.609 -0.1506  0.5893  0.5962
   46MOL    O6317253   2.842   0.145   3.525  0.3198 -0.7256 -0.1061
   46MOL    C6417254   2.858   0.152   3.387 -0.1965  0.1961  0.2876
   46MOL    C6517255   2.757   0.085   3.314  0.3619 -0.0873 -0.0343
   46MOL    C6617256   2.767   0.075   3.173 -0.4334  0.2308 -0.4393
   46MOL    C6717257   2.870   0.139   3.106 -0.0503  0.9484  0.5333
   46MOL    C6817258   2.969   0.211   3.175  0.6358 -0.2534  0.7440
   46MOL    C6917259   2.965   0.206   3.316  0.1969 -0.4762  0.4026
   46MOL    H7017260   2.729   0.579   3.661 -0.1094 -0.5201  0.3723
   46MOL    H7117261   2.756   0.389   3.489  0.8808 -0.6798 -0.2334
   46MOL    H7217262   2.871   0.233   3.715 -1.6995 -0.9361  0.2036
   46MOL    H7317263   2.987   0.267   3.609 -0.0107 -0.4027 -1.3120
   46MOL    H7417264   2.672   0.039   3.362 -0.2213  1.1454  0.1309
   46MOL    H7517265   2.683   0.023   3.128  0.6715 -2.2032  0.2576
   46MOL    H7617266   2.881   0.131   2.999 -2.1357 -1.1878  0.4261
   46MOL    H7717267   3.054   0.260   3.131  0.7866 -0.9714  0.2259
   46MOL    C7817268   3.084   0.275   3.381 -0.3381  0.1577 -0.2658
   46MOL    C7917269   3.206   0.208   3.428 -0.1901 -0.2233  0.4607
   46MOL    O8017270   3.202   0.272   3.300  0.0677  0.1001 -0.1675
   46MOL    C8117271   3.230   0.059   3.421 -0.7140  0.7095 -0.5496
   46MOL    O8217272   3.358   0.040   3.481 -0.4519 -0.8799 -0.1156
   46MOL    C8317273   3.387   8.088   3.538 -0.2154 -0.8715  0.1909
   46MOL    C8417274   3.309   7.978   3.508  1.1642 -0.3729  0.2539
   46MOL    C8517275   3.330   7.842   3.559 -0.6438 -0.3414  0.8927
   46MOL    C8617276   3.435   7.838   3.650  0.3139  0.0580  0.1993
   46MOL    C8717277   3.509   7.953   3.695 -0.3739  0.6508  0.1452
   46MOL    C8817278   3.490   8.079   3.630  1.2074  0.3545 -0.7690
   46MOL    H8917279   3.063   0.374   3.419 -0.0492  0.4295 -0.8114
   46MOL    H9017280   3.249   0.269   3.507  0.7229 -1.4870  0.9649
   46MOL    H9117281   3.224   0.035   3.315 -1.3461  0.4002 -0.4481
   46MOL    H9217282   3.159   8.167   3.477  2.1031  0.3356  2.8488
   46MOL    H9317283   3.213   7.976   3.458 -0.0817 -1.6605  2.5807
   46MOL    H9417284   3.268   7.758   3.532 -0.3108 -0.0154 -0.9911
   46MOL    H9517285   3.455   7.752   3.713  1.5608  0.9168  0.9864
   46MOL    H9617286   3.580   7.944   3.776 -2.0189  3.0137  1.8901
   46MOL    C9717287   3.563   0.034   3.671  0.1595 -0.9184  0.3024
   46MOL    C9817288   3.517   0.123   3.784  0.3369  0.6854 -0.7336
   46MOL    O9917289   3.620   0.024   3.801 -0.1054  0.2248 -0.5444
   46MOL   C10017290   3.380   0.097   3.843  0.2947  0.6728  0.7826
   46MOL   O10117291   3.346   0.183   3.950 -0.2467 -0.2046  0.0687
   46MOL   C10217292   3.364   0.146   4.081 -0.2716 -0.3663 -0.3574
   46MOL   C10317293   3.469   0.064   4.123 -0.7294 -0.7822 -0.3624
   46MOL   C10417294   3.508   0.048   4.252  0.0113  0.5355 -0.1253
   46MOL   C10517295   3.427   0.103   4.356  0.1248 -0.3589  0.5161
   46MOL   C10617296   3.312   0.178   4.314  0.1439  0.3029 -0.8086
   46MOL   C10717297   3.276   0.195   4.181 -0.4468 -0.5366 -0.7308
   46MOL   H10817298   3.627   0.078   3.594 -1.3376  0.4474 -0.2009
   46MOL   H10917299   3.547   0.227   3.786 -0.8717  1.0156  1.9082
   46MOL   H11017300   3.366   8.165   3.878  1.3473  0.7734  1.5366
   46MOL   H11117301   3.307   0.122   3.766 -0.7691 -1.5299  1.0196
   46MOL   H11217302   3.539   0.020   4.055 -0.0471  0.3836 -0.4378
   46MOL   H11317303   3.592   8.153   4.270  1.0053  1.1732 -2.2782
   46MOL   H11417304   3.464   0.108   4.457 -0.8483  2.0595  0.7926
   46MOL   H11517305   3.245   0.205   4.394 -0.9237 -0.1230 -1.5441
   46MOL   C11617306   3.152   0.273   4.143 -0.1623  0.6529 -0.1134
   46MOL   C11717307   3.023   0.205   4.131 -0.0180  0.1437  0.3504
   46MOL   O11817308   3.060   0.274   4.249 -0.4872  0.3283  0.0581
   46MOL   C11917309   3.021   0.058   4.157  0.3408 -0.1835  0.0530
   46MOL   O12017310   3.067   8.167   4.038  0.2916  0.0861  0.5538
   46MOL   C12117311   2.973   8.114   3.950  0.7073 -0.5656  0.2161
   46MOL   C12217312   2.857   0.016   3.914 -0.5544  0.2482  0.3836
   46MOL   C12317313   2.771   8.133   3.812 -0.6751  0.1528  0.0668
   46MOL   C12417314   2.808   8.011   3.747 -0.0145 -0.1906  0.3235
   46MOL   C12517315   2.933   7.951   3.784 -0.2407  0.0321 -1.0566
   46MOL   C12617316   3.020   7.998   3.885  0.8021 -0.7044  0.0926
   46MOL   H12717317   3.161   0.366   4.088  1.4520  2.0008  2.2919
   46MOL   H12817318   2.944   0.250   4.073  0.1569 -1.3609 -1.0786
   46MOL   H12917319   2.919   0.029   4.181  1.1609 -1.1079  2.5599
   46MOL   H13017320   3.084   0.028   4.240  1.2578 -0.4949 -0.7426
   46MOL   H13117321   2.838   0.112   3.959  0.7122  0.1363  1.1725
   46MOL   H13217322   2.684   0.020   3.782  0.6002  2.9350  1.4468
   46MOL   H13317323   2.753   7.967   3.665  0.0863 -2.0506  1.2299
   46MOL   H13417324   2.960   7.857   3.738 -0.0692 -0.1694 -0.5500
   46MOL   C13517325   3.145   7.925   3.925 -0.0682  0.1313 -0.4135
   46MOL   C13617326   3.147   7.770   3.949 -0.3932 -0.1744 -0.0989
   46MOL   O13717327   3.175   7.831   3.823 -0.3217  0.4689 -0.0264
   46MOL   C13817328   3.025   7.675   3.948 -0.4680  0.4210 -0.1676
   46MOL   O13917329   3.069   7.544   3.967  0.1283 -0.1723  0.2236
   46MOL   C14017330   2.970   7.455   4.018 -0.3751  0.1840 -0.2469
   46MOL   C14117331   2.834   7.479   4.009  0.2924  0.2296 -0.5065
   46MOL   C14217332   2.738   7.386   4.047 -0.1819  0.4772 -0.1127
   46MOL   C14317333   2.785   7.273   4.116  0.1806  0.1841  0.4658
   46MOL   C14417334   2.921   7.250   4.134 -0.4316 -0.5728  0.0705
   46MOL   C14517335   3.017   7.335   4.080  0.2720 -0.8032  0.0208
   46MOL   H14617336   3.230   7.989   3.951 -2.1404  2.0051  2.1037
   46MOL   H14717337   3.232   7.734   4.006  0.0812  1.2184  0.0969
   46MOL   H14817338   2.966   7.676   3.856  0.8740 -1.5385 -1.0754
   46MOL   H14917339   2.964   7.704   4.033  0.6643  0.4806  0.6344
   46MOL   H15017340   2.800   7.567   3.956  0.7155  0.7314  0.0552
   46MOL   H15117341   2.631   7.400   4.035 -0.3575 -0.3815  0.3793
   46MOL   H15217342   2.720   7.194   4.148 -0.7468  0.5595 -0.4336
   46MOL   H15317343   2.948   7.158   4.184 -0.8820  0.1583  1.6820
   46MOL   C15417344   3.169   7.316   4.096 -0.0771 -0.5213  0.0812
   46MOL   C15517345   3.242   7.362   4.217  0.4104 -0.0530 -0.1447
   46MOL   O15617346   3.200   7.228   4.206  0.3159  0.4080 -0.4167
   46MOL   C15717347   3.170   7.427   4.336 -1.0421 -0.3966 -0.0832
   46MOL   O15817348   3.260   7.427   4.443  0.2156 -0.4654  0.1069
   46MOL   C15917349   3.214   7.471   4.564 -0.0345 -0.1982 -0.0534
   46MOL   C16017350   3.077   7.509   4.585 -0.6704 -1.0651  0.5166
   46MOL   C16117351   3.043   7.568   4.709  0.5599 -0.0685  0.6521
   46MOL   C16217352   3.138   7.579   4.811  0.2367  0.2386  0.4667
   46MOL   C16317353   3.271   7.535   4.792 -0.0156  0.4470  0.7062
   46MOL   C16417354   3.306   7.476   4.668 -0.0578  0.0817 -0.8892
   46MOL   H16517355   3.220   7.299   4.001  1.6090  1.9914  0.5079
   46MOL   H16617356   3.350   7.370   4.207  0.9057 -3.6475  1.3855
   46MOL   H16717357   3.085   7.364   4.365 -1.2557 -0.9671 -1.8775
   46MOL   H16817358   3.138   7.528   4.313  1.5221  0.0395 -1.8893
   46MOL   H16917359   3.007   7.519   4.504  1.1579  1.6693 -0.7993
   46MOL   H17017360   2.950   7.618   4.732  0.2968  1.0676 -2.6875
   46MOL   H17117361   3.115   7.634   4.901 -0.1484  3.1572 -1.3468
   46MOL   H17217362   3.344   7.542   4.871  1.3232 -1.1731 -0.3563
   46MOL   C17317363   3.439   7.411   4.651 -0.3749 -0.6282  0.1613
   46MOL   C17417364   3.557   7.468   4.583  0.1180 -0.6679 -0.2793
   46MOL   O17517365   3.542   7.467   4.729 -0.2447  0.0512 -0.3280
   46MOL   C17617366   3.548   7.596   4.505 -0.1961 -0.1304  0.4131
   46MOL   O17717367   3.668   7.655   4.456 -0.3487 -0.4385 -0.0552
   46MOL   C17817368   3.653   7.742   4.353 -0.6715  0.6500 -0.1679
   46MOL   C17917369   3.537   7.799   4.311  0.3173 -0.1011 -0.0654
   46MOL   C18017370   3.533   7.875   4.196  0.8545 -0.1181  0.2672
   46MOL   C18117371   3.647   7.907   4.118 -0.3577  0.0170 -0.2379
   46MOL   C18217372   3.770   7.852   4.167 -0.3792  0.7992 -0.1079
   46MOL   C18317373   3.772   7.769   4.282  0.9391  0.5170  0.4882
   46MOL   H18417374   3.433   7.303   4.665  3.7394 -0.7629  1.4043
   46MOL   H18517375   3.626   7.392   4.549  1.1408 -0.1471  0.6333
   46MOL   H18617376   3.498   7.669   4.569 -1.4690  0.2421 -0.9794
   46MOL   H18717377   3.475   7.583   4.425  0.0698 -1.0212  0.3087
   46MOL   H18817378   3.447   7.791   4.369  0.3880 -0.6733 -0.0295
   46MOL   H18917379   3.437   7.902   4.154  0.2151 -1.7047  0.6414
   46MOL   H19017380   3.639   7.952   4.020  0.8738  2.3439  0.6774
   46MOL   H19117381   3.863   7.876   4.117  0.6438  1.4286  2.0059
   46MOL   C19217382   3.900   7.699   4.322  0.4694 -0.3718  1.0230
   46MOL   C19317383   3.918   7.548   4.312  0.1853  0.4018  0.0515
   46MOL   O19417384   3.952   7.641   4.208  0.5238 -0.1460  0.8069
   46MOL   C19517385   3.826   7.435   4.274 -0.1761  0.6396  0.1466
   46MOL   O19617386   3.878   7.329   4.191  0.5986  0.3970  0.2231
   46MOL   C19717387   3.887   7.354   4.053 -0.0858  0.8392  0.2368
   46MOL   C19817388   3.844   7.474   3.985 -0.1336 -0.0875  0.5487
   46MOL   C19917389   3.871   7.489   3.844 -0.0719  0.2767  0.5531
   46MOL   C20017390   3.929   7.385   3.773  0.8334 -0.2281 -0.0527
   46MOL   C20117391   3.963   7.265   3.838 -1.1440  0.0651 -0.4277
   46MOL   C20217392   3.944   7.248   3.979 -0.1361 -0.0899  0.1947
   46MOL   H20317393   3.973   7.756   4.379  0.6410 -1.2677  1.7004
   46MOL   H20417394   3.990   7.521   4.389  1.4442 -1.4406 -1.7095
   46MOL   H20517395   3.730   7.470   4.236 -0.8895 -0.3205  1.0300
   46MOL   H20617396   3.793   7.389   4.367 -0.0519 -0.0524 -0.1543
   46MOL   H20717397   3.799   7.559   4.034  1.5194  1.3998 -0.4532
   46MOL   H20817398   3.854   7.581   3.791 -1.0765  0.3499  0.9916
   46MOL   H20917399   3.931   7.392   3.665  2.4501  0.7244  0.0296
   46MOL   H21017400   3.997   7.188   3.770  1.2515  1.0908 -0.4049
   46MOL   C21117401   3.979   7.120   4.055  0.6423 -0.3674 -0.1585
   46MOL   C21217402   3.887   7.006   4.026  0.0159 -0.2060 -0.1417
   46MOL   O21317403   4.024   7.012   3.966  0.1443 -0.6070  0.2109
   46MOL   C21417404   3.766   7.012   3.936 -0.1234 -0.7307  0.2257
   46MOL   O21517405   3.651   6.954   4.006  0.6565  0.3672  0.0023
   46MOL   C21617406   3.588   7.010   4.117 -0.3486 -0.0869 -0.1470
   46MOL   C21717407   3.620   7.138   4.159 -0.6804 -0.0410 -0.6204
   46MOL   C21817408   3.554   7.196   4.268  0.3992 -0.8679  0.2372
   46MOL   C21917409   3.445   7.137   4.328  0.4309 -0.1088 -0.2540
   46MOL   C22017410   3.412   7.009   4.278 -0.2810 -0.0615 -0.2712
   46MOL   C22117411   3.486   6.945   4.182 -0.2958 -1.1143 -0.3084
   46MOL   H22217412   4.023   7.125   4.154 -2.1059  1.2323  1.0480
   46MOL   H22317413   3.881   6.923   4.097  3.5252 -0.5426 -0.1516
   46MOL   H22417414   3.776   6.951   3.847  4.3898 -1.4502  1.1362
   46MOL   H22517415   3.744   7.115   3.908  1.8030 -0.6161 -0.9288
   46MOL   H22617416   3.708   7.191   4.123 -0.3508 -0.8621 -1.0319
   46MOL   H22717417   3.596   7.289   4.305 -0.7667 -0.4910  0.6207
   46MOL   H22817418   3.385   7.180   4.406 -0.1964 -0.9710 -0.2523
   46MOL   H22917419   3.334   6.961   4.335 -0.4419  0.1447 -0.3144
   46MOL   C23017420   3.453   6.810   4.146 -0.4951 -0.4694 -1.3056
   46MOL   C23117421   3.543   6.699   4.186  0.6853  0.9351  0.5666
   46MOL   O23217422   3.421   6.722   4.264 -1.0346 -0.5609 -0.3711
   46MOL   C23317423   3.677   6.715   4.261 -0.3502 -1.0577  0.0560
   46MOL   O23417424   3.770   6.605   4.259 -0.5301  0.7394  0.0420
   46MOL   C23517425   3.824   6.565   4.141 -0.3087  0.1542 -0.2652
   46MOL   C23617426   3.795   6.626   4.017  0.2919 -0.6528  0.2497
   46MOL   C23717427   3.868   6.588   3.900  0.5154 -0.8410  0.6010
   46MOL   C23817428   3.967   6.491   3.911 -0.2970 -0.7691 -0.2950
   46MOL   C23917429   3.996   6.430   4.031 -0.1810 -0.0744 -0.4034
   46MOL   C24017430   3.926   6.471   4.145  0.2334 -0.6109 -0.3589
   46MOL   H24117431   3.394   6.814   4.055  0.0486  0.9821 -1.6219
   46MOL   H24217432   3.532   6.614   4.119 -2.4795  1.3360  0.5086
   46MOL   H24317433   3.652   6.740   4.364  0.3137  1.8995 -0.4422
   46MOL   H24417434   3.714   6.807   4.216 -1.9255 -0.3832  0.1127
   46MOL   H24517435   3.729   6.710   4.000  1.6853  0.2375 -0.9144
   46MOL   H24617436   3.850   6.633   3.803 -0.8269 -0.9319  0.7905
   46MOL   H24717437   4.037   6.476   3.831  0.8298 -4.1362  1.2346
   46MOL   H24817438   4.087   6.373   4.040  2.0675  3.2004 -1.6825
   46MOL   C24917439   3.937   6.402   4.281 -0.0635 -0.1484 -0.4759
   46MOL   C25017440   3.819   6.320   4.334  0.0087 -0.8544 -0.8961
   46MOL   O25117441   3.931   6.259   4.279 -0.4167 -0.6609 -0.5093
   46MOL   C25217442   3.697   6.298   4.251 -0.2545  0.3703 -0.1567
   46MOL   O25317443   3.647   6.170   4.267 -0.0749 -0.2809 -0.6569
   46MOL   C25417444   3.565   6.141   4.380  0.2053 -0.0334  0.2815
   46MOL   C25517445   3.526   6.227   4.484  0.1810 -1.3239 -0.2501
   46MOL   C25617446   3.444   6.179   4.587  0.7646 -0.3559 -0.1269
   46MOL   C25717447   3.402   6.048   4.595 -0.1252  0.3627  0.0088
   46MOL   C25817448   3.440   5.965   4.492  0.2523  0.7257 -0.3149
   46MOL   C25917449   3.515   6.008   4.380 -0.4724  1.1962  0.0770
   46MOL   H26017450   4.021   6.441   4.337  0.3440 -0.7393 -0.6584
   46MOL   H26117451   3.814   6.324   4.443 -0.6968  0.3304 -0.9654
   46MOL   H26217452   3.725   6.297   4.146  1.5615 -0.7977  0.3208
   46MOL   H26317453   3.619   6.370   4.276 -0.5810 -0.5445  1.5263
   46MOL   H26417454   3.556   6.331   4.487 -1.8919 -0.6978  0.0337
   46MOL   H26517455   3.407   6.241   4.668  1.2942 -1.7377  1.1972
   46MOL   H26617456   3.348   6.019   4.684 -1.7367 -0.6129 -1.2551
   46MOL   H26717457   3.407   5.862   4.497 -0.1858  0.9937  2.7627
   46MOL   C26817458   3.527   5.919   4.258 -0.2575  0.2040  0.0918
   46MOL   C26917459   3.600   5.786   4.247  0.2661 -0.1427 -0.0933
   46MOL   O27017460   3.461   5.797   4.274  0.3393  0.0395  0.0579
   46MOL   C27117461   3.675   5.713   4.358 -0.4323  0.1578  0.4592
   46MOL   O27217462   3.744   5.797   4.445 -0.2763 -0.4992 -0.3789
   46MOL   C27317463   3.847   5.750   4.527 -0.2308 -0.4066  0.0609
   46MOL   C27417464   3.877   5.617   4.543  0.6658 -0.2757  0.3392
   46MOL   C27517465   3.988   5.574   4.619 -0.3666  0.5778 -0.2249
   46MOL   C27617466   4.068   5.673   4.684 -0.3299  0.0634 -0.0897
   46MOL   C27717467   4.033   5.810   4.682 -0.2864  0.1543  0.0245
   46MOL   C27817468   3.920   5.847   4.603  0.0315 -0.3970 -0.2824
   46MOL   H27917469   3.501   5.975   4.169  0.5488  0.6079  0.0988
   46MOL   H28017470   3.638   5.755   4.150  0.8675 -0.2169  0.1620
   46MOL   H28117471   3.752   5.647   4.319  0.4309  1.1943  0.3834
   46MOL   H28217472   3.614   5.641   4.413 -0.0185 -0.9720 -0.5313
   46MOL   H28317473   3.825   5.541   4.487  1.9288 -0.5511 -0.4752
   46MOL   H28417474   4.005   5.468   4.627 -0.1054  0.6957  0.7840
   46MOL   H28517475   4.160   5.646   4.733 -0.4944 -0.7513 -0.2227
   46MOL   H28617476   4.092   5.886   4.732  1.7863 -0.4069 -1.5168
   46MOL   C28717477   3.876   5.990   4.594  0.4896 -0.5623 -0.1389
   46MOL   C28817478   3.774   6.053   4.687 -0.4971 -0.5372 -0.3945
   46MOL   O28917479   3.910   6.066   4.714 -0.5590  0.2262 -0.4166
   46MOL   C29017480   3.696   5.966   4.783 -0.6728  0.2418  0.3608
   46MOL   O29117481   3.640   6.038   4.889  0.1721 -0.7454 -0.3493
   46MOL   C29217482   3.563   5.965   4.983  0.1384 -0.1100  0.3454
   46MOL   C29317483   3.495   5.851   4.958 -0.0801 -0.1237 -0.0912
   46MOL   C29417484   3.415   5.787   5.054  0.1166  0.3434 -0.7483
   46MOL   C29517485   3.397   5.852   5.180 -0.2823 -0.1122  0.1720
   46MOL   C29617486   3.472   5.968   5.210 -0.0788 -0.9956  0.7964
   46MOL   C29717487   3.550   6.028   5.107 -0.3047 -0.2270  0.7215
   46MOL   H29817488   3.909   6.045   4.506 -3.0155  3.0576  0.6855
   46MOL   H29917489   3.721   6.144   4.658  0.9884  1.2379  2.2420
   46MOL   H30017490   3.759   5.888   4.827 -1.0225  0.5845  1.4817
   46MOL   H30117491   3.616   5.935   4.716 -0.7779  1.3106 -0.0192
   46MOL   H30217492   3.507   5.809   4.859 -0.2165  1.4223 -0.7912
   46MOL   H30317493   3.369   5.695   5.022 -2.6966  1.7114 -0.7524
   46MOL   H30417494   3.340   5.803   5.258 -0.7846  2.8890  1.7725
   46MOL   H30517495   3.465   6.013   5.308 -1.3975 -2.2228  1.2751
   46MOL   C30617496   3.627   6.159   5.133  0.2059  0.2428  0.0455
   46MOL   C30717497   3.559   6.295   5.116 -0.1183 -0.8905  0.8510
   46MOL   O30817498   3.582   6.237   5.245  0.3946  0.5017  0.0998
   46MOL   C30917499   3.407   6.311   5.079 -0.0435 -0.5273 -0.1990
   46MOL   O31017500   3.364   6.445   5.091 -0.1402  0.5262 -0.3141
   46MOL   C31117501   3.422   6.544   5.015  0.1175 -0.2748 -0.0805
   46MOL   C31217502   3.498   6.513   4.897 -0.2590 -0.0887 -0.2957
   46MOL   C31317503   3.553   6.612   4.814 -0.5081 -0.4018  0.3391
   46MOL   C31417504   3.544   6.747   4.853 -0.2378 -0.0705  0.1219
   46MOL   C31517505   3.476   6.789   4.970 -0.4778  0.3444 -0.0336
   46MOL   C31617506   3.412   6.685   5.052  0.5146  0.4548  0.6204
   46MOL   H31717507   3.734   6.152   5.113  0.4138 -1.0300  1.5357
   46MOL   H31817508   3.631   6.362   5.069 -1.7905  0.5805  0.3255
   46MOL   H31917509   3.343   6.246   5.138  0.0378 -0.4528 -0.0294
   46MOL   H32017510   3.403   6.262   4.981  1.5984  1.1552 -1.1430
   46MOL   H32117511   3.533   6.414   4.870  1.8554  0.1305  1.4952
   46MOL   H32217512   3.598   6.597   4.717  0.1738  0.0812  0.5803
   46MOL   H32317513   3.593   6.829   4.801  0.4687 -0.6224 -0.0770
   46MOL   H32417514   3.457   6.893   4.993 -0.0109  0.6770 -1.1300
   46MOL   C32517515   3.332   6.715   5.171  0.1978  0.8556 -0.2095
   46MOL   C32617516   3.381   6.686   5.312  0.1934  0.3080 -0.3132
   46MOL   O32717517   3.380   6.815   5.258 -0.2800 -1.2516 -0.5686
   46MOL   C32817518   3.523   6.643   5.356  0.7085  0.2049 -0.1173
   46MOL   O32917519   3.541   6.663   5.495  0.3042 -0.5073  0.2036
   46MOL   C33017520   3.494   6.569   5.582 -0.0310 -0.0745 -0.1792
   46MOL   C33117521   3.435   6.443   5.547 -0.0497 -0.3895 -0.2455
   46MOL   C33217522   3.400   6.351   5.646 -0.1521  0.7295  0.9702
   46MOL   C33317523   3.426   6.382   5.783  0.0921  0.2665  0.7464
   46MOL   C33417524   3.492   6.507   5.817 -0.1755  0.2074  0.2343
   46MOL   C33517525   3.520   6.603   5.720 -0.2155 -1.0656  0.0412
   46MOL   H33617526   3.227   6.691   5.156  0.5942 -0.5809 -0.7721
   46MOL   H33717527   3.300   6.678   5.384 -0.3857 -0.1961 -1.0240
   46MOL   H33817528   3.590   6.710   5.301 -0.8556  2.0076  0.1303
   46MOL   H33917529   3.548   6.544   5.319 -0.6326  0.0459 -0.6190
   46MOL   H34017530   3.414   6.409   5.447 -0.3179 -0.2168 -0.2467
   46MOL   H34117531   3.364   6.253   5.620 -0.9040  0.2995  3.5398
   46MOL   H34217532   3.408   6.317   5.867 -0.3177 -0.7994 -0.1561
   46MOL   H34317533   3.533   6.532   5.914  0.1620  1.9529 -0.3387
   46MOL   C34417534   3.595   6.730   5.757  0.2368  0.0058 -0.5850
   46MOL   C34517535   3.521   6.857   5.783  0.8677  0.1054  0.0627
   46MOL   O34617536   3.567   6.770   5.893 -0.5476  0.1280 -0.2737
   46MOL   C34717537   3.368   6.869   5.756 -0.1284 -0.2245  0.1904
   46MOL   O34817538   3.313   7.001   5.756 -0.1168 -0.1643  0.0512
   46MOL   C34917539   3.338   7.086   5.646  1.1956 -0.4497 -0.0991
   46MOL   C35017540   3.396   7.048   5.527 -0.6708 -0.0861 -0.8511
   46MOL   C35117541   3.381   7.121   5.410  0.4786  0.5801 -0.4934
   46MOL   C35217542   3.324   7.250   5.412  0.1302 -1.1668  0.0698
   46MOL   C35317543   3.286   7.301   5.536 -0.4133  0.3313  0.4597
   46MOL   C35417544   3.276   7.212   5.650  0.1564 -0.1216 -0.0483
   46MOL   H35517545   3.700   6.732   5.728 -0.0772 -0.0959 -1.7570
   46MOL   H35617546   3.570   6.954   5.795  1.8007 -0.5012  1.2074
   46MOL   H35717547   3.312   6.827   5.840 -2.4520 -0.8915 -1.6486
   46MOL   H35817548   3.335   6.818   5.666 -1.7172 -0.5401  0.9241
   46MOL   H35917549   3.428   6.947   5.510 -1.0708 -0.0391 -1.8905
   46MOL   H36017550   3.426   7.082   5.320  0.0922 -2.0259  0.4166
   46MOL   H36117551   3.337   7.307   5.321  1.2963  0.7562  1.3965
   46MOL   H36217552   3.252   7.403   5.546  1.2200  0.8848  0.4998
   46MOL   C36317553   3.191   7.263   5.764 -0.0075  0.6262  0.1845
   46MOL   C36417554   3.242   7.283   5.903  0.2158  0.1950 -0.0903
   46MOL   O36517555   3.234   7.392   5.809  0.2469  0.5648 -0.3644
   46MOL   C36617556   3.379   7.238   5.937  0.2968  0.1178  0.6013
   46MOL   O36717557   3.430   7.295   6.057  0.2133 -0.3053 -0.6268
   46MOL   C36817558   3.488   7.425   6.057 -0.8987  0.5153  0.0134
   46MOL   C36917559   3.519   7.498   5.935  0.0684  0.3860  0.4897
   46MOL   C37017560   3.562   7.630   5.935  0.3162 -0.2818 -0.5565
   46MOL   C37117561   3.605   7.687   6.054  0.8129  0.2664 -0.0746
   46MOL   C37217562   3.586   7.618   6.177  0.3215  0.0837  0.4863
   46MOL   C37317563   3.528   7.488   6.178 -0.5337  0.9201  1.0540
   46MOL   H37417564   3.086   7.244   5.741  0.3215 -2.2799  0.9098
   46MOL   H37517565   3.172   7.285   5.987  0.1562 -0.8993 -0.1125
   46MOL   H37617566   3.442   7.245   5.849 -0.6339  0.0085 -0.0826
   46MOL   H37717567   3.363   7.135   5.970  1.8212 -0.1023  0.6879
   46MOL   H37817568   3.502   7.450   5.839 -1.0291  2.4670 -0.3964
   46MOL   H37917569   3.572   7.688   5.844  1.7358 -2.4874 -1.8947
   46MOL   H38017570   3.640   7.789   6.053  1.7731 -0.0594 -0.7602
   46MOL   H38117571   3.618   7.662   6.270 -1.4695  1.6436  0.4039
   46MOL   H38217572   3.499   7.434   6.267 -0.4034 -0.6194  0.1779
   47MOL     C117573   5.627   3.686   0.528  0.1100 -0.4943 -0.0812
   47MOL     C217574   5.648   3.541   0.506 -0.2773  0.2181  0.7225
   47MOL     O317575   5.717   3.637   0.421  0.4332 -0.0969  0.2817
   47MOL     C417576   5.537   3.453   0.455 -0.5496  0.3572  0.2740
   47MOL     O517577   5.551   3.318   0.498 -0.8653  0.3660  0.5018
   47MOL     C617578   5.638   3.232   0.427 -0.7319 -0.1167  0.5194
   47MOL     C717579   5.727   3.275   0.330 -0.2069 -0.2632  0.0832
   47MOL     C817580   5.818   3.183   0.274  0.1165  0.1425  0.2609
   47MOL     C917581   5.817   3.047   0.307 -0.2598 -0.4130 -0.0909
   47MOL    C1017582   5.738   3.003   0.416 -0.0918 -0.0005  0.4292
   47MOL    C1117583   5.649   3.097   0.474  0.2231 -0.4101 -0.3433
   47MOL    H1217584   5.672   3.744   0.608 -1.0655  0.5520 -0.1602
   47MOL    H1317585   5.706   3.495   0.586 -0.5258  0.5801  1.1134
   47MOL    H1417586   5.518   3.460   0.348 -1.2713 -3.3220  0.1213
   47MOL    H1517587   5.446   3.482   0.507  0.4430 -0.0559  2.2649
   47MOL    H1617588   5.730   3.376   0.292  0.5979  0.0864  1.0439
   47MOL    H1717589   5.880   3.211   0.191  1.3723 -1.9365  0.4479
   47MOL    H1817590   5.878   2.983   0.244 -1.9059 -2.2950  0.1872
   47MOL    H1917591   5.735   2.899   0.445  0.4325  0.0732  0.7598
   47MOL    H2017592   5.531   3.722   0.491 -1.7534 -1.1350  3.8219
   47MOL    C2117593   5.551   3.056   0.579  0.1092 -0.8479 -0.3516
   47MOL    C2217594   5.416   2.999   0.548  0.2088  0.4723  0.1794
   47MOL    O2317595   5.522   2.912   0.587 -0.3927  0.6453 -0.2588
   47MOL    C2417596   5.361   2.987   0.404 -0.4775  0.1755  0.5899
   47MOL    O2517597   5.225   2.958   0.398 -0.2362  0.4246 -0.6572
   47MOL    C2617598   5.130   3.058   0.422 -0.0471  0.0821 -0.4612
   47MOL    C2717599   5.166   3.183   0.481 -0.3749 -0.5281 -0.3440
   47MOL    C2817600   5.076   3.289   0.496 -0.3108  0.5142 -0.4221
   47MOL    C2917601   4.942   3.270   0.449  0.6922  0.8308  0.3353
   47MOL    C3017602   4.901   3.145   0.401  0.6721  0.0637  0.2305
   47MOL    C3117603   4.993   3.039   0.388  0.2895  0.3366 -0.6176
   47MOL    H3217604   5.585   3.087   0.678  1.9873 -0.8418 -0.9802
   47MOL    H3317605   5.351   3.023   0.632 -0.3907 -1.3856  0.2703
   47MOL    H3417606   5.412   2.910   0.347  2.8103  2.1438  0.7700
   47MOL    H3517607   5.381   3.080   0.351 -3.0058  1.3243  1.5334
   47MOL    H3617608   5.268   3.187   0.516 -0.2326 -0.9082 -0.7165
   47MOL    H3717609   5.110   3.378   0.547  0.0373  0.2080 -0.1146
   47MOL    H3817610   4.867   3.347   0.448 -0.3541 -0.1126  2.2262
   47MOL    H3917611   4.800   3.128   0.368  0.0755  1.0771  1.5020
   47MOL    C4017612   4.941   2.905   0.333  0.2198  0.7863  0.2361
   47MOL    C4117613   4.963   2.780   0.402  0.0232 -0.0070 -0.1487
   47MOL    O4217614   4.833   2.851   0.411 -0.0943  0.1290 -0.1881
   47MOL    C4317615   5.019   2.768   0.541 -0.2887  0.4560  0.3191
   47MOL    O4417616   4.944   2.687   0.635  0.1250 -0.1348  0.5805
   47MOL    C4517617   5.007   2.646   0.751 -0.1315 -0.2175  0.4790
   47MOL    C4617618   5.133   2.690   0.792  0.0829 -0.1083 -0.4612
   47MOL    C4717619   5.181   2.646   0.917 -0.4551  0.5870  0.7189
   47MOL    C4817620   5.110   2.547   0.992 -0.2263 -0.3986 -0.0438
   47MOL    C4917621   4.986   2.507   0.951 -0.1433  0.2929 -0.5081
   47MOL    C5017622   4.930   2.561   0.832 -0.2800  0.2306  0.1997
   47MOL    H5117623   4.936   2.914   0.224  0.4988 -0.3327  0.1337
   47MOL    H5217624   4.964   2.690   0.341 -2.8778  0.3296 -0.7591
   47MOL    H5317625   5.041   2.860   0.595 -0.4725  0.4073  0.4753
   47MOL    H5417626   5.117   2.721   0.532 -0.4910 -0.1301  1.0934
   47MOL    H5517627   5.192   2.767   0.743 -0.7215  1.3639  0.8367
   47MOL    H5617628   5.271   2.689   0.958 -0.2109  0.0845  0.7122
   47MOL    H5717629   5.150   2.520   1.088  2.9525  0.3666 -1.0942
   47MOL    H5817630   4.941   2.441   1.023  2.6012  1.1510  2.1067
   47MOL    C5917631   4.795   2.517   0.798 -0.0951  0.0957 -0.2464
   47MOL    C6017632   4.753   2.372   0.785  0.1752  0.2947 -0.4080
   47MOL    O6117633   4.725   2.447   0.904  0.4018  0.2280 -0.6084
   47MOL    C6217634   4.841   2.256   0.809 -0.2945  0.1836 -0.3455
   47MOL    O6317635   4.765   2.131   0.824 -0.0970 -0.1440 -0.1992
   47MOL    C6417636   4.711   2.064   0.716  0.1140 -0.6294  0.2070
   47MOL    C6517637   4.744   2.108   0.587  0.0715  0.3839  0.1358
   47MOL    C6617638   4.677   2.049   0.473 -0.0560  0.2785 -0.5666
   47MOL    C6717639   4.594   1.933   0.490  0.3745 -0.2050 -0.5910
   47MOL    C6817640   4.578   1.883   0.621 -0.5699 -0.3451  0.4731
   47MOL    C6917641   4.635   1.947   0.736 -0.6301 -0.1204 -0.3035
   47MOL    H7017642   4.732   2.599   0.763 -0.2012  0.3720  0.5750
   47MOL    H7117643   4.675   2.363   0.710  2.1033  2.8692 -2.8180
   47MOL    H7217644   4.890   2.271   0.905  2.2906  0.2782 -1.6185
   47MOL    H7317645   4.919   2.263   0.733  1.5611 -0.2193  1.4525
   47MOL    H7417646   4.803   2.197   0.569  0.5844  0.3652  1.6148
   47MOL    H7517647   4.688   2.092   0.375  0.1170  0.5635 -0.4214
   47MOL    H7617648   4.552   1.882   0.405  0.9698 -0.1509 -0.9249
   47MOL    H7717649   4.517   1.794   0.628 -1.2980  0.0908 -0.1925
   47MOL    C7817650   4.606   1.888   0.875  0.2426  0.5158  0.9341
   47MOL    C7917651   4.468   1.899   0.929 -0.7908 -0.4230  0.0557
   47MOL    O8017652   4.514   1.779   0.866 -0.4067 -0.5159  0.0961
   47MOL    C8117653   4.357   1.972   0.855  0.2019  0.1732 -0.9031
   47MOL    O8217654   4.233   1.940   0.923 -1.0373  0.0038  0.4844
   47MOL    C8317655   4.196   1.993   1.046 -0.3769  0.1389 -0.6842
   47MOL    C8417656   4.261   2.106   1.110 -0.2627  0.2648  0.0061
   47MOL    C8517657   4.198   2.159   1.223 -0.3296 -0.5531 -0.2223
   47MOL    C8617658   4.080   2.104   1.279  0.5500 -0.1981 -0.4588
   47MOL    C8717659   4.016   2.000   1.214  0.4289  0.6722 -0.2844
   47MOL    C8817660   4.078   1.947   1.099  0.9016 -0.7027 -0.3591
   47MOL    H8917661   4.691   1.873   0.941 -0.6250  0.3186  2.0195
   47MOL    H9017662   4.464   1.904   1.038  0.6052 -0.2846  0.1024
   47MOL    H9117663   4.330   1.933   0.757 -1.2378  0.3197 -0.5880
   47MOL    H9217664   4.358   2.081   0.847 -1.1388  0.3539  0.9398
   47MOL    H9317665   4.350   2.157   1.079  0.1344  0.4754  1.4562
   47MOL    H9417666   4.237   2.247   1.272  0.9074 -0.5632 -1.1773
   47MOL    H9517667   4.042   2.139   1.374 -0.8046  1.0590 -1.4440
   47MOL    H9617668   3.926   1.958   1.258  2.7994 -2.7267  1.5045
   47MOL    C9717669   4.008   1.836   1.019 -0.3737  0.2941  0.1302
   47MOL    C9817670   4.053   1.696   1.019  0.7060  0.4778 -0.2241
   47MOL    O9917671   3.943   1.742   1.107 -0.4764 -0.5582 -0.0229
   47MOL   C10017672   4.174   1.653   1.091 -0.3607  0.3198 -0.0805
   47MOL   O10117673   4.184   1.507   1.090  0.6655 -0.4123 -0.7124
   47MOL   C10217674   4.242   1.451   0.977 -0.6462  0.0239  0.9427
   47MOL   C10317675   4.309   1.528   0.883  0.3762 -0.0230  0.2929
   47MOL   C10417676   4.363   1.465   0.771 -0.1631  0.1168  0.2983
   47MOL   C10517677   4.375   1.324   0.768 -0.1872 -0.2876  0.2793
   47MOL   C10617678   4.320   1.247   0.874  0.0494  0.3122  0.9577
   47MOL   C10717679   4.239   1.311   0.968 -0.5691  0.2894  0.0002
   47MOL   H10817680   3.935   1.872   0.948 -0.7403  0.4661  0.5960
   47MOL   H10917681   4.018   1.639   0.934 -0.5913 -1.0923  1.3349
   47MOL   H11017682   4.159   1.681   1.195 -0.4693 -1.6785  0.4684
   47MOL   H11117683   4.262   1.714   1.068 -1.4635  2.2146  0.6729
   47MOL   H11217684   4.311   1.636   0.879  2.4399 -0.0249  0.5786
   47MOL   H11317685   4.398   1.522   0.687 -3.0248 -0.8924 -1.6699
   47MOL   H11417686   4.416   1.283   0.677 -1.2271  1.2166 -0.9006
   47MOL   H11517687   4.328   1.139   0.872 -0.2495  0.2891  0.9303
   47MOL   C11617688   4.180   1.232   1.083  0.7595  0.0192 -0.5363
   47MOL   C11717689   4.029   1.192   1.096 -0.3600 -0.0704  0.4407
   47MOL   O11817690   4.129   1.104   1.040  0.1337  0.1710  0.4544
   47MOL   C11917691   3.916   1.231   0.996  0.2195  0.0753  0.3701
   47MOL   O12017692   3.840   1.354   1.047 -0.4616  0.2182  0.2090
   47MOL   C12117693   3.731   1.321   1.121  0.3605  0.7680  0.6252
   47MOL   C12217694   3.703   1.200   1.195  0.3495  1.0733  0.0630
   47MOL   C12317695   3.580   1.176   1.257 -0.4870 -0.1785 -0.1185
   47MOL   C12417696   3.476   1.266   1.246  0.3983 -0.3864 -0.4653
   47MOL   C12517697   3.501   1.396   1.196  0.0804  0.1869 -0.1137
   47MOL   C12617698   3.622   1.419   1.126  0.3326  0.2444  0.3131
   47MOL   H12717699   4.230   1.235   1.180  1.1615 -0.4876 -0.7286
   47MOL   H12817700   3.993   1.146   1.188  2.2104 -1.0493  0.9976
   47MOL   H12917701   3.861   1.140   0.973  0.2225  0.9567 -3.4379
   47MOL   H13017702   3.956   1.268   0.902 -1.0179 -1.7102 -0.8995
   47MOL   H13117703   3.778   1.125   1.215  0.8015  1.8488  1.4198
   47MOL   H13217704   3.563   1.078   1.298  2.9954 -0.3511  1.0283
   47MOL   H13317705   3.380   1.237   1.285  0.3025  0.1139 -0.3308
   47MOL   H13417706   3.414   1.460   1.197 -0.9891 -1.2091  2.0929
   47MOL   C13517707   3.634   1.552   1.061 -0.2795 -0.5286  0.2087
   47MOL   C13617708   3.625   1.579   0.913  0.4041  0.2875 -0.1928
   47MOL   O13717709   3.509   1.582   0.997  0.6561 -0.1748 -0.0848
   47MOL   C13817710   3.626   1.477   0.811 -0.6031  0.2461  1.2045
   47MOL   O13917711   3.543   1.528   0.702  0.1852  1.3590 -0.3276
   47MOL   C14017712   3.525   1.438   0.595 -0.3066  0.4422 -0.2117
   47MOL   C14117713   3.602   1.325   0.562 -0.8859  0.5907  0.3047
   47MOL   C14217714   3.561   1.237   0.461  0.1178  0.7993 -0.8051
   47MOL   C14317715   3.442   1.252   0.395 -0.6035  0.5820 -0.9831
   47MOL   C14417716   3.356   1.358   0.433 -0.3476 -0.1579 -0.2498
   47MOL   C14517717   3.397   1.451   0.528  0.1714 -0.5095  0.0772
   47MOL   H14617718   3.648   1.619   1.146 -0.3463 -0.5507  0.2371
   47MOL   H14717719   3.660   1.679   0.886 -0.9606  0.8815  0.1726
   47MOL   H14817720   3.584   1.383   0.846 -0.6304 -0.2168 -0.0749
   47MOL   H14917721   3.726   1.468   0.769 -1.2775  2.3787 -0.9447
   47MOL   H15017722   3.704   1.317   0.596 -1.1463  0.0691  0.9757
   47MOL   H15117723   3.623   1.154   0.431  0.4565  0.0456  1.7883
   47MOL   H15217724   3.417   1.185   0.315 -2.0644 -1.1150  0.8343
   47MOL   H15317725   3.261   1.381   0.388 -0.1520 -0.2168 -0.6958
   47MOL   C15417726   3.303   1.559   0.575 -0.2949 -0.3494 -0.6525
   47MOL   C15517727   3.309   1.704   0.527 -0.1657  0.2478 -0.1513
   47MOL   O15617728   3.223   1.605   0.465 -0.7714 -0.4564 -0.0733
   47MOL   C15717729   3.419   1.762   0.446  0.0512  0.7855  0.6415
   47MOL   O15817730   3.393   1.899   0.423 -0.1109  0.8102  0.3476
   47MOL   C15917731   3.357   1.925   0.295  0.1420 -0.5886  0.1532
   47MOL   C16017732   3.261   1.845   0.220 -0.2125 -0.5058  0.2763
   47MOL   C16117733   3.241   1.864   0.084  0.3210  0.1734  0.3522
   47MOL   C16217734   3.316   1.966   0.017  0.7819  0.7666  0.5686
   47MOL   C16317735   3.403   2.048   0.089  0.3441  0.1095  0.0066
   47MOL   C16417736   3.432   2.026   0.225  0.5028  0.7052  0.4428
   47MOL   H16517737   3.255   1.537   0.670  3.2218  1.0705  1.5644
   47MOL   H16617738   3.255   1.774   0.590  1.7647  1.3745  0.2671
   47MOL   H16717739   3.427   1.701   0.356  0.0809  0.0277  1.1587
   47MOL   H16817740   3.503   1.741   0.511 -0.0751 -2.2779 -0.0984
   47MOL   H16917741   3.210   1.763   0.267  2.9643 -0.3938  4.1912
   47MOL   H17017742   3.170   1.800   0.032 -0.2127  1.2351 -0.2454
   47MOL   H17117743   3.308   1.977   8.079  1.3824  1.4652  0.5936
   47MOL   H17217744   3.470   2.122   0.047 -0.0458  1.5412  1.8208
   47MOL   C17317745   3.543   2.106   0.292 -0.4277 -0.5545 -0.2940
   47MOL   C17417746   3.683   2.045   0.311 -0.3911 -0.0211  0.2495
   47MOL   O17517747   3.657   2.141   0.206 -0.2814  0.0873  0.2109
   47MOL   C17617748   3.721   1.911   0.253  0.6302  0.4166 -0.3551
   47MOL   O17717749   3.864   1.897   0.267 -0.1508  0.0677  0.4315
   47MOL   C17817750   3.918   1.859   0.395  0.5112  0.2970 -0.2602
   47MOL   C17917751   3.834   1.817   0.508 -0.4172  0.6996 -0.4223
   47MOL   C18017752   3.890   1.797   0.632 -0.2900  0.5321 -0.6783
   47MOL   C18117753   4.030   1.792   0.644 -0.4452 -0.1262 -1.0444
   47MOL   C18217754   4.115   1.819   0.538  0.7625 -0.3621  0.0712
   47MOL   C18317755   4.056   1.864   0.416  0.1893  0.3809 -0.0706
   47MOL   H18417756   3.525   2.189   0.359  1.8937 -1.0848  1.0516
   47MOL   H18517757   3.751   2.092   0.383 -1.1326 -0.3280  1.1625
   47MOL   H18617758   3.689   1.904   0.149 -1.0974 -0.8801  0.2340
   47MOL   H18717759   3.658   1.834   0.298 -0.5896  0.8644 -1.2776
   47MOL   H18817760   3.727   1.807   0.502 -0.6037  1.9873  0.4795
   47MOL   H18917761   3.833   1.771   0.720 -0.1462  2.0372 -0.1203
   47MOL   H19017762   4.074   1.758   0.736  0.5715  1.5680 -0.8781
   47MOL   H19117763   4.221   1.815   0.558  0.6259 -0.2168  0.8463
   47MOL   C19217764   4.150   1.916   0.309  0.3557  0.2189  0.9772
   47MOL   C19317765   4.221   2.049   0.327 -0.2591  0.6341 -0.3193
   47MOL   O19417766   4.290   1.919   0.338 -0.1078 -0.2345  0.0782
   47MOL   C19517767   4.228   2.128   0.465 -0.1533  0.2925 -0.2986
   47MOL   O19617768   4.293   2.251   0.451  0.1301  0.1169 -0.5290
   47MOL   C19717769   4.309   2.319   0.568  0.4133  0.1304  0.1316
   47MOL   C19817770   4.249   2.287   0.692 -0.4150  0.8875  0.2368
   47MOL   C19917771   4.280   2.357   0.813  0.3566  0.2339 -0.1479
   47MOL   C20017772   4.374   2.464   0.809  0.7473  0.2977  0.1894
   47MOL   C20117773   4.429   2.501   0.686 -0.2112  0.6243  0.4417
   47MOL   C20217774   4.398   2.429   0.565 -0.8578  0.4962  0.2305
   47MOL   H20317775   4.137   1.870   0.211  0.5875  0.3435  0.8893
   47MOL   H20417776   4.251   2.105   0.239 -2.4834 -1.7949 -2.7301
   47MOL   H20517777   4.288   2.076   0.541  2.1037 -0.6485 -2.6556
   47MOL   H20617778   4.125   2.140   0.499 -0.2486 -1.0715 -0.0590
   47MOL   H20717779   4.174   2.211   0.706  1.1645 -1.0000 -1.2207
   47MOL   H20817780   4.225   2.338   0.905 -1.5431 -0.6500 -1.4249
   47MOL   H20917781   4.397   2.527   0.894  0.2231 -0.5138  0.9445
   47MOL   H21017782   4.497   2.585   0.684  0.1393  0.3369 -0.2709
   47MOL   C21117783   4.476   2.459   0.440  0.2189  0.2693 -0.3919
   47MOL   C21217784   4.430   2.553   0.333 -0.2839  0.6124  0.3941
   47MOL   O21317785   4.522   2.590   0.432  0.4581  0.2705  0.2312
   47MOL   C21417786   4.297   2.630   0.332 -0.2362 -0.2980  0.0943
   47MOL   O21517787   4.293   2.741   0.237  0.4206 -0.2745 -0.6715
   47MOL   C21617788   4.352   2.859   0.281  0.3624 -0.0267 -0.1088
   47MOL   C21717789   4.403   2.881   0.411 -0.0207  0.4225 -0.4219
   47MOL   C21817790   4.490   2.987   0.443 -0.2324  0.2787  0.0042
   47MOL   C21917791   4.511   3.094   0.359  0.4653  0.1432 -0.4653
   47MOL   C22017792   4.438   3.084   0.237  0.2136  0.0450 -0.5491
   47MOL   C22117793   4.373   2.971   0.191 -0.6301 -0.6454  0.0195
   47MOL   H22217794   4.555   2.392   0.408 -1.2841 -1.6035 -0.3334
   47MOL   H22317795   4.479   2.553   0.236 -0.3193  0.0130  0.3730
   47MOL   H22417796   4.267   2.652   0.434 -1.1896 -2.3597  0.2886
   47MOL   H22517797   4.216   2.570   0.290 -0.6737  0.1584  0.2820
   47MOL   H22617798   4.399   2.796   0.479 -0.6845 -0.8446 -2.0155
   47MOL   H22717799   4.538   2.990   0.540 -0.4052  0.5973  0.0818
   47MOL   H22817800   4.563   3.180   0.398 -1.5636  1.3178 -0.2982
   47MOL   H22917801   4.433   3.171   0.173  0.4943  0.4958  0.0270
   47MOL   C23017802   4.298   2.964   0.062  0.8595 -1.1171  0.3264
   47MOL   C23117803   4.201   3.071   0.017  0.1751 -0.0574 -0.5671
   47MOL   O23217804   4.339   3.065   8.139 -0.2683  0.3918 -0.2059
   47MOL   C23317805   4.158   3.183   0.094 -0.0449 -0.7129  0.1219
   47MOL   O23417806   4.227   3.300   0.058 -0.3223  0.1251  0.0722
   47MOL   C23517807   4.217   3.406   0.142 -0.1051  0.1491  0.2150
   47MOL   C23617808   4.091   3.452   0.197 -0.3414  0.3633 -0.0233
   47MOL   C23717809   4.086   3.568   0.277  0.2077 -0.9786  0.4255
   47MOL   C23817810   4.206   3.640   0.296 -0.7726  0.6761 -1.1031
   47MOL   C23917811   4.330   3.600   0.240  0.1159  0.2051  0.2097
   47MOL   C24017812   4.331   3.487   0.153 -0.5273 -0.3247 -1.2307
   47MOL   H24117813   4.259   2.871   0.021 -0.9960 -0.4018  0.4304
   47MOL   H24217814   4.129   3.053   8.107 -0.5485  1.8833 -0.3541
   47MOL   H24317815   4.178   3.149   0.196 -1.5365 -0.2183  0.5890
   47MOL   H24417816   4.051   3.195   0.084 -0.4831 -1.7658  3.1562
   47MOL   H24517817   3.995   3.407   0.180 -0.1277  0.0973 -0.5135
   47MOL   H24617818   3.988   3.594   0.314 -0.2292 -0.2059 -1.2163
   47MOL   H24717819   4.194   3.734   0.348 -2.2333  0.7854 -1.6119
   47MOL   H24817820   4.414   3.664   0.262  1.7670 -1.1465 -1.9173
   47MOL   C24917821   4.464   3.441   0.108  0.1963 -0.3405  0.0041
   47MOL   C25017822   4.500   3.438   8.129  0.4150  0.3051 -0.0227
   47MOL   O25117823   4.532   3.548   0.044  0.5775  0.2221 -0.2888
   47MOL   C25217824   4.389   3.455   8.027 -0.4832  0.5742  0.0051
   47MOL   O25317825   4.446   3.474   7.896 -0.0082 -0.3559  0.0151
   47MOL   C25417826   4.540   3.388   7.836 -0.1333 -0.3055 -0.0272
   47MOL   C25517827   4.560   3.253   7.867 -0.3399  0.5518  0.0893
   47MOL   C25617828   4.651   3.166   7.801  0.5679  1.0153 -0.2635
   47MOL   C25717829   4.731   3.223   7.700  0.0684  0.0322  0.2695
   47MOL   C25817830   4.713   3.360   7.668 -0.9876  0.1230 -0.0023
   47MOL   C25917831   4.620   3.449   7.738 -0.3133 -0.5785 -0.2306
   47MOL   H26017832   4.524   3.400   0.188 -2.9919  0.8899  3.1437
   47MOL   H26117833   4.582   3.368   8.114 -0.4447 -0.5736 -0.6719
   47MOL   H26217834   4.344   3.551   8.053 -0.3851  0.4695  0.5644
   47MOL   H26317835   4.315   3.377   8.048  1.7445 -1.2399  1.3299
   47MOL   H26417836   4.493   3.209   7.940 -0.9279  2.1793  0.5531
   47MOL   H26517837   4.646   3.058   7.805  1.0237  1.0369  1.2958
   47MOL   H26617838   4.799   3.165   7.640  0.8941 -2.0849  3.1548
   47MOL   H26717839   4.786   3.395   7.596 -2.1223 -0.1071 -1.3026
   47MOL   C26817840   4.629   3.601   7.722 -0.2438  0.0567  0.3480
   47MOL   C26917841   4.729   3.689   7.798  0.5412 -0.0612  0.8111
   47MOL   O27017842   4.751   3.643   7.664 -0.0487  0.4766  0.1988
   47MOL   C27117843   4.826   3.646   7.897 -0.5798  0.4722  0.0237
   47MOL   O27217844   4.931   3.739   7.919 -0.3262 -0.1649 -0.4299
   47MOL   C27317845   4.900   3.866   7.970 -0.3846 -1.0646  0.0692
   47MOL   C27417846   4.787   3.885   8.057 -0.3344  0.0494  0.6452
   47MOL   C27517847   4.750   4.014   8.096 -0.0703  0.1551  0.2534
   47MOL   C27617848   4.838   4.122   8.058 -0.2307 -0.4300 -0.1834
   47MOL   C27717849   4.952   4.100   7.976 -0.3174 -0.5497 -0.7065
   47MOL   C27817850   4.986   3.973   7.932 -0.3247  0.2358  0.0167
   47MOL   H27917851   4.543   3.652   7.681 -0.4300 -0.6577 -0.1562
   47MOL   H28017852   4.702   3.795   7.796 -1.1568 -0.4780  0.5630
   47MOL   H28117853   4.869   3.549   7.870 -1.8454  0.1141 -0.7428
   47MOL   H28217854   4.778   3.630   7.994  0.2982  2.4892  0.8051
   47MOL   H28317855   4.722   3.806   8.092 -1.0270  0.1290 -0.4299
   47MOL   H28417856   4.661   4.040   8.152  0.1915 -0.5087  0.9889
   47MOL   H28517857   4.820   4.223   8.091 -1.2018 -0.5208 -0.4262
   47MOL   H28617858   5.006   4.189   7.944  1.3175 -0.7757  1.3283
   47MOL   C28717859   5.099   3.947   7.840 -0.4113  0.2048 -0.9831
   47MOL   C28817860   5.062   3.937   7.696 -0.0122  0.8302  0.1016
   47MOL   O28917861   5.124   4.059   7.750  0.1119 -0.3250 -0.1312
   47MOL   C29017862   4.928   3.965   7.621 -0.1015  0.2194  0.3863
   47MOL   O29117863   4.956   3.973   7.479 -0.3420 -0.5287 -0.2572
   47MOL   C29217864   4.852   4.012   7.397 -0.1147  0.6728 -0.2155
   47MOL   C29317865   4.714   4.024   7.436  0.5348  0.2054  0.0682
   47MOL   C29417866   4.623   4.085   7.355 -0.2564 -0.3417  0.7195
   47MOL   C29517867   4.659   4.120   7.221  0.2015  0.7053  0.1127
   47MOL   C29617868   4.783   4.094   7.176  0.6998  0.6187 -0.1604
   47MOL   C29717869   4.887   4.046   7.266  0.4223  0.0132  0.0724
   47MOL   H29817870   5.182   3.900   7.892 -1.9092 -1.6825 -0.2334
   47MOL   H29917871   5.125   3.868   7.639 -0.5854  0.5059 -0.1517
   47MOL   H30017872   4.882   4.056   7.658  0.2056  1.7441 -2.7653
   47MOL   H30117873   4.865   3.878   7.641 -0.4479  0.3611 -0.0718
   47MOL   H30217874   4.690   4.000   7.539 -0.9537 -0.6219 -0.4568
   47MOL   H30317875   4.528   4.120   7.393  0.9442  2.3663  1.3150
   47MOL   H30417876   4.591   4.169   7.153 -1.2599 -3.2878 -1.4336
   47MOL   H30517877   4.803   4.118   7.072  0.8575 -1.0993 -0.5382
   47MOL   C30617878   5.029   4.056   7.212  0.5167  0.0200 -0.3545
   47MOL   C30717879   5.114   3.930   7.203  0.0740 -0.0729 -0.0739
   47MOL   O30817880   5.046   3.995   7.088 -1.0335  0.5621  0.4209
   47MOL   C30917881   5.066   3.791   7.245 -0.0940 -0.0880  0.5917
   47MOL   O31017882   5.139   3.675   7.203  0.5510 -0.0288 -0.2058
   47MOL   C31117883   5.264   3.636   7.252 -0.2029  0.0397 -0.2087
   47MOL   C31217884   5.319   3.677   7.379 -0.1079  0.1354  0.0814
   47MOL   C31317885   5.453   3.638   7.413 -0.4022  1.3461  0.5293
   47MOL   C31417886   5.531   3.561   7.329 -0.1020 -0.7558 -0.3681
   47MOL   C31517887   5.470   3.511   7.212  0.1252  0.3528  0.4254
   47MOL   C31617888   5.342   3.552   7.170 -0.0282 -0.3567 -0.7861
   47MOL   H31717889   5.073   4.155   7.213  1.0940 -0.2285  1.5551
   47MOL   H31817890   5.220   3.954   7.201 -0.2778  1.4635 -1.4139
   47MOL   H31917891   4.965   3.787   7.204  1.7147 -0.2477 -4.1600
   47MOL   H32017892   5.054   3.771   7.352  0.3810  1.3734  0.9421
   47MOL   H32117893   5.267   3.744   7.445 -2.1204 -0.6088 -0.6899
   47MOL   H32217894   5.507   3.682   7.496 -1.4599  0.7897  1.5255
   47MOL   H32317895   5.636   3.551   7.351 -0.6328 -1.7075  1.8739
   47MOL   H32417896   5.531   3.451   7.147 -0.7310  1.0759 -1.0741
   47MOL   C32517897   5.286   3.518   7.042 -0.6550  0.0161  0.4306
   47MOL   C32617898   5.290   3.603   6.921 -0.0489 -0.2930 -0.5290
   47MOL   O32717899   5.383   3.495   6.941 -0.0698 -0.5244 -0.1564
   47MOL   C32817900   5.345   3.749   6.927 -0.0608  0.2240  0.2076
   47MOL   O32917901   5.357   3.807   6.802  0.1821  0.2130 -0.0352
   47MOL   C33017902   5.454   3.760   6.711 -0.5294  0.6235  0.0745
   47MOL   C33117903   5.561   3.676   6.746  0.6843 -0.2824  0.0507
   47MOL   C33217904   5.658   3.634   6.652 -0.3271 -0.1343  0.2092
   47MOL   C33317905   5.655   3.681   6.519 -0.0068 -0.5180 -0.2009
   47MOL   C33417906   5.554   3.771   6.487 -0.0927  0.1184 -0.3306
   47MOL   C33517907   5.447   3.801   6.580 -0.2545  0.5555 -0.3234
   47MOL   H33617908   5.207   3.443   7.045  0.9122 -1.6739  0.4183
   47MOL   H33717909   5.198   3.580   6.868 -0.4147 -1.9551  0.8093
   47MOL   H33817910   5.436   3.750   6.987 -0.9511  0.1178  1.5742
   47MOL   H33917911   5.278   3.807   6.990  0.2159  0.3171  0.4167
   47MOL   H34017912   5.567   3.621   6.839 -0.6048  0.9566  0.8871
   47MOL   H34117913   5.721   3.554   6.689  0.6016  1.0595  1.2459
   47MOL   H34217914   5.722   3.634   6.448  0.4706  2.1873 -1.5828
   47MOL   H34317915   5.544   3.810   6.387  1.1775  1.3789  0.0257
   47MOL   C34417916   5.324   3.878   6.539  0.2796 -0.2821  0.3618
   47MOL   C34517917   5.305   4.027   6.552  0.2277  0.9139  0.4755
   47MOL   O34617918   5.358   3.970   6.434  0.0145  0.4535 -0.2158
   47MOL   C34717919   5.400   4.119   6.631  0.5907 -0.2482  0.3747
   47MOL   O34817920   5.362   4.249   6.596  0.0997  0.2072 -0.0229
   47MOL   C34917921   5.260   4.313   6.661 -0.3200 -0.6572 -0.3884
   47MOL   C35017922   5.192   4.250   6.769  0.0584  0.5738  0.3494
   47MOL   C35117923   5.104   4.322   6.852  0.6376 -0.8413  0.2773
   47MOL   C35217924   5.064   4.455   6.814 -0.1671 -0.7858 -0.2437
   47MOL   C35317925   5.133   4.517   6.709 -0.7199 -0.2014 -0.1703
   47MOL   C35417926   5.232   4.451   6.635 -0.1978  0.1122 -0.1881
   47MOL   H35517927   5.233   3.820   6.527 -1.2001  1.6009  2.2141
   47MOL   H35617928   5.200   4.052   6.552  0.0240  0.0568  0.2669
   47MOL   H35717929   5.500   4.098   6.593  1.0642  1.2149  0.7851
   47MOL   H35817930   5.409   4.090   6.735 -1.0053 -1.7054  0.1204
   47MOL   H35917931   5.216   4.151   6.804 -3.4571 -1.6573 -3.1290
   47MOL   H36017932   5.056   4.291   6.944  2.5491 -2.6122  0.6962
   47MOL   H36117933   5.000   4.519   6.873 -0.0493 -1.1059  0.2363
   47MOL   H36217934   5.121   4.623   6.690  0.7449 -0.2909 -1.6764
   47MOL   C36317935   5.314   4.528   6.537 -0.0885  0.4275  0.2535
   47MOL   C36417936   5.257   4.621   6.433  0.4695  0.3530  0.1839
   47MOL   O36517937   5.309   4.673   6.554  0.5538 -0.4046 -0.0370
   47MOL   C36617938   5.109   4.647   6.407  0.2303  0.3055 -0.0821
   47MOL   O36717939   5.030   4.535   6.368  0.0272  0.2118  0.1754
   47MOL   C36817940   4.894   4.549   6.343 -0.2373 -0.3077  0.3055
   47MOL   C36917941   4.840   4.680   6.335 -0.0684  0.2517 -0.1515
   47MOL   C37017942   4.700   4.691   6.309  0.0827 -0.2272  0.0714
   47MOL   C37117943   4.621   4.572   6.282  0.4526 -0.2177 -0.1483
   47MOL   C37217944   4.678   4.448   6.290 -0.1948  0.1446 -0.3856
   47MOL   C37317945   4.821   4.433   6.309 -0.7928  0.1950 -0.6559
   47MOL   H37417946   5.406   4.477   6.511 -0.2696  0.9952 -1.5300
   47MOL   H37517947   5.322   4.652   6.351  0.1181 -0.1962 -0.3061
   47MOL   H37617948   5.107   4.728   6.334 -0.6650 -0.0546 -0.4573
   47MOL   H37717949   5.062   4.687   6.497  0.3472 -0.6822  0.4248
   47MOL   H37817950   4.902   4.767   6.352 -0.9978  0.7316  0.7913
   47MOL   H37917951   4.656   4.789   6.320  0.8494 -0.0856  2.0681
   47MOL   H38017952   4.516   4.591   6.260  1.4318  1.9417 -3.3555
   47MOL   H38117953   4.619   4.357   6.283 -0.8539  0.6472 -1.3570
   47MOL   H38217954   4.868   4.336   6.307 -2.2694 -0.5997  1.2382
   48MOL     C117955   0.803   8.065   7.942  0.1793  0.1493 -0.3616
   48MOL     C217956   0.754   8.094   8.083  0.5731 -0.4767 -0.0029
   48MOL     O317957   0.685   8.004   8.001 -0.1835  0.0312  0.5673
   48MOL     C417958   0.677   0.048   8.107 -0.4914  0.0509 -0.2320
   48MOL     O517959   0.626   0.048   0.071  0.0129 -0.3852  0.7259
   48MOL     C617960   0.545   8.117   0.118 -0.0079  0.7405 -0.2228
   48MOL     C717961   0.464   8.038   0.037  0.2343 -0.3698  0.2364
   48MOL     C817962   0.390   7.935   0.094  0.4975 -0.6381  0.1623
   48MOL     C917963   0.394   7.914   0.239  0.2971  0.3322  0.3290
   48MOL    C1017964   0.474   7.995   0.320  0.3349  0.4675 -0.3625
   48MOL    C1117965   0.552   8.093   0.260  0.0307 -0.2895 -0.1168
   48MOL    H1217966   0.879   7.988   7.931  0.6775  0.8690 -1.9938
   48MOL    H1317967   0.816   8.058   8.165  0.8796 -0.2628 -0.1431
   48MOL    H1417968   0.601   0.060   8.029  0.0191 -1.9366 -1.0854
   48MOL    H1517969   0.753   0.126   8.103  1.8961 -2.1589  0.5492
   48MOL    H1617970   0.468   8.044   8.099 -0.7069  0.0184  0.2203
   48MOL    H1717971   0.332   7.871   0.029 -0.9021 -0.1018  0.8462
   48MOL    H1817972   0.342   7.826   0.275  0.0706  0.7783  1.0972
   48MOL    H1917973   0.480   7.987   0.427  0.4195 -0.7479 -0.4500
   48MOL    H2017974   0.782   8.138   7.864 -0.9097  1.6983  1.3365
   48MOL    C2117975   0.645   8.168   0.347 -0.4363 -0.8333  0.1844
   48MOL    C2217976   0.607   0.135   0.387 -0.3399  0.8782 -0.1164
   48MOL    O2317977   0.606   0.025   0.476  0.0792 -0.1626 -0.0388
   48MOL    C2417978   0.467   0.191   0.359  0.2976 -0.0437 -0.0092
   48MOL    O2517979   0.422   0.284   0.463  0.4502 -0.0259 -0.1622
   48MOL    C2617980   0.320   0.250   0.541  0.6781 -0.0021 -1.1805
   48MOL    C2717981   0.297   0.118   0.580  0.5108 -0.5914 -0.2570
   48MOL    C2817982   0.193   0.077   0.669 -0.9043  0.3908 -0.4695
   48MOL    C2917983   0.121   0.183   0.729  0.2195  1.0336  0.3678
   48MOL    C3017984   0.143   0.318   0.694  0.2085  0.4668  0.3291
   48MOL    C3117985   0.241   0.352   0.595  0.7494 -0.2498 -0.2809
   48MOL    H3217986   0.746   8.129   0.335 -0.5725 -0.4495 -2.5706
   48MOL    H3317987   0.684   0.206   0.420 -0.1744  0.5228  0.2727
   48MOL    H3417988   0.403   0.104   0.345  0.6770 -0.0095 -1.9841
   48MOL    H3517989   0.475   0.238   0.261  3.3428 -0.5195 -0.0365
   48MOL    H3617990   0.362   0.039   0.545 -0.0408 -2.2081  2.2449
   48MOL    H3717991   0.186   8.145   0.703  0.5247  1.5779  3.6061
   48MOL    H3817992   0.045   0.159   0.802  0.4141 -2.3822 -0.4832
   48MOL    H3917993   0.078   0.397   0.730 -0.2243 -0.3741  1.3868
   48MOL    C4017994   0.275   0.495   0.560 -0.0066  0.1393 -0.3810
   48MOL    C4117995   0.197   0.566   0.454 -0.0759  0.6336 -0.2689
   48MOL    O4217996   0.175   0.593   0.596  0.1322 -0.0481 -0.9477
   48MOL    C4317997   0.077   0.496   0.381  0.2828 -1.2922  0.8042
   48MOL    O4417998   0.002   0.586   0.293  0.0053 -0.5142  0.4626
   48MOL    C4517999   8.048   0.630   0.330  0.2221  0.0861 -0.3190
   48MOL    C4618000   8.010   0.655   0.467 -0.1658 -0.3956  0.2256
   48MOL    C4718001   7.881   0.697   0.490  0.1778  0.7159 -0.4524
   48MOL    C4818002   7.796   0.725   0.382  0.1951 -0.2180 -0.8303
   48MOL    C4918003   7.835   0.708   0.251  0.1237  0.9013  0.3787
   48MOL    C5018004   7.955   0.655   0.224 -0.4019  0.2184  0.3646
   48MOL    H5118005   0.383   0.512   0.562 -0.2379  1.8324 -0.9908
   48MOL    H5218006   0.245   0.640   0.391 -0.3359  0.7029 -0.3901
   48MOL    H5318007   0.011   0.460   0.460  0.5836  0.6046  1.9542
   48MOL    H5418008   0.110   0.410   0.323  2.3309 -0.7726  1.1281
   48MOL    H5518009   8.067   0.636   0.557  0.3256  3.8742  0.9438
   48MOL    H5618010   7.841   0.722   0.587  1.1659  1.3097 -0.1865
   48MOL    H5718011   7.696   0.753   0.409  0.6478 -1.8750  2.9402
   48MOL    H5818012   7.776   0.729   0.163  0.1266  1.4296  0.5039
   48MOL    C5918013   8.018   0.650   0.087  0.2916 -0.1902 -0.2580
   48MOL    C6018014   7.986   0.548   8.151  0.2860  0.1302  0.1597
   48MOL    O6118015   7.918   0.674   8.156  0.1661 -0.1976 -0.1541
   48MOL    C6218016   7.910   0.421   0.002  0.0576  0.4358  0.1916
   48MOL    O6318017   7.930   0.352   0.126  0.2228  0.1468 -0.6965
   48MOL    C6418018   8.049   0.280   0.141  0.2244 -0.2531 -0.4540
   48MOL    C6518019   8.154   0.269   0.041  0.2263 -0.1707  0.5997
   48MOL    C6618020   0.101   0.197   0.072 -0.3942  0.1633  1.7610
   48MOL    C6718021   0.124   0.139   0.194  0.6534  0.0030 -0.3426
   48MOL    C6818022   0.014   0.142   0.285  0.1733 -0.2274 -0.6541
   48MOL    C6918023   8.063   0.213   0.264  0.8504  0.2488 -0.5118
   48MOL    H7018024   8.107   0.713   0.091 -1.0869  1.7576  0.3640
   48MOL    H7118025   8.074   0.557   8.088  2.1001 -0.6596  2.4907
   48MOL    H7218026   7.939   0.343   8.100 -0.1017  0.2255  0.3573
   48MOL    H7318027   7.803   0.430   8.154  0.5150 -0.4224 -3.6716
   48MOL    H7418028   8.153   0.309   8.110  1.3933  0.4280  0.8164
   48MOL    H7518029   0.178   0.188   8.166 -1.0949  1.1264  0.9192
   48MOL    H7618030   0.224   0.103   0.214  0.6094  0.6983  1.2644
   48MOL    H7718031   0.033   0.093   0.380 -0.0595  1.5777  0.3499
   48MOL    C7818032   7.959   0.216   0.372  0.3653  0.7265  0.6213
   48MOL    C7918033   7.838   0.116   0.358 -0.0869 -0.1001 -0.4190
   48MOL    O8018034   7.944   0.093   0.453 -0.6706 -0.8005 -0.0922
   48MOL    C8118035   7.829   0.016   0.246 -0.1655 -0.0815  1.0596
   48MOL    O8218036   7.691   8.148   0.224 -0.0335  0.3795  0.0053
   48MOL    C8318037   7.659   8.076   0.114 -0.5249  0.1934 -0.0023
   48MOL    C8418038   7.746   7.980   0.057 -0.6277  0.1989 -0.6852
   48MOL    C8518039   7.706   7.908   8.117 -0.1324 -0.9041 -0.5071
   48MOL    C8618040   7.584   7.935   8.051 -0.0196 -0.2414  0.0021
   48MOL    C8718041   7.494   8.024   8.112  0.0832 -0.2156  0.3501
   48MOL    C8818042   7.533   8.098   0.056 -0.2547  0.3671 -0.2555
   48MOL    H8918043   7.976   0.308   0.428  0.7045  0.4797  0.9214
   48MOL    H9018044   7.753   0.142   0.421 -0.0795  2.1537 -1.2837
   48MOL    H9118045   7.887   8.099   0.276 -0.5482  0.3131  2.9471
   48MOL    H9218046   7.874   0.054   0.154 -1.2257 -2.0965 -0.3402
   48MOL    H9318047   7.835   7.950   0.109  0.2641  4.6500  0.5935
   48MOL    H9418048   7.769   7.827   8.084 -1.6206 -1.8301 -1.1023
   48MOL    H9518049   7.554   7.874   7.967  0.2679 -0.4064  0.0167
   48MOL    H9618050   7.396   8.040   8.071 -0.0121 -0.8503  0.3209
   48MOL    C9718051   7.433   0.012   0.123 -0.4072 -0.6926  0.5759
   48MOL    C9818052   7.427   0.167   0.111 -0.1332  0.3657 -0.4102
   48MOL    O9918053   7.354   0.086   0.024 -0.2001 -0.3230 -0.4104
   48MOL   C10018054   7.545   0.241   0.044  0.9863  0.3684  0.5377
   48MOL   O10118055   7.511   0.366   8.166 -0.1564  0.3526  0.5000
   48MOL   C10218056   7.512   0.471   0.089 -0.5204 -0.2211 -0.4992
   48MOL   C10318057   7.522   0.458   0.233  0.1595 -0.5584 -0.2836
   48MOL   C10418058   7.487   0.562   0.321  0.3043  0.5149  0.3895
   48MOL   C10518059   7.455   0.689   0.262  0.3746 -0.3137 -0.2646
   48MOL   C10618060   7.471   0.707   0.125  0.1685  0.5688  0.0904
   48MOL   C10718061   7.498   0.600   0.031  0.2739  0.0463  0.2915
   48MOL   H10818062   7.383   8.133   0.207  0.0856  1.1061  1.9286
   48MOL   H10918063   7.373   0.222   0.188  0.8357 -0.3863  0.8223
   48MOL   H11018064   7.577   0.178   8.131  0.9828 -1.2167  1.7051
   48MOL   H11118065   7.627   0.247   0.115 -1.0372  0.9501  2.9251
   48MOL   H11218066   7.541   0.363   0.282 -0.4696 -1.1108 -1.0810
   48MOL   H11318067   7.491   0.553   0.428 -1.8904  0.2718  0.4737
   48MOL   H11418068   7.442   0.769   0.334  0.5713  0.0621 -0.6449
   48MOL   H11518069   7.438   0.807   0.097 -1.2681  0.3908  1.0780
   48MOL   C11618070   7.504   0.625   8.057  0.5108 -0.0857 -0.0189
   48MOL   C11718071   7.386   0.621   7.963 -0.0379 -0.6532  0.2190
   48MOL   O11818072   7.434   0.748   8.024 -0.1666 -0.7951  0.2733
   48MOL   C11918073   7.255   0.575   8.013 -0.4119  0.3191  0.0349
   48MOL   O12018074   7.163   0.601   7.908  0.0492  0.5666 -0.2450
   48MOL   C12118075   7.022   0.565   7.926 -0.1393  0.1283 -0.1812
   48MOL   C12218076   6.968   0.510   8.047 -0.2425  0.3718 -0.2254
   48MOL   C12318077   6.834   0.477   8.046  0.4606 -0.5361 -0.0815
   48MOL   C12418078   6.758   0.488   7.930  0.1064 -0.1006  0.0785
   48MOL   C12518079   6.810   0.539   7.813  0.5340  0.3681  0.4378
   48MOL   C12618080   6.940   0.578   7.808 -0.0706 -0.4961 -0.4797
   48MOL   H12718081   7.607   0.632   8.020  0.7736 -1.0962  0.5152
   48MOL   H12818082   7.409   0.628   7.857 -1.0313  1.6537  0.1119
   48MOL   H12918083   7.224   0.614   8.110 -0.9492 -0.9585  0.3780
   48MOL   H13018084   7.260   0.467   8.024  0.0905  0.3582  0.2013
   48MOL   H13118085   7.022   0.500   8.140  0.2158 -1.3049 -0.6538
   48MOL   H13218086   6.775   0.448   8.132  1.0393 -0.9876  0.1725
   48MOL   H13318087   6.652   0.469   7.929  0.6072 -3.0796 -1.2084
   48MOL   H13418088   6.738   0.551   7.734 -0.4494  2.0261  1.5415
   48MOL   C13518089   6.994   0.641   7.686 -0.5103  0.0678  0.4293
   48MOL   C13618090   7.055   0.565   7.574 -0.0397  0.7617 -0.0092
   48MOL   O13718091   6.923   0.614   7.563 -0.2244 -0.1293  0.0184
   48MOL   C13818092   7.060   0.421   7.561  0.2783  0.1946 -0.0799
   48MOL   O13918093   7.189   0.373   7.521  0.3434 -0.2076 -0.4212
   48MOL   C14018094   7.262   0.297   7.611 -0.1430  0.8057  0.4195
   48MOL   C14118095   7.227   0.288   7.749  0.4542 -0.3722 -0.2639
   48MOL   C14218096   7.301   0.211   7.840  0.3752 -0.7583  0.1414
   48MOL   C14318097   7.419   0.151   7.795 -0.3142  0.5099  1.0521
   48MOL   C14418098   7.461   0.164   7.654 -0.1783  1.2555 -0.1728
   48MOL   C14518099   7.383   0.233   7.565 -0.5133  0.3739 -0.5454
   48MOL   H14618100   7.033   0.740   7.706 -2.7666  1.1930 -0.5582
   48MOL   H14718101   7.126   0.620   7.513 -0.5923  0.5785 -0.8320
   48MOL   H14818102   6.993   0.398   7.478 -2.2566  2.1553  1.3494
   48MOL   H14918103   7.016   0.369   7.647  1.7507  2.6394  2.2208
   48MOL   H15018104   7.133   0.319   7.792  1.0761  0.6683  0.3335
   48MOL   H15118105   7.287   0.234   7.945 -0.0777 -0.2046 -0.0355
   48MOL   H15218106   7.487   0.112   7.870 -0.6524 -0.5526  0.8055
   48MOL   H15318107   7.563   0.135   7.634 -0.0302  1.7504 -0.1300
   48MOL   C15418108   7.422   0.247   7.423  0.3433 -0.3204  0.2824
   48MOL   C15518109   7.484   0.369   7.366  0.3325 -0.4212  0.0058
   48MOL   O15618110   7.563   0.251   7.407 -0.1575  0.2855 -0.2927
   48MOL   C15718111   7.509   0.489   7.460  0.5188 -0.1260  0.3721
   48MOL   O15818112   7.619   0.553   7.409  0.3854 -0.0756  0.0400
   48MOL   C15918113   7.683   0.653   7.477  0.1820  0.2153  0.0719
   48MOL   C16018114   7.615   0.737   7.572  0.1436  0.3920  1.1759
   48MOL   C16118115   7.689   0.839   7.632  1.1089  0.3878  0.5229
   48MOL   C16218116   7.824   0.860   7.599 -0.7164 -0.5676  0.2810
   48MOL   C16318117   7.893   0.770   7.515 -0.7698  0.0144  1.5679
   48MOL   C16418118   7.824   0.664   7.454 -0.1604 -0.3663 -0.2662
   48MOL   H16518119   7.374   0.180   7.352  0.9827 -2.1862  1.5692
   48MOL   H16618120   7.492   0.386   7.258 -0.4089  0.1110  0.0319
   48MOL   H16718121   7.529   0.461   7.564 -1.2103 -1.3487  0.3972
   48MOL   H16818122   7.418   0.549   7.459  0.5608 -0.0112  1.8107
   48MOL   H16918123   7.508   0.728   7.576  0.2280 -1.7710 -0.3685
   48MOL   H17018124   7.646   0.910   7.702 -3.4594 -2.0687  0.3849
   48MOL   H17118125   7.874   0.940   7.650  1.7281 -1.9400  0.1151
   48MOL   H17218126   7.994   0.794   7.484 -0.9242  2.2787  2.6903
   48MOL   C17318127   7.887   0.589   7.344  0.4419 -0.2934 -0.5453
   48MOL   C17418128   7.859   0.613   7.194 -0.8890  0.3962 -1.3439
   48MOL   O17518129   7.973   0.671   7.260  0.2260  0.4797 -0.4058
   48MOL   C17618130   7.757   0.712   7.137 -0.0793 -0.4146  0.1736
   48MOL   O17718131   7.809   0.763   7.012  0.3409 -0.2246 -0.2443
   48MOL   C17818132   7.864   0.679   6.919  0.3191  0.5655  0.5638
   48MOL   C17918133   7.802   0.554   6.890  0.6485  0.3818  0.2905
   48MOL   C18018134   7.863   0.468   6.791 -0.6473  0.0316 -0.6387
   48MOL   C18118135   7.983   0.503   6.733 -0.0999  1.3161 -0.2198
   48MOL   C18218136   8.037   0.626   6.755 -0.6970 -0.3599 -0.2285
   48MOL   C18318137   7.984   0.720   6.848 -0.3782 -0.2650  0.1359
   48MOL   H18418138   7.929   0.492   7.368  0.1146 -0.3464 -0.1717
   48MOL   H18518139   7.885   0.526   7.135 -0.5785 -1.9514  2.1540
   48MOL   H18618140   7.743   0.795   7.207  0.1028 -1.2399  1.1989
   48MOL   H18718141   7.656   0.670   7.130  0.3644 -1.2728 -1.3455
   48MOL   H18818142   7.707   0.535   6.938  1.0370  1.9462  1.7132
   48MOL   H18918143   7.813   0.376   6.766 -0.7720 -0.2593  0.6404
   48MOL   H19018144   8.027   0.428   6.670 -1.5912 -0.0739  0.3559
   48MOL   H19118145   8.131   0.645   6.705 -1.2334  0.3117 -0.9867
   48MOL   C19218146   8.047   0.858   6.861 -0.1055 -0.1928 -0.1278
   48MOL   C19318147   8.158   0.885   6.966 -0.1935 -0.5196 -1.0420
   48MOL   O19418148   0.023   0.856   6.831  0.4113 -0.3759  0.1233
   48MOL   C19518149   0.042   0.780   7.063  0.5198 -0.3259  0.3107
   48MOL   O19618150   0.168   0.805   7.130  0.4132 -0.1284  0.2545
   48MOL   C19718151   0.282   0.740   7.101 -0.1997 -0.4720  0.4960
   48MOL   C19818152   0.297   0.635   7.007  0.1111  0.1077  0.5143
   48MOL   C19918153   0.420   0.576   6.995 -0.3969  1.4037 -0.1987
   48MOL   C20018154   0.537   0.612   7.070  0.2010  0.2697 -0.8736
   48MOL   C20118155   0.520   0.712   7.168  0.0506 -0.2836  0.2522
   48MOL   C20218156   0.393   0.778   7.179 -0.3683 -0.9047 -0.5004
   48MOL   H20318157   7.991   0.946   6.829 -1.8064  0.1510  3.5471
   48MOL   H20418158   8.163   0.991   6.991 -2.1329 -0.7653  0.4344
   48MOL   H20518159   0.046   0.690   7.002 -0.7279 -0.4921  0.4527
   48MOL   H20618160   8.138   0.768   7.142 -0.3147  0.7082 -0.3016
   48MOL   H20718161   0.212   0.605   6.946 -0.0166  2.0258 -0.2864
   48MOL   H20818162   0.431   0.501   6.919  0.2696  1.7810 -0.4814
   48MOL   H20918163   0.639   0.578   7.061 -0.0115 -0.1197 -1.8505
   48MOL   H21018164   0.603   0.738   7.232  2.2900 -2.3699 -1.7008
   48MOL   C21118165   0.377   0.874   7.291  1.0550  0.1428 -0.0114
   48MOL   C21218166   0.294   0.856   7.416  0.3353 -1.0465 -0.2821
   48MOL   O21318167   0.437   0.837   7.414 -0.0768 -0.1645  0.8936
   48MOL   C21418168   0.216   0.729   7.441 -1.2058  0.4297 -0.2873
   48MOL   O21518169   0.183   0.726   7.582  0.0655 -0.3461  0.0447
   48MOL   C21618170   0.121   0.612   7.627  0.8779  0.3806 -0.2839
   48MOL   C21718171   0.067   0.510   7.544 -0.2382  0.2450  0.0481
   48MOL   C21818172   8.161   0.400   7.595  0.5437  0.1995  0.1217
   48MOL   C21918173   8.157   0.376   7.734 -0.1501  0.2806  0.5086
   48MOL   C22018174   0.037   0.481   7.815  0.4089  0.7175  0.2937
   48MOL   C22118175   0.100   0.598   7.766 -0.2783 -0.0172  0.6882
   48MOL   H22218176   0.379   0.980   7.265  0.0138  0.4089  0.9480
   48MOL   H22318177   0.273   0.944   7.478  2.3750 -0.5535 -0.2525
   48MOL   H22418178   0.280   0.641   7.428 -0.0251  1.0870  0.8585
   48MOL   H22518179   0.130   0.726   7.375 -0.5165 -0.5219 -1.1637
   48MOL   H22618180   0.059   0.514   7.436 -0.4273 -0.7189  0.0181
   48MOL   H22718181   8.122   0.323   7.530  2.0665 -1.5363  1.1986
   48MOL   H22818182   8.117   0.283   7.770 -2.6693  1.1503  0.0233
   48MOL   H22918183   0.025   0.462   7.921 -2.1520  1.2659  0.1548
   48MOL   C23018184   0.146   0.706   7.864  0.3235 -0.0528 -0.3700
   48MOL   C23118185   0.081   0.833   7.883  0.2145 -0.0859  0.1483
   48MOL   O23218186   0.057   0.718   7.969  0.1001 -0.3623  0.0836
   48MOL   C23318187   8.149   0.879   7.778 -0.8865  1.0369  0.3892
   48MOL   O23418188   8.041   0.962   7.837  0.1834  0.0437  0.2387
   48MOL   C23518189   8.064   1.101   7.840 -0.5734  0.4703  0.3414
   48MOL   C23618190   0.017   1.168   7.805  0.1446  0.1876 -0.4228
   48MOL   C23718191   0.018   1.310   7.805  0.5007  0.1837 -0.3069
   48MOL   C23818192   8.074   1.388   7.829 -0.8244 -0.4749 -0.2210
   48MOL   C23918193   7.957   1.317   7.853  0.4656  0.0710  0.4495
   48MOL   C24018194   7.951   1.179   7.858 -0.0838 -0.3431  0.3147
   48MOL   H24118195   0.253   0.702   7.883  0.3136  0.2394 -0.2612
   48MOL   H24218196   0.138   0.909   7.936  0.7958  0.6448 -1.5012
   48MOL   H24318197   8.103   0.801   7.717 -0.5617  2.0860 -1.2172
   48MOL   H24418198   0.032   0.938   7.703  1.7755 -0.1328  1.2636
   48MOL   H24518199   0.109   1.119   7.778  0.0430 -0.1357 -0.1879
   48MOL   H24618200   0.110   1.358   7.777  1.0760 -1.5464 -1.5255
   48MOL   H24718201   8.074   1.495   7.819  0.3910 -0.6072 -1.8796
   48MOL   H24818202   7.868   1.379   7.852  0.9988  0.8318  0.2770
   48MOL   C24918203   7.813   1.113   7.866 -0.7111 -0.1135 -0.6749
   48MOL   C25018204   7.752   1.027   7.976 -0.3037 -0.0990  0.3385
   48MOL   O25118205   7.742   1.166   7.971 -0.5952 -0.2254  0.7456
   48MOL   C25218206   7.830   0.974   8.099  0.1754 -0.0524  0.5368
   48MOL   O25318207   7.748   0.950   0.044  0.1799 -0.6639 -0.3312
   48MOL   C25418208   7.715   1.080   0.095 -0.2004  0.0712 -0.4780
   48MOL   C25518209   7.593   1.131   0.052  0.5586  0.0836  0.0758
   48MOL   C25618210   7.534   1.243   0.106 -0.3013 -0.1624  0.1954
   48MOL   C25718211   7.610   1.308   0.207 -0.0053 -0.0090 -0.0944
   48MOL   C25818212   7.735   1.264   0.246 -0.7394 -0.3778 -0.5286
   48MOL   C25918213   7.792   1.145   0.191 -0.0556 -0.3578  0.4863
   48MOL   H26018214   7.766   1.124   7.769 -0.5109  1.6556 -0.5852
   48MOL   H26118215   7.656   0.982   7.950 -2.0409  3.0730  0.9430
   48MOL   H26218216   7.911   1.043   8.122 -0.5252  0.7011  0.7481
   48MOL   H26318217   7.879   0.882   8.066  0.5000  0.4765 -0.4731
   48MOL   H26418218   7.535   1.074   8.150  2.1696 -1.0838 -0.3242
   48MOL   H26518219   7.434   1.273   0.078 -0.5693 -0.2592  1.0184
   48MOL   H26618220   7.559   1.388   0.258 -1.6774  0.1965 -2.0567
   48MOL   H26718221   7.787   1.320   0.322  2.7158  0.4483 -3.3641
   48MOL   C26818222   7.927   1.097   0.229 -0.2991  0.4710  0.3490
   48MOL   C26918223   8.054   1.172   0.189  0.2355 -0.6784  0.4196
   48MOL   O27018224   7.993   1.183   0.320  0.1996  0.6460 -0.3958
   48MOL   C27118225   8.064   1.294   0.095 -0.1400 -0.3532  0.8997
   48MOL   O27218226   0.008   1.362   0.124 -0.1311 -0.6194 -0.1086
   48MOL   C27318227   0.040   1.474   0.058  0.0264 -0.3501  0.3147
   48MOL   C27418228   8.129   1.539   8.135 -0.5629 -0.0793  0.3237
   48MOL   C27518229   8.166   1.664   8.075 -0.3818  0.2003  0.3602
   48MOL   C27618230   0.124   1.709   8.104  0.0515  0.1894  0.0358
   48MOL   C27718231   0.210   1.642   0.023 -0.0479  0.5937  0.3582
   48MOL   C27818232   0.170   1.520   0.083 -0.7640 -0.1446 -0.0790
   48MOL   H27918233   7.945   0.992   0.252  0.0676  0.6804  1.0539
   48MOL   H28018234   8.145   1.112   0.186  1.3543  0.9805  0.6238
   48MOL   H28118235   7.980   1.358   0.121  0.0436  1.1110 -1.9309
   48MOL   H28218236   8.051   1.265   8.160  1.3808 -0.7513  0.8147
   48MOL   H28318237   8.032   1.501   8.107 -1.3167  0.1858  2.4339
   48MOL   H28418238   8.099   1.715   8.008 -0.0014 -0.2946 -0.4055
   48MOL   H28518239   0.155   1.803   8.062  0.9900 -0.2203 -0.2037
   48MOL   H28618240   0.309   1.681   0.042  0.1567  0.5662 -0.6681
   48MOL   C28718241   0.263   1.429   0.163  0.6879  0.1932  0.7653
   48MOL   C28818242   0.366   1.343   0.089 -0.1728 -0.2590  0.4671
   48MOL   O28918243   0.404   1.464   0.161 -0.6620  0.7441 -0.5987
   48MOL   C29018244   0.365   1.342   8.111 -0.5575  0.1713  0.0909
   48MOL   O29118245   0.468   1.254   8.069 -0.4053  0.1443 -0.0953
   48MOL   C29218246   0.464   1.208   7.943  0.4952 -0.6184 -0.1795
   48MOL   C29318247   0.393   1.273   7.839 -0.5791  0.0713 -0.1447
   48MOL   C29418248   0.384   1.216   7.707  0.6173  0.2494 -0.3397
   48MOL   C29518249   0.443   1.085   7.682 -0.3708 -0.8221 -0.7558
   48MOL   C29618250   0.509   1.021   7.786 -1.0010 -0.3595  0.4098
   48MOL   C29718251   0.526   1.083   7.914 -0.8363 -0.7143  0.6636
   48MOL   H29818252   0.231   1.391   0.259 -0.6585  1.2510  0.7475
   48MOL   H29918253   0.410   1.251   0.128  1.4837 -0.2171 -1.2354
   48MOL   H30018254   0.379   1.443   8.073  0.8671  0.4212  1.2042
   48MOL   H30118255   0.276   1.300   8.064  1.9289 -1.7348 -3.1974
   48MOL   H30218256   0.337   1.361   7.867  1.6729  0.9366  1.8065
   48MOL   H30318257   0.318   1.260   7.634  0.2578  0.7071  0.2543
   48MOL   H30418258   0.436   1.047   7.581 -0.5662  0.1654 -1.1181
   48MOL   H30518259   0.553   0.924   7.768  0.6912  0.6382 -0.9950
   48MOL   C30618260   0.624   1.018   8.012 -0.0803  0.0249  0.0920
   48MOL   C30718261   0.584   0.936   8.127 -0.2578  0.1993 -0.4676
   48MOL   O30818262   0.635   0.877   8.005  0.5648 -0.7313  0.0621
   48MOL   C30918263   0.435   0.909   8.156  0.7390  0.6447 -0.1532
   48MOL   O31018264   0.426   0.773   0.046  0.5866  0.2552 -0.1724
   48MOL   C31118265   0.486   0.757   0.171  0.2978  0.2391 -0.3693
   48MOL   C31218266   0.491   0.860   0.267  0.0934  0.0534 -0.2314
   48MOL   C31318267   0.528   0.823   0.401  0.7598  0.1093  0.1856
   48MOL   C31418268   0.557   0.685   0.434 -0.0870 -0.7494 -0.2557
   48MOL   C31518269   0.545   0.588   0.335 -0.5273 -0.0360 -0.2286
   48MOL   C31618270   0.517   0.625   0.206  0.5195 -0.1323 -0.0030
   48MOL   H31718271   0.721   1.067   8.002  0.2944 -0.3872  1.6334
   48MOL   H31818272   0.650   0.930   0.043 -1.0265  0.4498  0.1436
   48MOL   H31918273   0.382   0.905   8.061  0.4796  0.3571  0.0012
   48MOL   H32018274   0.383   0.982   0.049 -0.0775 -0.0509 -0.0063
   48MOL   H32118275   0.453   0.960   0.253  1.5752  0.6210 -0.3429
   48MOL   H32218276   0.530   0.898   0.479  2.0749  0.7616 -0.4562
   48MOL   H32318277   0.581   0.658   0.536 -0.6547  0.8606  0.3168
   48MOL   H32418278   0.551   0.482   0.354 -2.1275  0.1047  1.2355
   48MOL   C32518279   0.501   0.515   0.101  0.3280  0.1226 -0.0476
   48MOL   C32618280   0.599   0.488   8.162 -0.5630  0.7125  0.4989
   48MOL   O32718281   0.602   0.420   0.119  0.2652 -0.0685  0.2751
   48MOL   C32818282   0.723   0.567   8.127  0.0318  0.6159  0.5539
   48MOL   O32918283   0.761   0.668   0.044 -0.3143 -0.3696  0.5767
   48MOL   C33018284   0.867   0.742   0.006 -0.1987  0.2704 -0.2707
   48MOL   C33118285   0.910   0.758   8.041  0.4257 -0.1207 -0.9914
   48MOL   C33218286   1.033   0.827   8.002  0.1200  0.0106  0.3650
   48MOL   C33318287   1.106   0.881   8.105  0.4604 -0.3123 -0.8090
   48MOL   C33418288   1.067   0.870   0.073 -0.4458  0.5696  0.4651
   48MOL   C33518289   0.945   0.809   0.107  0.3433  0.2516  0.4954
   48MOL   H33618290   0.399   0.479   0.102 -0.2073  1.5949 -0.5997
   48MOL   H33718291   0.574   0.411   8.090  1.7842 -1.8005  2.3197
   48MOL   H33818292   0.694   0.615   8.034 -0.8150  0.3966  0.7089
   48MOL   H33918293   0.810   0.504   8.106 -1.4635 -0.6933 -1.7974
   48MOL   H34018294   0.856   0.719   7.956 -2.0117  0.7696  0.1076
   48MOL   H34118295   1.052   0.831   7.896  0.8587  1.1329  0.5346
   48MOL   H34218296   1.194   0.936   8.078  0.8768 -1.4674 -1.8453
   48MOL   H34318297   1.131   0.917   0.146  1.0539  1.1104 -1.1522
   48MOL   C34418298   0.903   0.805   0.252 -0.8132 -0.0981 -0.2893
   48MOL   C34518299   0.895   0.674   0.335  0.1814  0.4337  0.8526
   48MOL   O34618300   1.015   0.756   0.325 -0.2086 -1.1623  0.0213
   48MOL   C34718301   0.909   0.540   0.276 -0.0436  0.1488  0.6473
   48MOL   O34818302   0.964   0.449   0.374  0.3010 -0.3187 -0.3844
   48MOL   C34918303   0.975   0.317   0.344  0.7853  0.6159  1.0520
   48MOL   C35018304   0.916   0.257   0.229  0.0458  0.4328  0.5648
   48MOL   C35118305   0.931   0.120   0.207 -0.5652  0.1577 -0.1009
   48MOL   C35218306   1.017   0.041   0.285 -0.2834  0.6578 -0.8980
   48MOL   C35318307   1.078   0.102   0.398  0.9418  0.4307 -0.9890
   48MOL   C35418308   1.054   0.237   0.433  0.2625 -0.0006  0.1198
   48MOL   H35518309   0.838   0.888   0.277 -1.8905 -1.6203  2.1689
   48MOL   H35618310   0.847   0.670   0.433  1.3178  0.1011  1.4160
   48MOL   H35718311   0.974   0.540   0.188  0.0523 -1.3350  0.7115
   48MOL   H35818312   0.811   0.517   0.234  0.7537  0.1266 -1.2491
   48MOL   H35918313   0.868   0.314   0.151  2.6502  0.8620 -0.7608
   48MOL   H36018314   0.890   0.075   0.117  1.4018 -3.2839  0.6351
   48MOL   H36118315   1.012   8.106   0.259 -0.2102  1.0350 -2.4795
   48MOL   H36218316   1.151   0.045   0.452  1.4326  1.0174 -1.0294
   48MOL   C36318317   1.130   0.298   0.541  1.1110 -0.3655  0.1107
   48MOL   C36418318   1.062   0.364   0.653  0.3623  0.0555  0.2455
   48MOL   O36518319   1.118   0.229   0.663  0.5199  0.5864  0.1663
   48MOL   C36618320   0.913   0.366   0.670  0.1195 -0.6705  0.2022
   48MOL   O36718321   0.873   0.444   0.786  0.0337 -0.4452 -0.1953
   48MOL   C36818322   0.757   0.404   0.856 -0.1056 -0.3083  0.0272
   48MOL   C36918323   0.657   0.319   0.805 -0.7730 -0.1571  0.2204
   48MOL   C37018324   0.544   0.276   0.881 -0.1213  0.6300 -0.1784
   48MOL   C37118325   0.543   0.320   1.017  0.0546  0.5168 -0.4205
   48MOL   C37218326   0.643   0.408   1.071 -0.1388 -0.2338  1.2551
   48MOL   C37318327   0.744   0.451   0.989 -0.4577  0.0698  0.2659
   48MOL   H37418328   1.231   0.322   0.510  0.8475 -0.2447 -0.6729
   48MOL   H37518329   1.115   0.445   0.703  0.4604  0.4009 -0.4143
   48MOL   H37618330   0.876   0.263   0.676 -1.6233 -0.1289 -0.8313
   48MOL   H37718331   0.868   0.413   0.583  0.2544  0.8050  0.9201
   48MOL   H37818332   0.667   0.289   0.701 -1.6612 -1.5598  0.5224
   48MOL   H37918333   0.466   0.211   0.843 -0.1588  1.2923 -1.2463
   48MOL   H38018334   0.469   0.289   1.089  1.3572 -0.6400  0.4450
   48MOL   H38118335   0.631   0.433   1.175 -0.5289  0.9502  0.9364
   48MOL   H38218336   0.820   0.506   1.041  0.0958  0.6336 -1.1240
   49MOL     C118337   2.045   0.446   4.243 -0.1648 -0.7559 -1.0278
   49MOL     C218338   2.009   0.573   4.170 -0.1757  0.5197 -0.1610
   49MOL     O318339   2.006   0.562   4.309 -0.4613 -0.6492 -0.5367
   49MOL     C418340   1.872   0.607   4.124 -0.0869 -0.6623  0.6919
   49MOL     O518341   1.778   0.501   4.126 -0.5006 -0.3687  0.4613
   49MOL     C618342   1.658   0.516   4.063  0.5107 -1.3149  0.1643
   49MOL     C718343   1.605   0.647   4.030  0.3259 -0.3558 -0.2546
   49MOL     C818344   1.473   0.652   3.974  0.6183 -0.2002 -0.6303
   49MOL     C918345   1.392   0.535   3.953  0.6006  0.0022  0.4208
   49MOL    C1018346   1.450   0.411   3.981  0.1756  0.1638 -0.0109
   49MOL    C1118347   1.578   0.401   4.034  0.1491 -0.1444  0.3698
   49MOL    H1218348   2.145   0.411   4.270 -0.1854 -0.4516 -0.5443
   49MOL    H1318349   2.093   0.637   4.140 -0.0076  1.8201  2.9375
   49MOL    H1418350   1.881   0.643   4.022 -0.4215  1.2289  1.3003
   49MOL    H1518351   1.837   0.692   4.184  0.3287 -1.6141  2.3242
   49MOL    H1618352   1.647   0.742   4.057 -1.9546  1.0419 -1.4629
   49MOL    H1718353   1.443   0.746   3.930 -0.5814 -0.1466  0.2775
   49MOL    H1818354   1.292   0.543   3.913  0.3775  0.4371  1.0590
   49MOL    H1918355   1.393   0.321   3.966 -2.0613  1.8799 -2.4994
   49MOL    H2018356   1.969   0.368   4.251  0.9023 -1.6406  1.0036
   49MOL    C2118357   1.630   0.265   4.060  0.5883  0.1182 -0.5346
   49MOL    C2218358   1.633   0.199   4.186 -0.3739  0.3846 -0.3070
   49MOL    O2318359   1.531   0.171   4.097 -0.4313 -0.0724 -0.3709
   49MOL    C2418360   1.580   0.240   4.312 -0.3871  1.0641  0.1089
   49MOL    O2518361   1.472   0.341   4.311  0.6638 -0.5849  0.2464
   49MOL    C2618362   1.402   0.352   4.427 -1.0932  0.1603  0.8547
   49MOL    C2718363   1.448   0.314   4.558  0.3067  0.1671  0.3092
   49MOL    C2818364   1.364   0.335   4.669  0.7819 -0.3419 -0.2246
   49MOL    C2918365   1.244   0.404   4.648 -0.0278  0.5754 -0.4128
   49MOL    C3018366   1.205   0.448   4.523 -0.3011 -0.5644  0.7012
   49MOL    C3118367   1.286   0.422   4.415  0.2008  0.5761  0.1673
   49MOL    H3218368   1.698   0.233   3.982  0.0502 -1.6110 -0.3349
   49MOL    H3318369   1.712   0.124   4.193  1.3155  2.2181  0.5301
   49MOL    H3418370   1.663   0.286   4.365  1.6073 -2.1640 -0.0927
   49MOL    H3518371   1.556   0.149   4.367 -0.9565  0.2445 -1.4575
   49MOL    H3618372   1.542   0.262   4.574 -0.1888 -0.4585  1.2511
   49MOL    H3718373   1.386   0.307   4.771 -1.5776  1.9013  0.9387
   49MOL    H3818374   1.178   0.414   4.733 -1.1671  2.1674 -1.4537
   49MOL    H3918375   1.111   0.499   4.512 -0.7847 -1.1992  1.7567
   49MOL    C4018376   1.229   0.468   4.280 -0.0357  0.1935  0.8857
   49MOL    C4118377   1.172   0.369   4.188  0.1558 -0.1056  0.3673
   49MOL    O4218378   1.090   0.450   4.267  0.8738  0.0244  0.0267
   49MOL    C4318379   1.157   0.223   4.219  0.4799 -0.2474 -0.3574
   49MOL    O4418380   1.050   0.170   4.142  0.5498 -0.2370  0.1225
   49MOL    C4518381   1.020   0.039   4.165 -0.0756  0.0376  0.3575
   49MOL    C4618382   1.107   8.123   4.234 -0.0259 -0.3047 -0.4098
   49MOL    C4718383   1.062   7.993   4.273 -0.8160  0.4870  0.6276
   49MOL    C4818384   0.940   7.945   4.229 -0.1560  0.3869  0.6800
   49MOL    C4918385   0.851   8.030   4.163 -0.2425  0.1833 -0.3128
   49MOL    C5018386   0.884   8.162   4.127  0.0272  0.1437  0.4665
   49MOL    H5118387   1.274   0.556   4.234 -0.4915 -0.9024 -1.7500
   49MOL    H5218388   1.157   0.392   4.083 -1.8212  1.6272  0.9951
   49MOL    H5318389   1.140   0.204   4.324  0.8299 -0.1595 -0.2831
   49MOL    H5418390   1.251   0.187   4.176  0.8528  0.3539 -0.0443
   49MOL    H5518391   1.208   8.154   4.257 -0.9508  2.1937  0.5412
   49MOL    H5618392   1.123   7.923   4.327 -1.4611  1.4436  2.6385
   49MOL    H5718393   0.907   7.843   4.235  0.6460 -0.0136 -1.4301
   49MOL    H5818394   0.752   7.999   4.134  0.4396 -1.1939 -1.2460
   49MOL    C5918395   0.797   0.075   4.039  0.1288  0.1394  0.3367
   49MOL    C6018396   0.806   0.072   3.890 -0.0195 -0.2396  0.1043
   49MOL    O6118397   0.698   0.010   3.961  0.6656  0.4697  0.3152
   49MOL    C6218398   0.893   8.150   3.815 -0.6703 -0.4484  0.0496
   49MOL    O6318399   1.030   0.004   3.837  0.1403  0.0267 -0.1418
   49MOL    C6418400   1.084   0.092   3.748  0.2053  0.8596  0.0716
   49MOL    C6518401   1.016   0.160   3.647 -0.0208  0.5246  0.3456
   49MOL    C6618402   1.089   0.242   3.559 -0.1708  0.4332 -0.3342
   49MOL    C6718403   1.230   0.238   3.555  0.3621 -0.4757 -0.6036
   49MOL    C6818404   1.303   0.173   3.660  0.2955 -0.2653  0.2808
   49MOL    C6918405   1.228   0.101   3.757  0.1602 -0.0452 -0.1260
   49MOL    H7018406   0.765   0.167   4.087  0.7663  0.4124  0.2480
   49MOL    H7118407   0.754   0.150   3.834 -2.0127 -0.4534  1.5820
   49MOL    H7218408   0.862   8.140   3.711 -4.0932  0.3298  0.9372
   49MOL    H7318409   0.866   8.055   3.862  0.1974 -0.1612  1.1331
   49MOL    H7418410   0.910   0.158   3.626 -0.1682  4.0823  0.4916
   49MOL    H7518411   1.034   0.290   3.480 -1.2288  0.1430  0.2236
   49MOL    H7618412   1.279   0.296   3.477  1.1967 -0.0552  0.2206
   49MOL    H7718413   1.410   0.170   3.671  0.2987  1.9376  1.1001
   49MOL    C7818414   1.289   0.039   3.878  0.1979 -0.6703  0.9766
   49MOL    C7918415   1.339   8.068   3.897 -0.1774  0.2904  0.1557
   49MOL    O8018416   1.425   0.008   3.858 -0.6402 -0.2004 -1.0380
   49MOL    C8118417   1.342   7.950   3.798 -0.0771  0.3798  0.6223
   49MOL    O8218418   1.340   7.824   3.859 -0.1343  0.1280 -0.3245
   49MOL    C8318419   1.220   7.771   3.894  0.4489 -0.6160 -0.6588
   49MOL    C8418420   1.099   7.848   3.905 -0.0525  0.1109  0.2829
   49MOL    C8518421   0.978   7.782   3.920 -0.2503 -0.5738  0.0560
   49MOL    C8618422   0.973   7.646   3.949 -0.0668 -0.4294  0.6443
   49MOL    C8718423   1.091   7.568   3.951  0.7140 -0.5047 -0.5217
   49MOL    C8818424   1.214   7.636   3.919  0.4052 -0.5880  0.2530
   49MOL    H8918425   1.264   0.101   3.964  1.0522 -1.4013  1.7703
   49MOL    H9018426   1.345   8.039   4.001  2.3401 -1.3655 -0.3999
   49MOL    H9118427   1.431   7.956   3.736 -1.0530  2.3439 -0.6354
   49MOL    H9218428   1.268   7.955   3.718 -0.5456 -1.2163  0.9399
   49MOL    H9318429   1.098   7.954   3.882  0.5025  0.1477  0.4174
   49MOL    H9418430   0.888   7.840   3.926  0.8615  0.9956  1.8640
   49MOL    H9518431   0.877   7.600   3.964 -0.6084  0.4864  0.0022
   49MOL    H9618432   1.083   7.463   3.976 -0.4738 -0.4950 -0.8166
   49MOL    C9718433   1.351   7.570   3.937  0.2992  0.2937  0.3440
   49MOL    C9818434   1.450   7.611   4.041 -0.4615 -0.0630 -0.0457
   49MOL    O9918435   1.374   7.494   4.059  0.1173 -0.1033 -1.1475
   49MOL   C10018436   1.431   7.722   4.149 -0.3483  0.1053  0.1109
   49MOL   O10118437   1.489   7.697   4.283  0.0143 -0.3157  0.1269
   49MOL   C10218438   1.419   7.609   4.363  0.1999  0.1720 -0.1651
   49MOL   C10318439   1.280   7.584   4.361  0.1478 -0.2414  0.3634
   49MOL   C10418440   1.206   7.504   4.447 -0.5266 -0.6548 -0.2762
   49MOL   C10518441   1.279   7.426   4.539 -0.2889  0.0687  0.0719
   49MOL   C10618442   1.421   7.439   4.546 -0.1686 -0.5706  0.6029
   49MOL   C10718443   1.488   7.530   4.460 -0.1295  0.3056 -0.0887
   49MOL   H10818444   1.384   7.517   3.848  1.1881  0.1942  0.7232
   49MOL   H10918445   1.553   7.584   4.023 -0.4910 -0.7166  0.7264
   49MOL   H11018446   1.330   7.761   4.157  0.6737  2.9333 -0.0454
   49MOL   H11118447   1.481   7.804   4.096  0.4977 -0.6665 -0.2901
   49MOL   H11218448   1.217   7.630   4.287  0.2008  0.4183  0.7228
   49MOL   H11318449   1.099   7.513   4.456 -0.4278 -0.2816  0.5847
   49MOL   H11418450   1.233   7.354   4.605  1.3958 -1.2707 -0.1662
   49MOL   H11518451   1.486   7.380   4.610  0.6653  0.9658  1.2013
   49MOL   C11618452   1.633   7.549   4.460 -0.5295 -0.2608  0.4995
   49MOL   C11718453   1.709   7.643   4.553 -0.3350 -0.8125  0.9761
   49MOL   O11818454   1.685   7.512   4.588 -0.5922  0.4143 -0.2311
   49MOL   C11918455   1.661   7.742   4.659 -0.0823  0.2167 -0.2155
   49MOL   O12018456   1.743   7.860   4.632 -0.2691  0.2659 -0.3085
   49MOL   C12118457   1.714   7.977   4.701 -0.0782 -0.0197 -0.0431
   49MOL   C12218458   1.632   7.987   4.814  0.1240  0.7843  0.0664
   49MOL   C12318459   1.603   8.120   4.860 -0.4619 -0.1208 -0.9513
   49MOL   C12418460   1.662   0.068   4.807 -0.3079 -0.8103  0.2412
   49MOL   C12518461   1.755   0.052   4.701  0.0034 -0.5887 -0.9556
   49MOL   C12618462   1.778   8.092   4.646 -0.2039 -0.0900 -0.2477
   49MOL   H12718463   1.682   7.496   4.378  0.8096  3.5830 -1.3361
   49MOL   H12818464   1.811   7.665   4.523 -1.1467  2.2227  0.2046
   49MOL   H12918465   1.678   7.698   4.757 -5.0778 -0.8106  0.3345
   49MOL   H13018466   1.554   7.756   4.643 -0.0578 -0.1712 -0.7620
   49MOL   H13118467   1.585   7.899   4.857  1.8605 -1.3340 -2.2119
   49MOL   H13218468   1.543   8.132   4.950  0.5380  0.0436 -0.2914
   49MOL   H13318469   1.629   0.162   4.848 -1.6699 -0.6750 -1.1445
   49MOL   H13418470   1.805   0.136   4.656  0.4023  0.7285  1.8638
   49MOL   C13518471   1.887   8.087   4.543 -0.1533 -0.0503 -0.3113
   49MOL   C13618472   1.857   8.051   4.399  0.5680  0.2055 -0.3097
   49MOL   O13718473   1.884   0.017   4.445  0.5319 -0.4491  0.6826
   49MOL   C13818474   1.718   8.026   4.334  0.5116 -0.5642  0.1905
   49MOL   O13918475   1.711   8.019   4.191 -0.2508 -0.0513 -0.5291
   49MOL   C14018476   1.769   7.906   4.133 -0.2519  0.0157  0.2643
   49MOL   C14118477   1.825   7.803   4.206  0.1491  0.3412 -0.4681
   49MOL   C14218478   1.878   7.694   4.139  0.6075 -0.0040  0.3909
   49MOL   C14318479   1.866   7.685   4.000 -0.3097 -0.4331 -0.0936
   49MOL   C14418480   1.832   7.799   3.933  0.5095 -0.1045  0.0877
   49MOL   C14518481   1.765   7.910   3.993  0.3040 -0.0877 -0.2436
   49MOL   H14618482   1.985   8.058   4.582  0.5828  1.5478 -0.9024
   49MOL   H14718483   1.936   8.016   4.333  1.4129 -0.1765  0.8873
   49MOL   H14818484   1.656   8.106   4.373  1.2914  0.1602 -0.0223
   49MOL   H14918485   1.682   7.931   4.373  1.1184 -0.9253 -0.1136
   49MOL   H15018486   1.843   7.807   4.313 -2.0864 -0.6245 -0.0262
   49MOL   H15118487   1.913   7.606   4.193  1.6373  1.8456  2.8410
   49MOL   H15218488   1.903   7.602   3.942  3.9544  0.2119  1.5403
   49MOL   H15318489   1.840   7.794   3.825  0.8514  1.6717  0.0000
   49MOL   C15418490   1.713   8.028   3.920 -1.2665  0.7435 -0.6465
   49MOL   C15518491   1.817   8.121   3.850  0.4876  0.0971 -0.7595
   49MOL   O15618492   1.745   8.014   3.777  0.0654 -1.1911  0.1664
   49MOL   C15718493   1.968   8.113   3.877  0.0572  0.8177  0.0644
   49MOL   O15818494   2.036   8.158   3.764  0.2171  0.2778  0.5371
   49MOL   C15918495   2.165   0.044   3.780  0.3981  0.1842  0.0487
   49MOL   C16018496   2.258   8.166   3.877  0.6214  0.0878 -0.4160
   49MOL   C16118497   2.382   0.067   3.897 -0.0691 -0.3043  0.7101
   49MOL   C16218498   2.419   0.179   3.814  0.2042 -0.5925 -0.1104
   49MOL   C16318499   2.324   0.221   3.717 -0.5005 -0.2171  0.3668
   49MOL   C16418500   2.208   0.149   3.692 -0.1711  0.1674 -0.6601
   49MOL   H16518501   1.608   8.055   3.931 -1.3708 -0.1800  0.7698
   49MOL   H16618502   1.780   0.052   3.835  1.5710  0.5220 -0.6550
   49MOL   H16718503   1.994   8.008   3.888  0.5634  0.9304 -0.0674
   49MOL   H16818504   1.991   8.167   3.969 -0.0603  1.6895 -0.4103
   49MOL   H16918505   2.230   8.082   3.939  1.0503  0.1944 -0.0752
   49MOL   H17018506   2.452   0.035   3.973 -1.9043 -1.2037  2.0247
   49MOL   H17118507   2.510   0.233   3.834  0.2306 -0.6329 -0.1218
   49MOL   H17218508   2.351   0.316   3.672  0.6180 -1.1675 -0.9991
   49MOL   C17318509   2.120   0.183   3.579  0.0340 -0.3917  0.6298
   49MOL   C17418510   1.999   0.273   3.578 -0.6121  0.0513  1.0591
   49MOL   O17518511   2.131   0.319   3.536 -0.0839  0.0753 -0.2586
   49MOL   C17618512   1.935   0.320   3.714  0.6131  0.0247 -0.1460
   49MOL   O17718513   1.911   0.460   3.694  0.2594  0.3389 -0.2567
   49MOL   C17818514   1.805   0.509   3.622 -0.3065  0.9463  0.4882
   49MOL   C17918515   1.695   0.427   3.583 -0.2799 -0.4458 -0.3457
   49MOL   C18018516   1.587   0.488   3.513 -0.4173 -0.1829  0.3312
   49MOL   C18118517   1.588   0.622   3.478  0.2524  0.0652  0.1544
   49MOL   C18218518   1.697   0.697   3.510 -0.3261 -0.9802 -0.1364
   49MOL   C18318519   1.805   0.639   3.584 -0.0471 -0.1836  1.2096
   49MOL   H18418520   2.124   0.107   3.501  0.1382 -1.6344  1.8469
   49MOL   H18518521   1.939   0.274   3.487 -0.1251 -1.9642  0.7111
   49MOL   H18618522   2.012   0.306   3.790  1.3048 -1.7886 -1.1525
   49MOL   H18718523   1.853   0.259   3.749 -0.9456  1.6640 -0.8689
   49MOL   H18818524   1.684   0.329   3.629  0.6210  0.0348  0.9333
   49MOL   H18918525   1.503   0.422   3.494 -1.8764  2.1056 -1.5015
   49MOL   H19018526   1.503   0.667   3.429 -0.5553 -0.4301  1.0665
   49MOL   H19118527   1.703   0.801   3.484 -3.7589 -0.6155  0.3423
   49MOL   C19218528   1.921   0.722   3.624  0.5628  0.2312 -0.5624
   49MOL   C19318529   2.052   0.746   3.550 -0.2060 -0.1692 -0.3399
   49MOL   O19418530   1.936   0.826   3.532 -0.0782  0.1513  0.2462
   49MOL   C19518531   2.098   0.668   3.428  0.6155  0.7864 -0.8544
   49MOL   O19618532   2.237   0.649   3.413 -0.4023  0.3229  0.1280
   49MOL   C19718533   2.311   0.748   3.352  0.1347  0.1208 -0.0656
   49MOL   C19818534   2.254   0.869   3.308  0.2039 -0.1166 -0.1466
   49MOL   C19918535   2.336   0.958   3.234  0.0179  0.7524 -0.6347
   49MOL   C20018536   2.469   0.934   3.217 -0.2097  0.4885 -0.4206
   49MOL   C20118537   2.523   0.816   3.267  0.2885 -0.4001  0.1920
   49MOL   C20218538   2.449   0.721   3.340  0.1289 -0.2491  0.4765
   49MOL   H20318539   1.920   0.753   3.728 -0.4532 -2.0294  0.1340
   49MOL   H20418540   2.130   0.806   3.596  1.0112 -1.7433 -0.3221
   49MOL   H20518541   2.043   0.710   3.343 -1.2762 -1.4644 -0.8112
   49MOL   H20618542   2.039   0.579   3.449  1.6326 -0.3222 -2.5339
   49MOL   H20718543   2.150   0.896   3.317 -0.6813 -2.4936 -2.8661
   49MOL   H20818544   2.286   1.050   3.208 -4.1246 -0.5980  2.0829
   49MOL   H20918545   2.546   0.996   3.175  1.8004 -0.8384  1.2061
   49MOL   H21018546   2.628   0.797   3.251  0.2065  0.0476 -0.9469
   49MOL   C21118547   2.512   0.592   3.384  0.4182  0.2004  0.4190
   49MOL   C21218548   2.528   0.474   3.285 -0.2039  0.5513  0.1830
   49MOL   O21318549   2.638   0.570   3.326  0.5458 -0.5831  0.5865
   49MOL   C21418550   2.472   0.490   3.147 -0.2917  0.0799  0.6462
   49MOL   O21518551   2.505   0.393   3.053  0.0742  0.1424 -0.2046
   49MOL   C21618552   2.426   0.398   2.942 -0.4203 -0.2218 -0.4754
   49MOL   C21718553   2.366   0.523   2.893 -0.0027  0.2235 -0.2278
   49MOL   C21818554   2.293   0.523   2.772 -0.9954 -1.0322 -0.3039
   49MOL   C21918555   2.282   0.405   2.704 -0.0135  0.7296 -0.0351
   49MOL   C22018556   2.339   0.284   2.749 -0.0034  0.5622  0.3298
   49MOL   C22118557   2.404   0.279   2.869 -0.1745 -0.9719 -0.0731
   49MOL   H22218558   2.510   0.574   3.491 -0.7889 -2.6025 -0.0345
   49MOL   H22318559   2.524   0.373   3.326 -1.8934  0.1185 -0.9985
   49MOL   H22418560   2.495   0.592   3.117  2.3918 -1.2356 -1.9363
   49MOL   H22518561   2.363   0.498   3.151 -0.3288  0.2842 -0.6916
   49MOL   H22618562   2.362   0.621   2.939  2.6800  0.3069 -0.0480
   49MOL   H22718563   2.254   0.612   2.724 -0.2462 -0.1657  0.6544
   49MOL   H22818564   2.232   0.404   2.608 -0.8592 -0.8942  0.3906
   49MOL   H22918565   2.351   0.201   2.681  0.5883  0.6573  0.3166
   49MOL   C23018566   2.477   0.153   2.906 -0.0503  0.6667 -0.6653
   49MOL   C23118567   2.417   0.046   2.994 -0.1409  0.4321  0.6219
   49MOL   O23218568   2.419   0.026   2.849 -0.3605  0.1860 -0.5929
   49MOL   C23318569   2.277   0.059   3.051  0.1778  0.2796 -0.2813
   49MOL   O23418570   2.228   8.121   3.125  0.0636 -0.4092 -0.3087
   49MOL   C23518571   2.263   8.106   3.258 -0.8278  0.1675  0.3672
   49MOL   C23618572   2.371   0.002   3.327  0.1964  0.6821  0.5512
   49MOL   C23718573   2.401   8.147   3.457  0.2660 -0.1791  0.5844
   49MOL   C23818574   2.322   8.055   3.527 -0.1921 -0.1923  0.0396
   49MOL   C23918575   2.228   7.976   3.455  0.0306 -0.3741  0.0727
   49MOL   C24018576   2.197   8.001   3.320  0.4575 -0.2208  0.7395
   49MOL   H24118577   2.585   0.155   2.917  0.1009 -3.5303 -0.2878
   49MOL   H24218578   2.485   8.154   3.051  0.6090 -0.4408 -1.1607
   49MOL   H24318579   2.205   0.072   2.970 -1.1947  2.1580  1.1962
   49MOL   H24418580   2.269   0.143   3.120  3.2265 -1.3220  2.1736
   49MOL   H24518581   2.437   0.064   3.268  0.1145  0.8649  0.6538
   49MOL   H24618582   2.487   0.027   3.500  0.1572  0.2386  0.3181
   49MOL   H24718583   2.339   8.028   3.630  0.4266 -0.4634 -0.1325
   49MOL   H24818584   2.168   7.898   3.500  1.0519 -0.7934  0.7137
   49MOL   C24918585   2.089   7.914   3.253 -0.0192 -0.2371 -0.5064
   49MOL   C25018586   2.123   7.788   3.187  0.0071 -0.0881 -0.1179
   49MOL   O25118587   2.069   7.792   3.320  0.1256  0.0981  0.0924
   49MOL   C25218588   2.265   7.737   3.166  0.3313 -0.1351  0.3059
   49MOL   O25318589   2.260   7.600   3.207 -0.5946 -0.8569  0.2338
   49MOL   C25418590   2.363   7.517   3.187  0.2152 -0.3758 -0.0177
   49MOL   C25518591   2.485   7.566   3.129  0.4450 -0.0121 -0.4283
   49MOL   C25618592   2.590   7.478   3.101 -0.1192 -0.0079  0.1475
   49MOL   C25718593   2.578   7.342   3.130  0.6683  0.4575 -0.3977
   49MOL   C25818594   2.461   7.294   3.197 -0.5231 -0.0867 -0.0567
   49MOL   C25918595   2.352   7.377   3.218  0.1526 -0.0076 -0.9149
   49MOL   H26018596   2.004   7.957   3.201 -1.6969 -0.1036  2.2150
   49MOL   H26118597   2.056   7.730   3.124 -0.0646 -0.0121 -0.1110
   49MOL   H26218598   2.342   7.780   3.230 -0.2508 -0.8220  1.4916
   49MOL   H26318599   2.285   7.742   3.059 -1.9488 -1.7082 -0.2370
   49MOL   H26418600   2.495   7.672   3.113 -2.4540  0.3502 -0.0815
   49MOL   H26518601   2.684   7.508   3.059 -1.2069  1.5829 -1.1852
   49MOL   H26618602   2.655   7.269   3.111 -0.8711 -1.5842  1.0218
   49MOL   H26718603   2.450   7.190   3.221 -1.3588 -0.2902 -1.3102
   49MOL   C26818604   2.224   7.332   3.284  0.4544  0.2808  0.0785
   49MOL   C26918605   2.103   7.260   3.220 -0.0886 -0.7361 -0.5052
   49MOL   O27018606   2.212   7.193   3.283  0.1384 -0.4804 -0.5242
   49MOL   C27118607   2.087   7.271   3.076 -0.2754  0.3423  0.4484
   49MOL   O27218608   1.976   7.195   3.036 -0.1609 -0.1294  0.2906
   49MOL   C27318609   1.951   7.197   2.903  0.0497  0.8406  0.3685
   49MOL   C27418610   1.992   7.291   2.808  0.2395 -0.0108  0.1202
   49MOL   C27518611   1.945   7.292   2.678 -0.1944  0.0143  0.7438
   49MOL   C27618612   1.869   7.181   2.631  0.2752  0.6056 -0.3753
   49MOL   C27718613   1.822   7.086   2.720  0.0563  0.7071 -1.1590
   49MOL   C27818614   1.866   7.089   2.857 -0.8812 -0.5458  0.7239
   49MOL   H27918615   2.205   7.380   3.380 -1.0399  2.7707 -1.4147
   49MOL   H28018616   2.012   7.274   3.279  1.2751  2.8836  0.8762
   49MOL   H28118617   2.180   7.240   3.028  0.2416  0.6387  1.2527
   49MOL   H28218618   2.079   7.378   3.057  1.7902  0.2903 -0.9527
   49MOL   H28318619   2.059   7.368   2.841 -0.9384  1.2971 -0.5211
   49MOL   H28418620   1.981   7.358   2.600 -0.9947 -0.0008  0.3615
   49MOL   H28518621   1.836   7.171   2.528 -1.7383  1.0642  0.1957
   49MOL   H28618622   1.758   7.009   2.681  1.2567 -1.2387  0.6194
   49MOL   C28718623   1.827   6.980   2.944  0.2306  0.4137  0.5471
   49MOL   C28818624   1.712   6.997   3.048 -0.3168 -0.2583 -0.2756
   49MOL   O28918625   1.689   6.936   2.922 -0.0897 -0.2352  0.1102
   49MOL   C29018626   1.643   7.132   3.076  0.3715 -0.1859  0.2094
   49MOL   O29118627   1.504   7.114   3.102  0.1767  0.3017 -0.0677
   49MOL   C29218628   1.418   7.095   2.989 -0.2709  0.5705 -0.5807
   49MOL   C29318629   1.458   7.116   2.857  0.1091  0.6164  0.4306
   49MOL   C29418630   1.375   7.082   2.752 -0.4046  0.5451  0.1200
   49MOL   C29518631   1.247   7.028   2.780 -0.3039 -0.1052 -0.1241
   49MOL   C29618632   1.200   7.004   2.911 -0.6426  0.1504 -0.0980
   49MOL   C29718633   1.292   7.030   3.014 -0.3318 -0.4192  0.4864
   49MOL   H29818634   1.906   6.908   2.964  0.6586  1.0933  1.3669
   49MOL   H29918635   1.706   6.921   3.126  1.3070 -1.7921 -1.5914
   49MOL   H30018636   1.677   7.204   3.002 -0.1692  0.6227  0.7419
   49MOL   H30118637   1.692   7.175   3.163  0.3064 -1.3492  0.8252
   49MOL   H30218638   1.559   7.143   2.831  0.8761 -2.2195  0.2903
   49MOL   H30318639   1.404   7.091   2.648 -0.7676  0.1217 -0.0219
   49MOL   H30418640   1.181   6.998   2.699 -0.7176 -1.9117  0.8609
   49MOL   H30518641   1.106   6.958   2.938 -0.3141  0.1381  1.0489
   49MOL   C30618642   1.258   6.978   3.149  0.0877 -0.2558  0.1904
   49MOL   C30718643   1.219   7.076   3.260 -0.1548  0.4710 -0.1826
   49MOL   O30818644   1.120   7.008   3.180  0.2295 -0.3097 -0.7252
   49MOL   C30918645   1.210   7.229   3.254  0.0961  0.8963 -0.4490
   49MOL   O31018646   1.155   7.257   3.379 -0.6434  0.5222  0.0835
   49MOL   C31118647   1.142   7.385   3.428 -0.7157 -0.0614  0.0495
   49MOL   C31218648   1.199   7.500   3.359  0.6292  0.4357 -0.5274
   49MOL   C31318649   1.173   7.631   3.404  0.0787 -1.0173  0.0581
   49MOL   C31418650   1.083   7.650   3.515 -0.7095 -0.6602 -0.0278
   49MOL   C31518651   1.029   7.536   3.578 -0.5034 -0.0603  0.4179
   49MOL   C31618652   1.057   7.405   3.539 -0.2024  0.2399  0.1976
   49MOL   H31718653   1.310   6.888   3.181 -0.8105 -0.7544  0.2466
   49MOL   H31818654   1.237   7.031   3.358  0.5120 -0.0374 -0.5339
   49MOL   H31918655   1.156   7.266   3.167  1.1747 -3.0723 -2.9448
   49MOL   H32018656   1.309   7.275   3.248  0.4840  0.2842  1.0811
   49MOL   H32118657   1.258   7.481   3.271 -0.8399 -2.4204 -0.9749
   49MOL   H32218658   1.218   7.706   3.340  2.2792 -1.0799  1.4786
   49MOL   H32318659   1.059   7.751   3.543  1.4496  0.0486 -0.5986
   49MOL   H32418660   0.956   7.543   3.657 -0.7588 -0.7984  0.2501
   49MOL   C32518661   1.003   7.286   3.619 -0.5403  0.2173 -0.6698
   49MOL   C32618662   1.094   7.233   3.728  0.1638  0.3845 -0.0540
   49MOL   O32718663   0.985   7.324   3.757 -0.0136  0.4206  0.1976
   49MOL   C32818664   1.235   7.294   3.777 -0.0693 -0.0506  0.5360
   49MOL   O32918665   1.342   7.256   3.700 -0.0590  0.4364 -0.4831
   49MOL   C33018666   1.368   7.119   3.684  0.3732  0.0661  0.2738
   49MOL   C33118667   1.320   7.029   3.780  0.5105 -0.3049  0.4213
   49MOL   C33218668   1.351   6.891   3.768 -0.2319 -0.4045  0.7978
   49MOL   C33318669   1.431   6.851   3.659  0.1953 -0.2375  0.3217
   49MOL   C33418670   1.468   6.942   3.562 -0.1807 -0.1075  0.5568
   49MOL   C33518671   1.444   7.079   3.574  0.1896  0.1210 -0.0289
   49MOL   H33618672   0.918   7.229   3.583 -1.3252  2.2952 -2.1681
   49MOL   H33718673   1.077   7.131   3.761  0.0585 -0.1235 -1.6175
   49MOL   H33818674   1.251   7.284   3.884  0.8076 -0.1321  0.3972
   49MOL   H33918675   1.222   7.401   3.760 -0.8391  0.1804  2.4800
   49MOL   H34018676   1.262   7.051   3.869  0.7000  1.0010  0.2389
   49MOL   H34118677   1.310   6.818   3.837 -0.4473 -1.6209 -0.5787
   49MOL   H34218678   1.475   6.753   3.649  0.7330  0.2527 -2.8168
   49MOL   H34318679   1.534   6.913   3.481  0.9879 -0.2469  1.5543
   49MOL   C34418680   1.501   7.183   3.479 -0.7013 -0.2818  0.2268
   49MOL   C34518681   1.627   7.261   3.483 -0.3141  0.3358 -0.4181
   49MOL   O34618682   1.612   7.140   3.404  0.4460  0.2817 -0.2756
   49MOL   C34718683   1.729   7.259   3.593  0.3629  0.4810  0.1410
   49MOL   O34818684   1.821   7.367   3.578 -0.6801 -0.0278  0.0091
   49MOL   C34918685   1.781   7.495   3.597 -0.1588  0.3341 -0.4951
   49MOL   C35018686   1.648   7.515   3.646  0.0440 -0.4771  0.1334
   49MOL   C35118687   1.598   7.644   3.656  0.1355  0.0800  0.0155
   49MOL   C35218688   1.675   7.753   3.621  0.3585  0.6901  0.3060
   49MOL   C35318689   1.810   7.732   3.588  0.1257  0.3635 -0.7090
   49MOL   C35418690   1.866   7.603   3.569 -0.6251 -0.2884 -0.1534
   49MOL   H35518691   1.423   7.237   3.426 -1.9868 -0.3933  1.9663
   49MOL   H35618692   1.631   7.359   3.436 -2.6319 -1.0677 -3.6884
   49MOL   H35718693   1.786   7.166   3.586 -0.1440  0.1007  0.9828
   49MOL   H35818694   1.682   7.253   3.691  1.4960  0.5413  0.7003
   49MOL   H35918695   1.585   7.435   3.682  0.3001  0.5039  2.8980
   49MOL   H36018696   1.496   7.669   3.681  0.1617  0.8297 -0.6289
   49MOL   H36118697   1.636   7.853   3.613 -0.7258  0.1299 -1.7785
   49MOL   H36218698   1.867   7.819   3.559 -0.5265  1.0258 -0.0200
   49MOL   C36318699   2.011   7.588   3.520  0.5558  0.1886 -0.1616
   49MOL   C36418700   2.130   7.650   3.589  0.4326  0.1905 -0.2953
   49MOL   O36518701   2.103   7.511   3.596 -0.2048 -0.0376  0.1843
   49MOL   C36618702   2.133   7.711   3.726 -0.2536 -0.0018 -0.0910
   49MOL   O36718703   2.272   7.706   3.765 -0.2964  0.1139  0.2153
   49MOL   C36818704   2.313   7.777   3.875  0.0970  0.1505  0.0421
   49MOL   C36918705   2.440   7.835   3.876  0.7390 -0.0373 -0.0275
   49MOL   C37018706   2.484   7.902   3.990  0.0120  0.1940 -0.0259
   49MOL   C37118707   2.405   7.907   4.108 -0.2917  0.7031  0.2867
   49MOL   C37218708   2.274   7.850   4.110 -0.6919 -0.6554 -0.6589
   49MOL   C37318709   2.233   7.787   3.992 -0.1062  0.2455  0.1868
   49MOL   H37418710   2.016   7.573   3.412 -0.1304  1.4523 -0.3787
   49MOL   H37518711   2.217   7.672   3.528  0.0099 -0.0252 -0.9768
   49MOL   H37618712   2.069   7.651   3.791 -0.5146  1.6623  1.2226
   49MOL   H37718713   2.087   7.810   3.722  1.4967  0.7973 -1.0729
   49MOL   H37818714   2.492   7.830   3.782  0.0405  0.5816 -0.4427
   49MOL   H37918715   2.589   7.926   3.979  0.3899 -1.1731  0.4581
   49MOL   H38018716   2.437   7.965   4.193 -3.0513  1.3618  0.9097
   49MOL   H38118717   2.203   7.853   4.191  2.0508  2.2634  1.7561
   49MOL   H38218718   2.138   7.736   3.996  0.1599 -0.4056 -1.2946
   50MOL     C118719   2.567   7.444   3.493  0.4573 -0.2410  0.2194
   50MOL     C218720   2.545   7.498   3.624 -0.2216  0.0004 -0.7521
   50MOL     O318721   2.672   7.518   3.556  0.5418 -0.4611  0.3750
   50MOL     C418722   2.546   7.412   3.745  0.9806  0.3554 -1.3220
   50MOL     O518723   2.553   7.273   3.717  0.6895  0.3292 -0.0027
   50MOL     C618724   2.434   7.216   3.673 -0.5740 -0.3256 -0.3588
   50MOL     C718725   2.307   7.264   3.693  0.4112  0.0531 -0.3349
   50MOL     C818726   2.195   7.195   3.642 -0.0534  0.2394  0.0651
   50MOL     C918727   2.210   7.079   3.565 -0.1017  0.4172 -0.2593
   50MOL    C1018728   2.338   7.029   3.544 -0.1153  0.2563 -0.4872
   50MOL    C1118729   2.451   7.102   3.590  0.4055  0.2240  0.3378
   50MOL    H1218730   2.512   7.499   3.418 -0.9146 -0.4911  1.0136
   50MOL    H1318731   2.484   7.587   3.638 -0.9177 -0.6550  0.4744
   50MOL    H1418732   2.467   7.432   3.817  0.8503 -0.7917 -1.1233
   50MOL    H1518733   2.643   7.422   3.793  1.0649 -3.4580 -0.4921
   50MOL    H1618734   2.283   7.360   3.737 -0.7950 -0.3911  0.0158
   50MOL    H1718735   2.099   7.241   3.663  0.6179  1.7430 -0.0784
   50MOL    H1818736   2.124   7.021   3.533 -1.5322  0.2879  3.5665
   50MOL    H1918737   2.344   6.946   3.475 -1.5118  0.9318 -1.4478
   50MOL    H2018738   2.592   7.340   3.474 -0.6584 -0.3693 -0.5736
   50MOL    C2118739   2.579   7.042   3.553 -0.1209  0.0142 -0.3052
   50MOL    C2218740   2.666   6.964   3.650 -0.5147 -0.1785  0.1989
   50MOL    O2318741   2.574   6.896   3.570 -0.0575  0.0853 -0.5701
   50MOL    C2418742   2.648   6.961   3.800  0.0405 -0.4663  0.4650
   50MOL    O2518743   2.753   6.889   3.867 -0.1647  0.4191 -0.4079
   50MOL    C2618744   2.761   6.888   4.005 -0.5519 -0.6466 -0.4894
   50MOL    C2718745   2.658   6.933   4.090  0.0199  0.0459 -0.2190
   50MOL    C2818746   2.687   6.946   4.227 -0.4171 -0.1617  0.8972
   50MOL    C2918747   2.802   6.894   4.285 -0.4934  1.2379  0.3401
   50MOL    C3018748   2.901   6.843   4.196 -0.6537 -0.1227 -0.2603
   50MOL    C3118749   2.885   6.834   4.058 -0.2748 -0.2173 -0.2208
   50MOL    H3218750   2.610   7.083   3.457 -0.7099  2.3629  0.4769
   50MOL    H3318751   2.770   6.957   3.621 -0.4151  1.3539  0.1626
   50MOL    H3418752   2.547   6.927   3.823 -1.1397  2.3850 -0.2781
   50MOL    H3518753   2.664   7.063   3.834 -0.2087 -0.6364  1.0948
   50MOL    H3618754   2.571   6.977   4.044  0.3793  2.1351  1.0362
   50MOL    H3718755   2.609   6.975   4.296 -0.1942 -2.2847  2.0689
   50MOL    H3818756   2.829   6.897   4.389 -1.1089 -1.8734  0.6504
   50MOL    H3918757   2.993   6.807   4.241 -1.4822  1.8677  3.2451
   50MOL    C4018758   2.994   6.783   3.966 -0.1189  0.2163 -0.7182
   50MOL    C4118759   3.080   6.863   3.878 -0.0594 -0.2210  0.6200
   50MOL    O4218760   3.126   6.829   4.009  0.4970 -0.4591  0.7673
   50MOL    C4318761   3.057   7.013   3.856 -0.0321  0.0956 -0.3504
   50MOL    O4418762   3.173   7.073   3.803  0.1446 -0.2290 -0.6762
   50MOL    C4518763   3.167   7.197   3.749  0.4209 -0.0196 -0.4946
   50MOL    C4618764   3.048   7.267   3.717 -0.2289 -0.0265 -0.4927
   50MOL    C4718765   3.061   7.397   3.674  0.3138 -0.0887  0.0383
   50MOL    C4818766   3.185   7.454   3.654 -0.0919  0.0843  0.7271
   50MOL    C4918767   3.306   7.391   3.687 -0.3052  0.3379 -0.6827
   50MOL    C5018768   3.294   7.258   3.741 -0.6472  0.2109  0.1527
   50MOL    H5118769   2.988   6.674   3.962 -1.4141  0.2153  0.7229
   50MOL    H5218770   3.137   6.815   3.798 -0.8596 -0.9606  0.4883
   50MOL    H5318771   3.049   7.072   3.947 -1.5558 -0.7788  0.0985
   50MOL    H5418772   2.970   7.033   3.793 -0.8093 -2.6945 -0.2344
   50MOL    H5518773   2.948   7.225   3.720 -0.6589  1.0422  0.1433
   50MOL    H5618774   2.970   7.452   3.651  0.8967  0.8843  0.0428
   50MOL    H5718775   3.177   7.558   3.626  0.7308 -0.2742 -0.9389
   50MOL    H5818776   3.404   7.435   3.682  0.5379 -1.7226 -2.7743
   50MOL    C5918777   3.417   7.182   3.787  0.3235 -0.7180 -0.2429
   50MOL    C6018778   3.470   7.069   3.697  0.5840 -0.3450  0.3878
   50MOL    O6118779   3.537   7.201   3.707  0.1424 -0.6207  0.3007
   50MOL    C6218780   3.435   7.052   3.554  0.6940 -0.5483 -0.1328
   50MOL    O6318781   3.529   6.965   3.483 -0.2630 -0.1511  0.4368
   50MOL    C6418782   3.553   6.832   3.515 -0.0617  0.3914 -0.2634
   50MOL    C6518783   3.476   6.759   3.614  0.2871 -0.2154  0.9642
   50MOL    C6618784   3.520   6.632   3.654 -0.7602 -0.1547  0.3844
   50MOL    C6718785   3.635   6.576   3.601 -0.0246 -0.5603  0.2041
   50MOL    C6818786   3.704   6.645   3.503  0.6552  0.2312  0.8058
   50MOL    C6918787   3.671   6.770   3.459 -0.2335  0.6238 -0.5062
   50MOL    H7018788   3.431   7.182   3.895  0.0417 -0.5093 -0.2076
   50MOL    H7118789   3.536   6.990   3.732  1.4955 -0.8243 -2.2750
   50MOL    H7218790   3.426   7.146   3.500  0.6553 -0.5666 -0.1567
   50MOL    H7318791   3.340   7.001   3.544  0.7752 -0.5388 -0.9952
   50MOL    H7418792   3.385   6.798   3.656 -0.1049 -0.5146  0.3952
   50MOL    H7518793   3.462   6.571   3.722  1.8310 -2.4040  0.6691
   50MOL    H7618794   3.657   6.473   3.622 -1.5558 -0.9882 -0.2768
   50MOL    H7718795   3.789   6.594   3.459  1.7212  2.0530  0.6913
   50MOL    C7818796   3.756   6.843   3.359 -0.2737  0.0261  0.0780
   50MOL    C7918797   3.857   6.954   3.385 -0.6175 -0.4444 -0.0002
   50MOL    O8018798   3.892   6.812   3.370  0.0771  0.3019  0.1597
   50MOL    C8118799   3.889   7.024   3.521 -0.1305 -0.0562  0.7496
   50MOL    O8218800   4.027   7.061   3.532  0.3955 -0.0558  0.2571
   50MOL    C8318801   4.071   7.183   3.488  0.0810 -0.0178  0.5657
   50MOL    C8418802   4.006   7.257   3.390 -0.6137 -0.7902 -0.2941
   50MOL    C8518803   4.063   7.371   3.328 -0.1387  1.1588 -0.6726
   50MOL    C8618804   4.175   7.429   3.386  0.1365 -0.7255  0.1695
   50MOL    C8718805   4.244   7.364   3.483  0.0665 -0.2137  0.0163
   50MOL    C8818806   4.186   7.242   3.542 -0.9814 -0.2126  0.1314
   50MOL    H8918807   3.720   6.831   3.257  0.5231 -0.9603 -0.0913
   50MOL    H9018808   3.852   7.022   3.300  0.8641  3.5421  2.9458
   50MOL    H9118809   3.863   6.960   3.605  0.7824  0.9177  1.7885
   50MOL    H9218810   3.830   7.115   3.528  0.3738  0.4153 -0.8989
   50MOL    H9318811   3.912   7.229   3.346 -1.2657  1.5096 -0.4595
   50MOL    H9418812   4.012   7.438   3.260 -1.0545  1.2131  0.0633
   50MOL    H9518813   4.215   7.523   3.352 -1.6321  0.2945  0.8477
   50MOL    H9618814   4.334   7.392   3.535 -0.2240 -0.5998  0.7407
   50MOL    C9718815   4.242   7.168   3.665  0.5141 -0.6869  0.1659
   50MOL    C9818816   4.371   7.194   3.738  0.3289  0.4558  1.1322
   50MOL    O9918817   4.255   7.269   3.764 -0.4360  0.0450 -0.0502
   50MOL   C10018818   4.492   7.270   3.679  0.0451 -0.7842  0.3134
   50MOL   O10118819   4.612   7.237   3.749 -0.4686 -0.4589 -0.3966
   50MOL   C10218820   4.723   7.322   3.731 -0.0727  0.6313  0.1880
   50MOL   C10318821   4.739   7.422   3.632 -0.8238 -0.1639 -0.5317
   50MOL   C10418822   4.860   7.502   3.632  0.1910 -0.0102 -0.0546
   50MOL   C10518823   4.961   7.482   3.731 -0.0533 -0.6089  0.4765
   50MOL   C10618824   4.941   7.376   3.821 -0.1002 -0.4903  0.2257
   50MOL   C10718825   4.831   7.293   3.814  0.8586  0.1733 -0.3942
   50MOL   H10818826   4.183   7.083   3.696  1.8891 -0.8813  2.3142
   50MOL   H10918827   4.401   7.132   3.823  0.9646 -0.6404  0.1183
   50MOL   H11018828   4.487   7.378   3.693 -0.6136 -0.3352 -2.8566
   50MOL   H11118829   4.506   7.252   3.572  0.9653 -2.2205  0.6693
   50MOL   H11218830   4.669   7.434   3.551 -0.9083 -0.0602 -0.4440
   50MOL   H11318831   4.877   7.580   3.559  1.5439 -0.3601 -0.1209
   50MOL   H11418832   5.044   7.551   3.735 -1.3502  0.8844  2.1963
   50MOL   H11518833   5.018   7.351   3.893 -0.3314 -1.1639  0.2430
   50MOL   C11618834   4.813   7.171   3.900  0.0687 -0.3698 -0.2333
   50MOL   C11718835   4.865   7.042   3.846  0.1730 -0.1937  0.2731
   50MOL   O11818836   4.940   7.118   3.941  0.1952  0.5735 -0.9304
   50MOL   C11918837   4.928   7.041   3.707  0.1053 -0.9135 -0.2932
   50MOL   O12018838   4.995   6.912   3.712 -0.2535 -0.0887 -0.3141
   50MOL   C12118839   5.070   6.873   3.606 -0.6502 -0.6502 -0.3447
   50MOL   C12218840   5.091   6.949   3.484 -0.5643  0.0457 -0.2112
   50MOL   C12318841   5.176   6.894   3.381  0.2106  0.0371  0.1619
   50MOL   C12418842   5.234   6.766   3.401 -0.2093 -0.3411  0.5712
   50MOL   C12518843   5.208   6.697   3.515 -0.5640  0.6008  0.2525
   50MOL   C12618844   5.129   6.747   3.619 -0.2326 -1.1438 -0.1364
   50MOL   H12718845   4.737   7.185   3.977 -0.9440  0.7423 -1.4266
   50MOL   H12818846   4.802   6.958   3.874 -1.2120  0.3404 -1.1294
   50MOL   H12918847   4.994   7.127   3.702 -1.2604  0.1071 -1.1735
   50MOL   H13018848   4.848   7.032   3.633 -0.3820  0.4297  0.0634
   50MOL   H13118849   5.053   7.050   3.486  1.1776  0.7142  0.2154
   50MOL   H13218850   5.201   6.948   3.291 -0.0231 -0.4388 -0.1894
   50MOL   H13318851   5.291   6.726   3.318  0.1865  1.0542  0.1615
   50MOL   H13418852   5.253   6.600   3.529  0.9147  1.4343  1.3819
   50MOL   C13518853   5.105   6.662   3.739 -0.0696 -0.2589 -0.6371
   50MOL   C13618854   4.984   6.577   3.751 -0.0002 -0.0001 -0.2619
   50MOL   O13718855   5.104   6.520   3.702  0.0288  0.0839 -0.3012
   50MOL   C13818856   4.870   6.580   3.658  0.2326  0.4284  0.7268
   50MOL   O13918857   4.774   6.487   3.709  0.1999  0.4539 -0.5014
   50MOL   C14018858   4.672   6.432   3.631  0.1973  0.5611  0.2242
   50MOL   C14118859   4.664   6.445   3.491  0.0640  0.1221 -0.0463
   50MOL   C14218860   4.558   6.387   3.418 -0.6564 -0.1017 -0.0642
   50MOL   C14318861   4.459   6.315   3.488 -0.4693  0.1729 -0.0169
   50MOL   C14418862   4.465   6.298   3.623 -0.0254 -0.1880  0.4948
   50MOL   C14518863   4.569   6.355   3.697 -0.1098 -0.7434  0.0164
   50MOL   H14618864   5.176   6.691   3.816 -0.5708 -1.1536  0.1680
   50MOL   H14718865   4.963   6.538   3.851  1.6390  0.6167  0.3412
   50MOL   H14818866   4.904   6.543   3.561  0.1627 -3.0279  1.9251
   50MOL   H14918867   4.817   6.675   3.654 -0.9887 -0.2836 -0.4076
   50MOL   H15018868   4.737   6.506   3.439  0.3866 -1.3956 -1.3827
   50MOL   H15118869   4.554   6.394   3.310 -1.0413 -1.2043 -0.1235
   50MOL   H15218870   4.383   6.266   3.430 -0.2822 -1.5934  1.1952
   50MOL   H15318871   4.390   6.235   3.669  0.7725 -0.7741  1.0041
   50MOL   C15418872   4.573   6.339   3.842  0.8455 -0.1939  0.2358
   50MOL   C15518873   4.462   6.391   3.939 -0.4990 -0.0574  0.6030
   50MOL   O15618874   4.457   6.259   3.892  0.0143 -0.4529  0.5310
   50MOL   C15718875   4.373   6.497   3.880 -0.5307 -0.6149  0.2299
   50MOL   O15818876   4.325   6.595   3.976 -0.2002 -0.0155  0.0383
   50MOL   C15918877   4.416   6.679   4.040  0.0182  0.9409 -0.1897
   50MOL   C16018878   4.559   6.673   4.026 -0.2699  0.0438 -0.5461
   50MOL   C16118879   4.637   6.755   4.101 -0.2574 -0.3605 -0.7134
   50MOL   C16218880   4.581   6.857   4.180 -0.7081 -0.0931 -0.5767
   50MOL   C16318881   4.445   6.855   4.204  0.0477  0.1872  0.1283
   50MOL   C16418882   4.357   6.772   4.132 -0.1448 -0.5481 -0.1589
   50MOL   H16518883   4.671   6.316   3.883  0.2806  1.5942  2.7080
   50MOL   H16618884   4.471   6.386   4.047 -3.4918  3.2273  1.0937
   50MOL   H16718885   4.291   6.434   3.845 -1.3036  0.9604 -0.8138
   50MOL   H16818886   4.411   6.539   3.787  0.5858 -0.2640  0.8408
   50MOL   H16918887   4.598   6.604   3.953  2.2218 -0.2377  0.9989
   50MOL   H17018888   4.744   6.748   4.094 -0.3064 -2.1900  0.1999
   50MOL   H17118889   4.647   6.920   4.237 -1.0362 -1.7810  1.7259
   50MOL   H17218890   4.409   6.940   4.261  2.1596  1.1610  0.0447
   50MOL   C17318891   4.213   6.780   4.154 -0.2944 -0.3731  0.5165
   50MOL   C17418892   4.141   6.745   4.275 -0.3522  0.1221 -0.5450
   50MOL   O17518893   4.174   6.883   4.249 -0.3231  0.3272  0.4969
   50MOL   C17618894   4.196   6.670   4.389  0.6229  0.4312  0.0533
   50MOL   O17718895   4.090   6.626   4.471  0.3326 -0.3059 -0.8523
   50MOL   C17818896   4.058   6.695   4.584  0.4127 -0.2794 -0.0637
   50MOL   C17918897   4.099   6.833   4.608 -0.7635  0.9635  0.6805
   50MOL   C18018898   4.052   6.909   4.715 -0.5553 -0.3838  0.1375
   50MOL   C18118899   3.961   6.844   4.808 -0.1258 -0.6754  0.1536
   50MOL   C18218900   3.915   6.718   4.784  0.0637  0.0221 -0.4881
   50MOL   C18318901   3.966   6.641   4.679 -0.1694  0.1798  0.8468
   50MOL   H18418902   4.155   6.781   4.062  0.6831 -0.9258 -0.1225
   50MOL   H18518903   4.036   6.718   4.261  0.2601 -2.0401 -1.1647
   50MOL   H18618904   4.271   6.723   4.448  0.9232  0.1299 -0.0578
   50MOL   H18718905   4.241   6.582   4.345  1.4834  1.6377 -1.5436
   50MOL   H18818906   4.170   6.879   4.540 -0.1915  1.6648  1.7424
   50MOL   H18918907   4.067   7.016   4.717  0.9612 -0.5606 -1.5495
   50MOL   H19018908   3.924   6.900   4.894  1.6870  0.1736  0.4108
   50MOL   H19118909   3.844   6.682   4.856  1.4698 -0.3104  0.7559
   50MOL   C19218910   3.912   6.504   4.645  0.1565  0.2475 -0.1195
   50MOL   C19318911   3.992   6.374   4.651 -1.0243  0.5883  0.2761
   50MOL   O19418912   3.901   6.412   4.754  0.4023 -0.1504  0.3362
   50MOL   C19518913   4.142   6.369   4.675 -0.5121 -0.1745 -0.0435
   50MOL   O19618914   4.177   6.252   4.742  0.5071 -0.8316 -0.0595
   50MOL   C19718915   4.254   6.162   4.672 -0.1301  0.2555 -0.1009
   50MOL   C19818916   4.232   6.135   4.534  0.1831  0.2719 -0.0114
   50MOL   C19918917   4.279   6.018   4.468  0.2358  0.0118 -0.5989
   50MOL   C20018918   4.367   5.933   4.538 -0.2465  0.1528  0.9827
   50MOL   C20118919   4.386   5.955   4.677  0.6120 -0.2994 -0.0685
   50MOL   C20218920   4.332   6.069   4.744 -0.1409 -1.0750 -0.0512
   50MOL   H20318921   3.815   6.506   4.594  0.1614  0.6721 -0.1131
   50MOL   H20418922   3.950   6.291   4.595 -0.3440  0.9631 -0.8112
   50MOL   H20518923   4.167   6.454   4.739 -0.2577  0.6323 -1.2088
   50MOL   H20618924   4.197   6.375   4.581 -1.2508 -2.7994 -0.6944
   50MOL   H20718925   4.153   6.189   4.483 -0.5554  1.6900  2.5761
   50MOL   H20818926   4.242   6.004   4.368  2.5751 -2.1333 -1.2283
   50MOL   H20918927   4.398   5.835   4.504  1.3892  0.9826  0.0437
   50MOL   H21018928   4.460   5.892   4.726  0.3104  0.5413  1.4990
   50MOL   C21118929   4.362   6.091   4.885 -0.5303  0.6446 -0.4675
   50MOL   C21218930   4.287   6.040   5.000 -0.6006 -0.1553  0.3119
   50MOL   O21318931   4.418   5.983   4.959  0.6815  0.3676  0.6237
   50MOL   C21418932   4.162   5.955   4.989  0.4617  0.3289  0.2007
   50MOL   O21518933   4.126   5.914   5.118  0.9762  0.4247 -0.2271
   50MOL   C21618934   4.007   5.850   5.144 -0.2648 -0.2725  0.2155
   50MOL   C21718935   3.913   5.805   5.050  0.0796 -0.1251  0.1471
   50MOL   C21818936   3.804   5.726   5.088 -0.2568 -0.3747 -0.3330
   50MOL   C21918937   3.791   5.694   5.223  0.3182  0.4593  0.4746
   50MOL   C22018938   3.890   5.732   5.315  0.2804 -0.0368  0.6472
   50MOL   C22118939   3.995   5.821   5.281  0.2293  0.8867  0.3401
   50MOL   H22218940   4.427   6.177   4.900 -1.9702  1.3127  2.3940
   50MOL   H22318941   4.286   6.106   5.086  4.0022 -0.0445  0.3776
   50MOL   H22418942   4.168   5.867   4.925  1.1217  0.4564  0.0870
   50MOL   H22518943   4.092   6.026   4.944  1.8436  1.4402 -0.2281
   50MOL   H22618944   3.924   5.840   4.948 -0.5557 -0.3253  0.0062
   50MOL   H22718945   3.737   5.699   5.008  0.3574  1.0839 -1.3673
   50MOL   H22818946   3.706   5.638   5.259  0.5062  0.1834  0.4917
   50MOL   H22918947   3.853   5.701   5.412 -3.5051  1.8414 -0.1250
   50MOL   C23018948   4.076   5.892   5.382  0.2654  0.2927  0.2194
   50MOL   C23118949   4.079   6.041   5.396 -0.5050  0.9866 -0.4981
   50MOL   O23218950   3.996   5.961   5.482 -0.6367 -0.3241 -0.9180
   50MOL   C23318951   4.010   6.136   5.298  0.1221 -0.8621  0.0674
   50MOL   O23418952   4.050   6.266   5.354 -0.1246 -0.3953  0.1386
   50MOL   C23518953   3.985   6.376   5.292  0.1977  0.3842 -0.1810
   50MOL   C23618954   4.003   6.400   5.152  0.8488 -0.1273 -0.3054
   50MOL   C23718955   3.936   6.511   5.094 -0.1716  0.2948 -0.0419
   50MOL   C23818956   3.879   6.605   5.177  0.1712 -0.2498  0.3169
   50MOL   C23918957   3.879   6.591   5.314  0.0264  0.6324  0.0885
   50MOL   C24018958   3.930   6.469   5.372 -0.0098 -0.2173  0.0183
   50MOL   H24118959   4.160   5.834   5.418  1.1462  0.6934 -1.1469
   50MOL   H24218960   4.172   6.080   5.436 -0.6571  2.2702 -1.3850
   50MOL   H24318961   3.901   6.123   5.301 -0.0309  0.0806 -0.9506
   50MOL   H24418962   4.054   6.120   5.199 -0.3974 -0.7540 -0.1861
   50MOL   H24518963   4.048   6.326   5.087 -1.1993 -0.8218 -0.9575
   50MOL   H24618964   3.948   6.525   4.987 -2.2741  0.0564 -0.3383
   50MOL   H24718965   3.828   6.689   5.132  1.1178  0.4773  0.5799
   50MOL   H24818966   3.842   6.662   5.387  1.3456  0.8465  0.5541
   50MOL   C24918967   3.917   6.454   5.519 -0.2775 -0.1878 -0.2331
   50MOL   C25018968   4.014   6.489   5.628 -0.3027  0.2608  0.1406
   50MOL   O25118969   3.908   6.573   5.589  0.4442 -0.5665  0.3049
   50MOL   C25218970   4.151   6.548   5.590  0.6783 -0.0812 -0.5938
   50MOL   O25318971   4.176   6.670   5.662 -0.4849 -0.1209  0.5205
   50MOL   C25418972   4.230   6.672   5.789 -0.0441 -0.5305 -0.5036
   50MOL   C25518973   4.239   6.557   5.874 -0.1828 -0.5187  0.2398
   50MOL   C25618974   4.280   6.565   6.009  0.3383 -0.1207  0.5472
   50MOL   C25718975   4.314   6.685   6.072  0.3469 -0.4216  0.0806
   50MOL   C25818976   4.307   6.800   5.987  0.2303  0.5020 -0.3529
   50MOL   C25918977   4.267   6.797   5.851  0.2898  0.7271  0.3698
   50MOL   H26018978   3.841   6.381   5.545  1.8750 -2.3981  0.0975
   50MOL   H26118979   4.008   6.434   5.721 -0.4288  0.0222 -0.0075
   50MOL   H26218980   4.156   6.563   5.482 -3.0918 -3.3561 -1.3181
   50MOL   H26318981   4.229   6.481   5.626  0.8221  0.8573  0.8845
   50MOL   H26418982   4.200   6.463   5.837  0.3392 -0.2650 -0.9844
   50MOL   H26518983   4.292   6.479   6.074  1.4314 -0.3085  0.0930
   50MOL   H26618984   4.340   6.693   6.176  1.8255 -4.6948  0.1165
   50MOL   H26718985   4.332   6.897   6.027 -1.8842  1.6052 -1.5893
   50MOL   C26818986   4.250   6.912   5.763 -0.1627 -0.5061 -0.0665
   50MOL   C26918987   4.112   6.964   5.714  0.6498  0.0267 -0.2359
   50MOL   O27018988   4.184   7.026   5.818 -0.0045 -0.0675  0.4257
   50MOL   C27118989   3.986   6.900   5.768  0.0411  0.3251 -0.2981
   50MOL   O27218990   3.869   6.978   5.740 -0.4769 -0.3697  0.1833
   50MOL   C27318991   3.836   7.007   5.606 -0.1552  0.2449  0.4028
   50MOL   C27418992   3.869   6.913   5.502  0.3132 -0.3778  0.7487
   50MOL   C27518993   3.839   6.939   5.365  0.4609  0.2526 -0.3534
   50MOL   C27618994   3.767   7.052   5.330 -0.2880 -0.3844  0.2058
   50MOL   C27718995   3.712   7.132   5.430  0.0434 -0.3707  0.4080
   50MOL   C27818996   3.754   7.122   5.563 -0.0943 -0.4610 -0.7345
   50MOL   H27918997   4.341   6.937   5.710  0.9745 -0.3788  1.9182
   50MOL   H28018998   4.100   7.025   5.625 -1.6706 -1.4634 -0.9922
   50MOL   H28118999   3.990   6.885   5.876  2.7572 -0.7860 -0.5095
   50MOL   H28219000   3.978   6.797   5.733 -0.8421  0.6569 -1.0854
   50MOL   H28319001   3.924   6.821   5.521  1.7597  0.0166 -1.2995
   50MOL   H28419002   3.855   6.861   5.292  2.9303  2.3328 -2.1185
   50MOL   H28519003   3.731   7.072   5.230 -1.9600 -2.8922  0.2802
   50MOL   H28619004   3.655   7.220   5.404  0.9813  0.9369  2.6559
   50MOL   C28719005   3.711   7.221   5.666 -0.0217 -0.1525  0.1621
   50MOL   C28819006   3.797   7.319   5.742  0.8774  0.2687  0.1081
   50MOL   O28919007   3.734   7.354   5.621  0.0252  0.1589  0.1198
   50MOL   C29019008   3.946   7.308   5.746 -0.7669  0.3354 -0.0612
   50MOL   O29119009   3.998   7.443   5.766  0.0261 -0.5679 -0.0040
   50MOL   C29219010   4.132   7.461   5.769 -0.1449  0.0558  0.3170
   50MOL   C29319011   4.229   7.378   5.702  0.2391 -0.5812  0.2336
   50MOL   C29419012   4.371   7.403   5.716 -0.2200 -0.3253 -0.6120
   50MOL   C29519013   4.416   7.521   5.775 -0.0078  0.2917 -0.1525
   50MOL   C29619014   4.318   7.607   5.822  0.8089  0.9875 -0.1396
   50MOL   C29719015   4.180   7.582   5.824 -0.1250  0.2261 -0.3942
   50MOL   H29819016   3.607   7.205   5.692  0.3860 -1.5353  1.0120
   50MOL   H29919017   3.749   7.368   5.827  1.2773 -0.7009  0.9071
   50MOL   H30019018   3.973   7.258   5.653 -0.5671  0.9587 -0.3381
   50MOL   H30119019   3.972   7.244   5.830  0.4887 -0.8753 -1.3294
   50MOL   H30219020   4.200   7.286   5.652  0.2637  0.1156 -1.0748
   50MOL   H30319021   4.443   7.327   5.687 -0.6192 -0.4741 -1.2244
   50MOL   H30419022   4.519   7.551   5.768  0.2894 -0.5719  0.3888
   50MOL   H30519023   4.353   7.697   5.870 -1.0823  2.0949 -0.7561
   50MOL   C30619024   4.074   7.678   5.879 -1.0750 -0.7676  0.1116
   50MOL   C30719025   4.042   7.693   6.027 -0.4138  0.0689  0.5533
   50MOL   O30819026   4.138   7.775   5.956 -0.0743 -0.0882  0.2378
   50MOL   C30919027   4.090   7.610   6.140 -0.1671  0.3776  0.2505
   50MOL   O31019028   4.138   7.484   6.100 -0.5079 -0.1207 -0.3679
   50MOL   C31119029   4.054   7.382   6.085 -0.5046 -0.3436 -0.3400
   50MOL   C31219030   3.912   7.405   6.097  0.0404  0.1198  0.2418
   50MOL   C31319031   3.827   7.298   6.088  0.0385 -0.2422  0.0842
   50MOL   C31419032   3.877   7.167   6.074 -0.1349  0.1347 -0.4594
   50MOL   C31519033   4.017   7.147   6.072  1.3132 -0.3001 -0.6957
   50MOL   C31619034   4.107   7.254   6.078 -0.0122  0.5201 -0.8901
   50MOL   H31719035   4.009   7.717   5.801  0.7100  0.1339 -0.9584
   50MOL   H31819036   3.948   7.745   6.048  0.8683  1.9882  1.7061
   50MOL   H31919037   4.023   7.611   6.226  0.9707 -0.4074  1.1735
   50MOL   H32019038   4.174   7.662   6.187  1.9220 -0.5165 -2.4047
   50MOL   H32119039   3.864   7.501   6.104 -0.8128 -0.0606 -2.5748
   50MOL   H32219040   3.721   7.319   6.086  0.1694  0.5642  0.9705
   50MOL   H32319041   3.818   7.080   6.048  0.2041  0.2603 -1.7046
   50MOL   H32419042   4.048   7.043   6.067  1.7093 -0.3492  2.1226
   50MOL   C32519043   4.253   7.235   6.068 -0.1948  1.1490 -1.0463
   50MOL   C32619044   4.330   7.244   6.197  0.2504 -0.0196  0.3974
   50MOL   O32719045   4.288   7.113   6.146  0.1468  0.1823 -0.1152
   50MOL   C32819046   4.263   7.284   6.327 -0.9514  0.0885 -0.6200
   50MOL   O32919047   4.340   7.256   6.443 -0.2328  0.0241  0.6426
   50MOL   C33019048   4.376   7.128   6.469 -0.3777 -0.6587  0.4317
   50MOL   C33119049   4.510   7.078   6.443  0.0064  0.2052  0.3509
   50MOL   C33219050   4.542   6.940   6.476  0.0453 -0.7242  0.3441
   50MOL   C33319051   4.440   6.854   6.525 -0.5557 -0.1932  0.4384
   50MOL   C33419052   4.309   6.913   6.540  1.1517 -0.3541  0.5133
   50MOL   C33519053   4.275   7.047   6.512  0.6146 -0.1699 -0.4292
   50MOL   H33619054   4.304   7.254   5.974 -1.0600 -0.0934 -1.7798
   50MOL   H33719055   4.436   7.267   6.191  0.3540 -1.2356 -4.1845
   50MOL   H33819056   4.165   7.238   6.336  0.3486 -2.2195  2.2502
   50MOL   H33919057   4.246   7.392   6.329  0.7042  0.3663 -0.3789
   50MOL   H34019058   4.583   7.139   6.391 -0.4871 -1.0057 -1.8520
   50MOL   H34119059   4.646   6.912   6.463  0.4511  1.1412 -0.6447
   50MOL   H34219060   4.464   6.752   6.550 -0.2514 -0.3499 -0.4553
   50MOL   H34319061   4.229   6.844   6.564 -1.4087  2.0530 -0.9230
   50MOL   C34419062   4.127   7.089   6.517 -0.3852 -0.4020 -0.3740
   50MOL   C34519063   4.045   7.095   6.646  0.0500 -0.2026 -0.1503
   50MOL   O34619064   4.097   7.213   6.585  0.0190 -0.4279  0.1661
   50MOL   C34719065   4.102   7.072   6.785 -0.1575 -0.4741  0.5970
   50MOL   O34819066   4.047   6.955   6.840  0.0382  0.5329  0.3619
   50MOL   C34919067   4.085   6.927   6.967 -0.3284  0.1005  0.3065
   50MOL   C35019068   4.181   7.007   7.042 -0.2281 -0.3517  0.1165
   50MOL   C35119069   4.220   6.974   7.172 -0.0658  0.0577  0.0525
   50MOL   C35219070   4.172   6.857   7.232  0.4715 -0.6170 -0.2082
   50MOL   C35319071   4.090   6.770   7.158  0.9350  0.4212  0.4270
   50MOL   C35419072   4.038   6.808   7.030  0.4730  0.4692 -1.1774
   50MOL   H35519073   4.064   7.071   6.431  0.1000 -1.5704 -0.4983
   50MOL   H35619074   3.938   7.084   6.631  0.2542 -1.6702 -0.6623
   50MOL   H35719075   4.087   7.163   6.843 -0.5380 -1.3089  1.8389
   50MOL   H35819076   4.209   7.053   6.772  0.0344  0.8418  0.2120
   50MOL   H35919077   4.225   7.089   6.986  0.4530 -0.7277  0.0963
   50MOL   H36019078   4.286   7.042   7.224 -0.4132  1.5590 -1.4369
   50MOL   H36119079   4.202   6.834   7.333 -0.0750 -1.7327 -0.2922
   50MOL   H36219080   4.055   6.679   7.202 -2.7712  0.9644 -1.2144
   50MOL   C36319081   3.937   6.712   6.966  0.5036 -0.2894  0.9804
   50MOL   C36419082   3.964   6.599   6.870 -0.0976 -0.0338 -0.1009
   50MOL   O36519083   3.949   6.573   7.010  0.2228 -0.3710  0.7752
   50MOL   C36619084   4.098   6.575   6.813 -0.0688  0.2230  0.6951
   50MOL   O36719085   4.075   6.583   6.677 -0.2060  0.0907  0.4506
   50MOL   C36819086   4.178   6.558   6.586  0.1329 -0.1631  0.2573
   50MOL   C36919087   4.143   6.551   6.447 -0.3502  1.1762 -0.1896
   50MOL   C37019088   4.247   6.513   6.360  0.5890  0.0117 -0.0258
   50MOL   C37119089   4.381   6.487   6.400  0.1629  0.5339 -0.0409
   50MOL   C37219090   4.407   6.510   6.540  0.2317 -0.4831 -0.5815
   50MOL   C37319091   4.311   6.548   6.630 -0.7776  0.6975  0.6937
   50MOL   H37419092   3.836   6.752   6.964 -0.3508 -2.4120  0.9410
   50MOL   H37519093   3.880   6.564   6.809  0.1965 -2.0928  0.6491
   50MOL   H37619094   4.138   6.476   6.836 -1.0825 -0.0629  1.2640
   50MOL   H37719095   4.175   6.642   6.851  0.8479 -0.5787  0.2768
   50MOL   H37819096   4.039   6.558   6.418 -0.0888  0.3246 -1.3996
   50MOL   H37919097   4.209   6.508   6.260 -1.7158 -0.8200  0.8681
   50MOL   H38019098   4.466   6.460   6.340  0.2316  2.9910 -1.0946
   50MOL   H38119099   4.508   6.499   6.579  0.1197 -1.7644 -0.6214
   50MOL   H38219100   4.323   6.554   6.737 -2.2724 -0.0106  0.9164
   51MOL     C119101   7.103   5.138   4.008 -0.1250 -1.1889  0.0572
   51MOL     C219102   7.020   5.266   4.017  0.2599 -0.6407  0.5067
   51MOL     O319103   7.078   5.207   4.128 -0.5191 -0.2413 -0.1479
   51MOL     C419104   6.879   5.252   3.978 -0.5115  0.4510  0.7099
   51MOL     O519105   6.817   5.376   4.007  0.2722  0.5514 -0.2009
   51MOL     C619106   6.749   5.400   4.125 -0.4479 -1.1341 -0.2624
   51MOL     C719107   6.764   5.311   4.233 -0.2623 -0.4150 -0.9036
   51MOL     C819108   6.682   5.336   4.345 -0.1276 -0.4215  0.1019
   51MOL     C919109   6.589   5.444   4.347  0.7869  0.7159 -1.0538
   51MOL    C1019110   6.583   5.537   4.243 -0.6995  0.0402  0.0288
   51MOL    C1119111   6.673   5.522   4.131  0.4805  0.2598 -0.4090
   51MOL    H1219112   7.208   5.140   3.978  0.4230  1.3082  1.9752
   51MOL    H1319113   7.060   5.359   3.976 -1.2188  0.7986  2.2818
   51MOL    H1419114   6.827   5.164   4.017 -0.7043  0.2116 -0.0907
   51MOL    H1519115   6.883   5.231   3.871  1.1686 -1.9170  1.1777
   51MOL    H1619116   6.840   5.234   4.236 -0.0227 -0.1343  0.9586
   51MOL    H1719117   6.691   5.271   4.431 -1.3590 -1.3641 -0.4674
   51MOL    H1819118   6.534   5.443   4.439  1.7035  4.5628 -0.4099
   51MOL    H1919119   6.524   5.626   4.253 -1.5376 -0.2170 -2.2945
   51MOL    H2019120   7.052   5.042   4.005 -1.1333 -0.6186 -2.4344
   51MOL    C2119121   6.679   5.628   4.028  0.3828  0.1637 -0.5577
   51MOL    C2219122   6.616   5.613   3.896  0.0611 -0.0000 -0.1041
   51MOL    O2319123   6.549   5.683   4.000 -0.1120 -0.5445  0.2042
   51MOL    C2419124   6.548   5.482   3.863  0.1613  0.2697  0.2666
   51MOL    O2519125   6.447   5.497   3.764  0.6987 -0.3697  0.0731
   51MOL    C2619126   6.343   5.406   3.748  0.0033 -0.6306  0.1435
   51MOL    C2719127   6.333   5.290   3.823  1.0179 -0.0296  0.0868
   51MOL    C2819128   6.238   5.191   3.794 -0.4874  0.6128 -0.7790
   51MOL    C2919129   6.142   5.208   3.689  0.0717  0.4651 -0.0284
   51MOL    C3019130   6.146   5.324   3.616 -0.0675  0.3420 -1.1876
   51MOL    C3119131   6.252   5.416   3.638  0.2660 -0.6747  0.2374
   51MOL    H3219132   6.767   5.692   4.028 -0.8072  1.8333 -0.0386
   51MOL    H3319133   6.643   5.674   3.811  3.5992 -0.1290  0.8612
   51MOL    H3419134   6.507   5.442   3.956  0.5301  0.1191  0.3651
   51MOL    H3519135   6.624   5.420   3.817  1.0398  2.3669 -1.2027
   51MOL    H3619136   6.405   5.270   3.901  0.1391 -0.9096  0.6710
   51MOL    H3719137   6.235   5.097   3.847 -1.2531  1.0341 -0.0661
   51MOL    H3819138   6.060   5.140   3.674 -0.6426  0.9508  1.5378
   51MOL    H3919139   6.069   5.338   3.542 -1.7603 -1.8860  0.0878
   51MOL    C4019140   6.258   5.538   3.550  0.2814 -0.3304  0.2372
   51MOL    C4119141   6.246   5.526   3.397 -0.4248 -0.0612 -0.3397
   51MOL    O4219142   6.134   5.549   3.479 -0.3370  0.6246  0.3174
   51MOL    C4319143   6.248   5.397   3.324 -0.1754  0.3980  0.1723
   51MOL    O4419144   6.229   5.411   3.181 -0.2580  0.0323  0.3257
   51MOL    C4519145   6.341   5.445   3.108  0.6136  0.0585 -0.5538
   51MOL    C4619146   6.467   5.480   3.163  0.2294  0.2139 -0.2574
   51MOL    C4719147   6.572   5.514   3.079  0.4081  0.4646  0.7366
   51MOL    C4819148   6.549   5.526   2.936  0.2711  0.9347  0.0335
   51MOL    C4919149   6.425   5.499   2.877  0.6835  0.4922 -0.5351
   51MOL    C5019150   6.320   5.456   2.966 -0.1310 -0.0215  0.3791
   51MOL    H5119151   6.297   5.634   3.580  3.4913 -1.2999 -0.6513
   51MOL    H5219152   6.284   5.611   3.341 -1.0493 -1.4250 -2.9245
   51MOL    H5319153   6.167   5.332   3.357  1.4452 -0.9271  1.6947
   51MOL    H5419154   6.334   5.334   3.347 -0.2390  0.3145  0.1755
   51MOL    H5519155   6.489   5.479   3.269  0.0067 -0.6126 -0.2150
   51MOL    H5619156   6.671   5.539   3.113  0.7620  1.0237 -0.6647
   51MOL    H5719157   6.629   5.557   2.871  0.8264 -0.3811  0.0769
   51MOL    H5819158   6.413   5.508   2.770 -2.3541 -0.6851 -0.3252
   51MOL    C5919159   6.191   5.404   2.907 -0.4887 -0.1160  0.2625
   51MOL    C6019160   6.070   5.486   2.889 -0.2573 -0.3945 -0.4338
   51MOL    O6119161   6.156   5.459   2.776 -0.0735 -0.4729  0.0648
   51MOL    C6219162   6.066   5.625   2.943 -0.4407  0.0014 -0.5135
   51MOL    O6319163   5.937   5.678   2.961  0.0113  1.0196 -0.0566
   51MOL    C6419164   5.887   5.750   2.860 -0.4476  0.4099  0.1784
   51MOL    C6519165   5.876   5.697   2.731 -0.1098 -0.4776  0.3212
   51MOL    C6619166   5.827   5.789   2.628 -0.2337  0.1923 -0.1295
   51MOL    C6719167   5.758   5.906   2.670 -0.8076 -0.5211 -0.1226
   51MOL    C6819168   5.762   5.943   2.807 -0.0798  0.2888  0.0502
   51MOL    C6919169   5.825   5.869   2.903 -0.3299 -1.0131 -0.5839
   51MOL    H7019170   6.153   5.304   2.924  0.2404 -0.1557  1.6888
   51MOL    H7119171   5.978   5.429   2.889 -0.1578 -0.5548  1.0569
   51MOL    H7219172   6.124   5.686   2.873  1.0341 -2.1508 -1.2466
   51MOL    H7319173   6.119   5.626   3.038 -1.7261 -1.4670  0.2322
   51MOL    H7419174   5.919   5.605   2.693  1.3684  0.1902  0.3640
   51MOL    H7519175   5.847   5.767   2.524 -0.4210  1.7814 -0.5051
   51MOL    H7619176   5.700   5.968   2.602 -1.9876 -1.2969  0.1502
   51MOL    H7719177   5.699   6.025   2.840 -1.7387 -0.4017 -1.2930
   51MOL    C7819178   5.826   5.907   3.048 -0.3981 -0.1606 -0.3017
   51MOL    C7919179   5.948   5.980   3.112  0.1615  0.0421  0.4925
   51MOL    O8019180   5.832   6.053   3.070 -0.4380  0.2443 -0.7142
   51MOL    C8119181   6.071   6.009   3.037 -0.2135 -1.3192 -0.6112
   51MOL    O8219182   6.149   6.105   3.107  0.0553  0.0173 -0.5914
   51MOL    C8319183   6.202   6.066   3.226 -0.3808 -0.0631  0.4889
   51MOL    C8419184   6.230   5.924   3.260  0.3624 -0.5630  0.2818
   51MOL    C8519185   6.298   5.895   3.384 -0.3512  0.2153  0.0216
   51MOL    C8619186   6.336   6.009   3.464  0.0006  0.0954 -0.4005
   51MOL    C8719187   6.322   6.144   3.427 -0.3786  0.3271  0.2113
   51MOL    C8819188   6.244   6.176   3.312  0.7899 -0.6176 -0.0622
   51MOL    H8919189   5.750   5.864   3.112  0.9309  1.6790  2.6413
   51MOL    H9019190   5.959   5.971   3.220 -0.4498 -3.0208  0.3550
   51MOL    H9119191   6.045   6.046   2.937  0.4972  0.8491 -0.0247
   51MOL    H9219192   6.127   5.918   3.013  0.2586 -1.4899  1.0986
   51MOL    H9319193   6.201   5.850   3.187 -2.6035  0.5012  0.2785
   51MOL    H9419194   6.327   5.800   3.427  1.3854  0.9737  0.5622
   51MOL    H9519195   6.378   5.983   3.560  0.3198  0.9891 -0.2905
   51MOL    H9619196   6.346   6.218   3.502  0.8498 -2.4987  2.6991
   51MOL    C9719197   6.212   6.320   3.279 -1.2717  0.6607  0.4156
   51MOL    C9819198   6.159   6.421   3.378  0.6890 -0.4602  0.0040
   51MOL    O9919199   6.297   6.410   3.343  0.7089  0.2853 -0.0148
   51MOL   C10019200   6.118   6.399   3.524 -0.0269  0.1316 -0.0004
   51MOL   O10119201   6.167   6.521   3.581 -0.4373  0.4458  0.5785
   51MOL   C10219202   6.160   6.528   3.719 -0.0913  0.5824  0.2811
   51MOL   C10319203   6.030   6.531   3.771  0.4118  0.2232 -0.5046
   51MOL   C10419204   6.012   6.538   3.907 -0.0575 -0.2846 -0.6490
   51MOL   C10519205   6.122   6.533   3.994 -0.0047 -0.0612 -0.0136
   51MOL   C10619206   6.252   6.520   3.941  0.0521 -0.0114 -0.7061
   51MOL   C10719207   6.271   6.525   3.807  0.2364 -0.1112 -0.4372
   51MOL   H10819208   6.193   6.333   3.173  0.9748  0.3552 -0.0413
   51MOL   H10919209   6.109   6.506   3.332  1.8584 -0.4165 -1.2040
   51MOL   H11019210   6.161   6.312   3.573 -2.8471 -1.8879 -1.0084
   51MOL   H11119211   6.009   6.397   3.532  0.1538 -2.0539  2.4311
   51MOL   H11219212   5.951   6.549   3.701  0.2943 -0.2297 -0.4939
   51MOL   H11319213   5.915   6.539   3.954 -0.6202  1.5264 -1.8107
   51MOL   H11419214   6.116   6.520   4.101  2.9144  2.8259  0.5886
   51MOL   H11519215   6.342   6.503   4.000  2.1677  3.6063 -2.7131
   51MOL   C11619216   6.411   6.516   3.751 -0.0596  0.2109 -0.1555
   51MOL   C11719217   6.493   6.637   3.719 -0.1837  0.4589 -0.0881
   51MOL   O11819218   6.514   6.565   3.837  0.1948 -0.1860 -0.2734
   51MOL   C11919219   6.471   6.788   3.748  0.7639 -0.0479 -0.7852
   51MOL   O12019220   6.371   6.835   3.666  0.0443 -0.1681  0.0691
   51MOL   C12119221   6.372   6.970   3.632 -0.5674  0.1543 -0.7342
   51MOL   C12219222   6.432   7.069   3.709  0.2753 -0.0007  0.6929
   51MOL   C12319223   6.443   7.204   3.658  0.5317 -0.0654 -0.2129
   51MOL   C12419224   6.383   7.238   3.540  0.0557  0.3234  0.3043
   51MOL   C12519225   6.324   7.139   3.460  0.1729  0.1757  0.2549
   51MOL   C12619226   6.312   7.006   3.507  0.7056 -0.0762  0.2754
   51MOL   H12719227   6.428   6.422   3.698 -0.5533 -1.7805  3.0740
   51MOL   H12819228   6.579   6.622   3.655 -0.3478  2.9364 -0.9631
   51MOL   H12919229   6.560   6.851   3.745  0.3090  0.6135 -0.6716
   51MOL   H13019230   6.431   6.790   3.850  0.2289  1.1913 -1.0098
   51MOL   H13119231   6.489   7.047   3.797 -0.3788 -1.9078  0.6592
   51MOL   H13219232   6.502   7.275   3.714  0.4711  1.7115 -2.3147
   51MOL   H13319233   6.392   7.332   3.487  2.6740 -1.6293 -2.9081
   51MOL   H13419234   6.274   7.172   3.371 -1.6229 -0.6496  0.9405
   51MOL   C13519235   6.235   6.906   3.420  0.0001 -0.4553  0.0588
   51MOL   C13619236   6.102   6.841   3.465 -0.5567  0.1087 -0.2941
   51MOL   O13719237   6.107   6.954   3.381 -0.5378  0.1431 -0.0001
   51MOL   C13819238   6.050   6.865   3.608  0.3919  0.1903 -0.6354
   51MOL   O13919239   5.907   6.840   3.588  0.4421  0.1217 -0.2952
   51MOL   C14019240   5.822   6.850   3.696  0.2196  0.2356 -0.1187
   51MOL   C14119241   5.860   6.853   3.835 -0.0754 -0.2927  0.7027
   51MOL   C14219242   5.767   6.865   3.936 -0.0813  0.2616 -0.0784
   51MOL   C14319243   5.633   6.891   3.910  0.0931  0.6969  0.0938
   51MOL   C14419244   5.592   6.880   3.772 -0.1859  0.2111 -0.4511
   51MOL   C14519245   5.686   6.856   3.663  0.2977 -0.3584 -0.3656
   51MOL   H14619246   6.295   6.856   3.344  0.2477  1.3072 -0.9278
   51MOL   H14719247   6.088   6.742   3.422 -1.5351 -0.7523  1.9086
   51MOL   H14819248   6.073   6.969   3.627 -2.0038  1.2958 -3.4548
   51MOL   H14919249   6.103   6.797   3.674 -1.3637 -2.0507 -1.4610
   51MOL   H15019250   5.962   6.835   3.866 -0.1781 -1.3120  0.4887
   51MOL   H15119251   5.810   6.863   4.035 -1.0028 -0.1832  0.3256
   51MOL   H15219252   5.558   6.913   3.983  0.6227 -0.3061  0.9567
   51MOL   H15319253   5.487   6.893   3.749 -0.0409  1.0476 -0.6467
   51MOL   C15419254   5.635   6.864   3.516  0.4436  0.2328 -0.5989
   51MOL   C15519255   5.582   6.736   3.453 -0.2974  0.2709 -0.4708
   51MOL   O15619256   5.493   6.838   3.503  0.0934 -0.3195  0.1315
   51MOL   C15719257   5.584   6.610   3.533  0.6242  1.0474 -0.4099
   51MOL   O15819258   5.491   6.511   3.485  0.4055 -0.0421 -0.4900
   51MOL   C15919259   5.532   6.409   3.409 -0.1149  0.4344 -0.3881
   51MOL   C16019260   5.657   6.400   3.339  0.0592  0.0682  0.2087
   51MOL   C16119261   5.701   6.283   3.288 -0.0795 -0.7992 -0.6054
   51MOL   C16219262   5.615   6.164   3.296  0.4115 -0.2591  0.2922
   51MOL   C16319263   5.487   6.176   3.350 -0.4803  0.0887  0.2592
   51MOL   C16419264   5.445   6.297   3.406 -0.1698  0.0246 -0.0894
   51MOL   H16519265   5.664   6.950   3.457 -1.2135  1.3346  0.1539
   51MOL   H16619266   5.608   6.742   3.347  2.3758  4.1955  0.2970
   51MOL   H16719267   5.545   6.616   3.635  2.8107  0.5324  0.4921
   51MOL   H16819268   5.688   6.578   3.544  0.0197 -1.1999 -1.0305
   51MOL   H16919269   5.735   6.475   3.346  1.1166 -0.8860 -1.0625
   51MOL   H17019270   5.799   6.272   3.243  1.2632  0.1382  1.9967
   51MOL   H17119271   5.648   6.075   3.244 -0.3159  0.2258 -1.0349
   51MOL   H17219272   5.428   6.086   3.349  0.7827 -0.7378 -0.8310
   51MOL   C17319273   5.307   6.297   3.465 -0.4315  0.1509 -1.0012
   51MOL   C17419274   5.192   6.340   3.380  0.1487 -0.0447  0.7152
   51MOL   O17519275   5.219   6.202   3.402 -0.7225  0.1598 -0.2606
   51MOL   C17619276   5.208   6.388   3.234  0.1403  0.1303  0.1136
   51MOL   O17719277   5.090   6.372   3.155 -0.7304 -0.5698 -0.3034
   51MOL   C17819278   4.978   6.454   3.184 -0.4098 -0.6680  0.3710
   51MOL   C17919279   4.991   6.585   3.228  0.3112 -0.2880  0.3153
   51MOL   C18019280   4.879   6.661   3.249 -0.5530 -0.5070  0.5950
   51MOL   C18119281   4.753   6.607   3.211 -0.3006 -0.4541 -0.3651
   51MOL   C18219282   4.743   6.488   3.148  0.0366 -0.1691  0.3796
   51MOL   C18319283   4.856   6.401   3.141  0.0563  1.1786 -1.6109
   51MOL   H18419284   5.313   6.289   3.574  1.2480 -1.1973 -1.1904
   51MOL   H18519285   5.098   6.375   3.423  0.7343  0.8591  1.2725
   51MOL   H18619286   5.284   6.328   3.184 -0.7306 -1.7410  1.0200
   51MOL   H18719287   5.243   6.492   3.227  0.0008 -0.0011 -3.4698
   51MOL   H18819288   5.089   6.625   3.250  0.2204  0.3413 -0.3906
   51MOL   H18919289   4.886   6.765   3.276  0.6073  0.4259 -3.0806
   51MOL   H19019290   4.671   6.678   3.221 -0.2922 -0.4057 -0.6141
   51MOL   H19119291   4.648   6.459   3.107  0.4669 -0.2781 -0.5605
   51MOL   C19219292   4.851   6.261   3.097 -0.5860  0.3748 -0.0555
   51MOL   C19319293   4.847   6.143   3.194 -0.0607  0.1470  0.0715
   51MOL   O19419294   4.733   6.199   3.129  0.2282  0.5405  0.0582
   51MOL   C19519295   4.871   6.167   3.343  0.3206 -0.5200 -0.0012
   51MOL   O19619296   4.861   6.048   3.417  0.6960  0.1217  0.5330
   51MOL   C19719297   4.917   6.037   3.544 -0.4211  0.7323  0.1147
   51MOL   C19819298   4.920   6.144   3.637 -0.1789 -0.2875  0.5026
   51MOL   C19919299   4.974   6.125   3.766  0.1995  0.1342  0.1835
   51MOL   C20019300   5.021   6.001   3.801 -0.2654  0.1485 -0.3111
   51MOL   C20119301   5.020   5.898   3.705 -0.4163  0.0957 -0.1362
   51MOL   C20219302   4.972   5.914   3.574  0.6067 -0.2037 -0.3153
   51MOL   H20319303   4.870   6.241   2.992 -1.2733  0.2181 -0.1487
   51MOL   H20419304   4.877   6.048   3.150  0.8050 -0.4359  1.8377
   51MOL   H20519305   4.785   6.223   3.379  1.4495  0.2273  1.5869
   51MOL   H20619306   4.969   6.211   3.355  1.0839 -1.9508 -0.8186
   51MOL   H20719307   4.869   6.238   3.622 -1.5284 -1.0960 -0.1136
   51MOL   H20819308   4.978   6.210   3.832  0.4304  1.3397 -1.3706
   51MOL   H20919309   5.059   5.985   3.901 -0.5633 -3.8472 -0.7460
   51MOL   H21019310   5.068   5.805   3.731 -2.0661 -0.8254 -0.3816
   51MOL   C21119311   4.961   5.802   3.475  0.0450  0.6626 -0.1419
   51MOL   C21219312   5.092   5.740   3.432  0.1223  0.1969 -0.1310
   51MOL   O21319313   5.001   5.672   3.530  0.0838  0.2264 -0.6348
   51MOL   C21419314   5.218   5.765   3.497  0.5211  0.1907  0.3991
   51MOL   O21519315   5.325   5.744   3.409 -0.3855 -0.1262  0.4471
   51MOL   C21619316   5.339   5.812   3.290  0.2205 -0.1889  0.2914
   51MOL   C21719317   5.261   5.925   3.248  0.2815 -0.8797  0.3005
   51MOL   C21819318   5.274   5.976   3.118 -0.2257 -0.1562  0.1569
   51MOL   C21919319   5.379   5.931   3.037  0.2657  0.2050 -0.4153
   51MOL   C22019320   5.465   5.827   3.080 -0.4457 -0.2805  0.1900
   51MOL   C22119321   5.447   5.766   3.205  0.0375 -0.0477  0.1121
   51MOL   H22219322   4.869   5.793   3.418 -0.9140 -3.0735  1.8928
   51MOL   H22319323   5.091   5.696   3.333  0.1095 -0.4471  0.1507
   51MOL   H22419324   5.240   5.687   3.570  0.2633 -1.0621 -0.8392
   51MOL   H22519325   5.214   5.862   3.546 -0.9092  0.5038 -0.2963
   51MOL   H22619326   5.186   5.977   3.305 -0.0642  1.2968 -2.0612
   51MOL   H22719327   5.215   6.055   3.073  0.5054 -0.4752 -1.4079
   51MOL   H22819328   5.392   5.980   2.942  3.3717 -1.0104 -0.6813
   51MOL   H22919329   5.551   5.798   3.021  0.7213  1.1214  1.1603
   51MOL   C23019330   5.534   5.649   3.242  0.3285 -0.8598 -0.0096
   51MOL   C23119331   5.507   5.509   3.199 -0.2294  0.3397 -0.6193
   51MOL   O23219332   5.605   5.592   3.134 -0.3215 -0.1174 -0.0262
   51MOL   C23319333   5.398   5.474   3.105 -0.0060  0.0545  1.0157
   51MOL   O23419334   5.282   5.429   3.173 -0.3929  0.5692 -0.1717
   51MOL   C23519335   5.291   5.306   3.238 -0.1357 -0.0848 -0.0303
   51MOL   C23619336   5.394   5.207   3.205  0.0719  0.1075  0.1081
   51MOL   C23719337   5.405   5.093   3.285  0.1769  0.0002  0.4174
   51MOL   C23819338   5.310   5.059   3.383 -0.6106  0.4586  0.3109
   51MOL   C23919339   5.212   5.158   3.414  0.3627  0.5827  0.1645
   51MOL   C24019340   5.200   5.281   3.341  0.3606 -0.2522  0.2318
   51MOL   H24119341   5.602   5.675   3.323 -1.2677 -1.8921  1.7071
   51MOL   H24219342   5.545   5.437   3.271  0.9314  0.3638 -1.2104
   51MOL   H24319343   5.433   5.412   3.023  1.9093  3.0508 -0.5284
   51MOL   H24419344   5.377   5.564   3.046  2.5644 -0.0530 -0.1437
   51MOL   H24519345   5.478   5.220   3.138 -0.5679  0.6477 -0.5914
   51MOL   H24619346   5.483   5.024   3.256 -0.5953 -0.7394  0.0654
   51MOL   H24719347   5.319   4.967   3.437 -2.2268  0.5289  0.7225
   51MOL   H24819348   5.144   5.129   3.492  0.1866 -1.5981 -0.7647
   51MOL   C24919349   5.102   5.395   3.375 -0.4519  0.5601  0.1344
   51MOL   C25019350   4.960   5.380   3.335  0.5958  0.1913 -1.2148
   51MOL   O25119351   5.000   5.357   3.469 -0.2483 -0.0581  0.2656
   51MOL   C25219352   4.908   5.262   3.260 -0.1113 -0.5620  0.0754
   51MOL   O25319353   4.768   5.256   3.302 -0.1669 -0.1724 -0.1424
   51MOL   C25419354   4.679   5.188   3.220 -0.8151  0.2107  0.1299
   51MOL   C25519355   4.713   5.133   3.097  0.8058 -0.9283 -0.3815
   51MOL   C25619356   4.618   5.069   3.014  1.3608  0.8704  0.1447
   51MOL   C25719357   4.485   5.062   3.050 -0.0264  0.1925 -0.2100
   51MOL   C25819358   4.453   5.113   3.179 -0.1923  0.0552 -1.2605
   51MOL   C25919359   4.548   5.177   3.259  0.3260 -0.5739  0.9614
   51MOL   H26019360   5.151   5.489   3.399  1.3949 -0.3134 -0.1547
   51MOL   H26119361   4.905   5.474   3.328 -0.6736 -0.4279  0.0431
   51MOL   H26219362   4.956   5.167   3.284  0.8971  0.2051  1.1313
   51MOL   H26319363   4.919   5.286   3.154  0.0358 -0.5659  0.0896
   51MOL   H26419364   4.812   5.139   3.055  0.3156 -1.2409 -1.6127
   51MOL   H26519365   4.640   5.016   2.922 -0.2959 -2.9574  1.8427
   51MOL   H26619366   4.413   5.018   2.982  0.5285 -0.6659 -0.2471
   51MOL   H26719367   4.351   5.110   3.215  0.5219  0.2757  0.8373
   51MOL   C26819368   4.513   5.224   3.401  0.2999 -0.3823  0.1453
   51MOL   C26919369   4.523   5.373   3.450 -0.2388 -0.5410 -0.2702
   51MOL   O27019370   4.401   5.313   3.405  0.2754 -0.1530  0.0324
   51MOL   C27119371   4.568   5.489   3.362  0.0176 -0.1488  0.2102
   51MOL   O27219372   4.503   5.607   3.420  0.0006 -0.7284  0.3357
   51MOL   C27319373   4.556   5.659   3.536  0.5956  0.2743  0.0762
   51MOL   C27419374   4.681   5.623   3.598 -0.1219  0.2778 -0.6177
   51MOL   C27519375   4.722   5.679   3.717  0.3151 -0.1403  0.3713
   51MOL   C27619376   4.644   5.780   3.780 -0.7192  0.3514 -0.2367
   51MOL   C27719377   4.522   5.823   3.726  0.0500  0.2737  0.3475
   51MOL   C27819378   4.479   5.757   3.606  0.1257 -0.1220 -0.1191
   51MOL   H27919379   4.531   5.147   3.476 -0.4258 -0.2485  0.4692
   51MOL   H28019380   4.522   5.397   3.556 -0.2322  0.0837 -0.4104
   51MOL   H28119381   4.538   5.485   3.257 -0.2725 -0.4923  0.3060
   51MOL   H28219382   4.676   5.500   3.360  0.0371 -0.4461 -0.6652
   51MOL   H28319383   4.751   5.556   3.549 -0.2374 -1.2917  1.2727
   51MOL   H28419384   4.822   5.668   3.756  0.4930  3.8895  1.2960
   51MOL   H28519385   4.671   5.812   3.879 -0.5260 -0.2160 -0.1004
   51MOL   H28619386   4.454   5.899   3.761  2.0549  1.5457  1.6041
   51MOL   C28719387   4.340   5.795   3.546 -0.3595  0.0177  0.2830
   51MOL   C28819388   4.221   5.704   3.560 -0.4558  0.0398  0.3420
   51MOL   O28919389   4.243   5.812   3.650 -0.0597 -0.2613 -0.6011
   51MOL   C29019390   4.221   5.560   3.607 -0.9424 -0.2031  0.3064
   51MOL   O29119391   4.092   5.518   3.637 -0.0984  0.6841 -0.4343
   51MOL   C29219392   4.087   5.391   3.690  0.1352  0.3326 -0.2350
   51MOL   C29319393   4.179   5.339   3.782 -0.3610  0.5193 -0.5848
   51MOL   C29419394   4.186   5.201   3.816 -0.2950  0.1097  0.0995
   51MOL   C29519395   4.093   5.116   3.760  0.0015 -0.3302  0.5061
   51MOL   C29619396   3.995   5.163   3.677  0.3376  0.4734 -0.2385
   51MOL   C29719397   3.994   5.300   3.640 -0.1794  0.2675  0.8357
   51MOL   H29819398   4.347   5.876   3.473 -1.6997  0.7155  0.9056
   51MOL   H29919399   4.147   5.717   3.481  1.0829 -0.4712 -1.2110
   51MOL   H30019400   4.291   5.551   3.690  1.2436 -1.6615 -1.5941
   51MOL   H30119401   4.255   5.495   3.526 -0.0454 -0.7755  1.1379
   51MOL   H30219402   4.256   5.400   3.827 -0.6572  0.3460  0.1536
   51MOL   H30319403   4.257   5.162   3.888 -1.3473 -1.4348  0.3116
   51MOL   H30419404   4.088   5.010   3.777  2.7251 -0.5644  0.0819
   51MOL   H30519405   3.923   5.097   3.629  2.3260 -1.9522 -0.0008
   51MOL   C30619406   3.887   5.347   3.546  0.0782  0.0868  0.2089
   51MOL   C30719407   3.919   5.373   3.396  0.6562 -0.0416 -0.8485
   51MOL   O30819408   3.858   5.245   3.447  0.3436 -0.4438  0.5211
   51MOL   C30919409   4.061   5.364   3.339 -0.3535 -0.9279 -0.3594
   51MOL   O31019410   4.067   5.319   3.205 -0.6164 -0.3644  0.2570
   51MOL   C31119411   4.077   5.186   3.183 -0.1256 -0.2953 -0.1691
   51MOL   C31219412   4.086   5.092   3.288  0.3216  0.7981  0.4341
   51MOL   C31319413   4.098   4.956   3.262  0.3744 -0.6264  0.2424
   51MOL   C31419414   4.114   4.917   3.128  0.2706  0.9322  0.4384
   51MOL   C31519415   4.103   5.009   3.023 -0.0226  0.6147  0.5663
   51MOL   C31619416   4.085   5.147   3.048 -0.6198  0.2427  0.7429
   51MOL   H31719417   3.802   5.391   3.598 -0.0487  0.7412 -0.5362
   51MOL   H31819418   3.848   5.434   3.342 -0.6774 -1.8220 -1.1536
   51MOL   H31919419   4.133   5.322   3.409 -0.7650 -1.1539 -0.0667
   51MOL   H32019420   4.093   5.468   3.344  2.3892 -1.7963  0.8159
   51MOL   H32119421   4.085   5.113   3.394 -0.7476  2.0198  0.1891
   51MOL   H32219422   4.114   4.882   3.340  0.3966 -0.5589  0.3025
   51MOL   H32319423   4.138   4.818   3.090  1.6641  1.4301 -0.0346
   51MOL   H32419424   4.113   4.978   2.920 -1.1713  1.4043  0.2083
   51MOL   C32519425   4.069   5.251   2.938 -0.4563  0.0667 -0.0262
   51MOL   C32619426   4.170   5.327   2.856 -0.4276  0.1953  0.0673
   51MOL   O32719427   4.107   5.209   2.808 -0.1959 -0.0286  0.0744
   51MOL   C32819428   4.320   5.310   2.870 -0.1745  0.2313 -0.3140
   51MOL   O32919429   4.389   5.332   2.742  0.0364  0.9445 -0.4640
   51MOL   C33019430   4.378   5.459   2.684 -0.0077  0.5064 -0.5777
   51MOL   C33119431   4.341   5.572   2.754 -0.0727  0.1633 -0.5068
   51MOL   C33219432   4.337   5.695   2.692 -0.0773  0.2220 -0.1313
   51MOL   C33319433   4.386   5.702   2.557 -0.0338 -0.5951  0.1620
   51MOL   C33419434   4.426   5.589   2.490  0.5353 -0.5576 -0.3264
   51MOL   C33519435   4.418   5.460   2.552 -0.1478  0.3372  0.0477
   51MOL   H33619436   3.972   5.300   2.945 -0.1626  0.4167  1.9932
   51MOL   H33719437   4.133   5.415   2.803 -1.4294 -0.5352 -0.4867
   51MOL   H33819438   4.349   5.211   2.906 -0.8061 -0.4712 -1.6827
   51MOL   H33919439   4.352   5.374   2.952 -0.8057  0.4546 -0.2398
   51MOL   H34019440   4.331   5.570   2.862 -1.5395  1.5558 -0.5986
   51MOL   H34119441   4.316   5.781   2.754 -1.1719  0.0483 -0.2492
   51MOL   H34219442   4.401   5.802   2.518 -1.3218 -0.8123 -0.9361
   51MOL   H34319443   4.480   5.603   2.398 -0.6523  1.0808 -0.7899
   51MOL   C34419444   4.460   5.336   2.482  0.2829 -0.0911  0.2718
   51MOL   C34519445   4.379   5.221   2.445 -0.1024  0.0295  0.0392
   51MOL   O34619446   4.398   5.328   2.353 -0.2436  0.0710  0.0319
   51MOL   C34719447   4.238   5.194   2.481  0.1320 -0.0573 -0.0086
   51MOL   O34819448   4.200   5.072   2.418  0.6869  0.5177 -0.0301
   51MOL   C34919449   4.121   5.071   2.305 -0.0380  0.4498 -0.1662
   51MOL   C35019450   4.106   5.176   2.215  0.4634 -0.4710 -0.5924
   51MOL   C35119451   4.026   5.165   2.097  0.0806 -0.2039 -0.7271
   51MOL   C35219452   3.972   5.036   2.069 -0.6141  0.7227  0.1298
   51MOL   C35319453   4.004   4.923   2.152 -0.2721 -0.0914 -0.6133
   51MOL   C35419454   4.071   4.943   2.273 -0.1596 -0.4974 -0.5554
   51MOL   H35519455   4.568   5.322   2.485  0.0063 -2.4443  0.0450
   51MOL   H35619456   4.417   5.124   2.414 -1.2763  0.0046 -1.3747
   51MOL   H35719457   4.178   5.283   2.460  0.3112 -0.0670 -0.5657
   51MOL   H35819458   4.239   5.173   2.587 -0.8862 -2.2104 -0.4051
   51MOL   H35919459   4.144   5.274   2.238  0.2167 -0.7835  1.1629
   51MOL   H36019460   4.002   5.250   2.035 -1.5465 -0.9248 -1.1033
   51MOL   H36119461   3.921   5.026   1.975 -0.2538 -0.0894  0.0144
   51MOL   H36219462   3.972   4.825   2.119  3.4683 -1.5379 -0.1953
   51MOL   C36319463   4.113   4.820   2.345  0.3635  0.2122 -0.2838
   51MOL   C36419464   4.071   4.794   2.482  0.9529 -0.1113 -0.5260
   51MOL   O36519465   3.998   4.741   2.371  0.3046  0.1601  0.2722
   51MOL   C36619466   3.997   4.892   2.575 -0.4524 -0.4611 -0.2407
   51MOL   O36719467   3.958   4.814   2.685  0.0301 -1.0058  0.1140
   51MOL   C36819468   3.856   4.851   2.765 -0.2897 -0.0909 -0.0606
   51MOL   C36919469   3.820   4.752   2.855 -0.5424  0.0342  0.2922
   51MOL   C37019470   3.720   4.778   2.950 -0.7180  0.1981  0.4412
   51MOL   C37119471   3.646   4.898   2.940 -0.0731 -0.4387  0.6366
   51MOL   C37219472   3.685   4.998   2.847 -0.2828 -0.1232 -0.3320
   51MOL   C37319473   3.798   4.976   2.767  0.1919 -0.0250 -0.7851
   51MOL   H37419474   4.209   4.780   2.314 -0.3310 -0.3495 -1.7363
   51MOL   H37519475   4.122   4.717   2.540 -0.3088 -0.8758 -0.4261
   51MOL   H37619476   3.904   4.913   2.522 -1.8948  0.4562  2.5395
   51MOL   H37719477   4.054   4.972   2.622 -1.2168  0.2680 -0.5278
   51MOL   H37819478   3.881   4.663   2.846 -1.1220 -0.4238  0.8355
   51MOL   H37919479   3.689   4.711   3.029  0.9625 -0.1506  0.8207
   51MOL   H38019480   3.565   4.913   3.010 -1.1090 -0.4138 -0.5529
   51MOL   H38119481   3.641   5.095   2.832 -0.7847 -0.2597  0.2631
   51MOL   H38219482   3.834   5.047   2.694  2.8117 -1.4751 -0.9412
   52MOL     C119483   2.675   5.890   6.525  0.2226  0.0457  0.4313
   52MOL     C219484   2.727   5.762   6.461 -0.5599  0.2849 -0.7947
   52MOL     O319485   2.748   5.882   6.401 -0.1269  0.2175  0.6921
   52MOL     C419486   2.642   5.665   6.380 -0.6481  0.1465  0.2840
   52MOL     O519487   2.531   5.741   6.337  0.4724 -0.0609 -0.0692
   52MOL     C619488   2.429   5.689   6.258  0.3445 -0.6227 -0.0979
   52MOL     C719489   2.430   5.560   6.204 -0.4863  0.5614  0.3799
   52MOL     C819490   2.316   5.519   6.125 -0.1724  0.6908 -0.4207
   52MOL     C919491   2.201   5.594   6.114 -0.4357 -0.2420 -0.1995
   52MOL    C1019492   2.199   5.716   6.178 -0.2891  0.2693  0.2001
   52MOL    C1119493   2.310   5.769   6.253  0.4456  0.8210  0.0087
   52MOL    H1219494   2.734   5.933   6.606  0.5942  0.7641 -0.2047
   52MOL    H1319495   2.817   5.714   6.498  0.0966  1.0401 -1.4212
   52MOL    H1419496   2.613   5.581   6.443 -0.2636 -1.0192 -1.0569
   52MOL    H1519497   2.700   5.628   6.296 -0.0420  1.1317  0.2665
   52MOL    H1619498   2.521   5.502   6.209 -1.7763 -1.3619  2.1513
   52MOL    H1719499   2.315   5.420   6.082 -1.7566 -0.1830  1.5534
   52MOL    H1819500   2.117   5.558   6.057 -1.4627 -0.3921  1.3570
   52MOL    H1919501   2.103   5.766   6.174  1.0428  2.8319 -0.2348
   52MOL    H2019502   2.574   5.928   6.514 -0.1680 -1.7816 -2.9419
   52MOL    C2119503   2.305   5.895   6.329 -0.2264  0.3608  0.2272
   52MOL    C2219504   2.394   6.016   6.288  0.0332 -0.0789  0.2440
   52MOL    O2319505   2.247   6.010   6.262  0.6735 -0.5699  0.5167
   52MOL    C2419506   2.486   6.022   6.164 -0.3691 -0.0399 -0.2666
   52MOL    O2519507   2.500   6.155   6.116 -0.6167 -0.1138 -0.0908
   52MOL    C2619508   2.581   6.244   6.180  1.3872  0.3273 -0.8086
   52MOL    C2719509   2.646   6.212   6.299  0.3418 -0.7055  0.3500
   52MOL    C2819510   2.736   6.306   6.358 -0.1843  0.1244  0.0057
   52MOL    C2919511   2.766   6.422   6.279 -0.1285 -0.1536 -0.0194
   52MOL    C3019512   2.696   6.453   6.164  0.2111 -0.0178  0.6901
   52MOL    C3119513   2.603   6.364   6.110 -0.0018 -0.0705  0.3323
   52MOL    H3219514   2.288   5.890   6.436  1.0087  1.1259  0.4754
   52MOL    H3319515   2.418   6.079   6.374 -0.5030 -0.0759  0.3921
   52MOL    H3419516   2.440   5.964   6.084 -2.2054 -0.8476  1.3498
   52MOL    H3519517   2.586   5.978   6.171  0.5254  1.5278 -2.6281
   52MOL    H3619518   2.613   6.126   6.357  0.4923 -0.9947  0.0038
   52MOL    H3719519   2.797   6.274   6.441 -0.2935  2.1341  0.8936
   52MOL    H3819520   2.855   6.480   6.300 -0.2751 -0.2565  0.9022
   52MOL    H3919521   2.713   6.549   6.119  1.4627 -0.8528 -0.6856
   52MOL    C4019522   2.535   6.405   5.987  0.0492 -0.1802  0.0102
   52MOL    C4119523   2.384   6.426   5.982 -0.0726 -0.3629  0.6898
   52MOL    O4219524   2.477   6.535   5.993 -0.5741 -0.4455 -0.3318
   52MOL    C4319525   2.293   6.408   6.100 -0.6820 -0.2548 -1.1423
   52MOL    O4419526   2.181   6.496   6.087  0.1418  0.6364 -0.2936
   52MOL    C4519527   2.057   6.465   6.153 -0.1486  0.5024 -0.7033
   52MOL    C4619528   2.001   6.336   6.135 -0.2838 -0.7292  0.3538
   52MOL    C4719529   1.874   6.313   6.192 -0.1550  0.0181 -1.1610
   52MOL    C4819530   1.797   6.412   6.250  0.6547  0.0127  0.3125
   52MOL    C4919531   1.853   6.544   6.260 -0.1143  0.1935  0.1348
   52MOL    C5019532   1.981   6.567   6.210  0.1713  0.2607 -0.1135
   52MOL    H5119533   2.605   6.387   5.906  0.3021  0.3696  0.1043
   52MOL    H5219534   2.335   6.435   5.885  0.8643  1.6860  0.3868
   52MOL    H5319535   2.339   6.450   6.190  0.5507 -1.6647 -1.1006
   52MOL    H5419536   2.273   6.305   6.129 -0.5920  0.3230  1.1345
   52MOL    H5519537   2.052   6.259   6.079  1.3233  0.2181  0.4860
   52MOL    H5619538   1.845   6.209   6.191  0.1246 -0.0767 -0.2334
   52MOL    H5719539   1.694   6.390   6.277  0.8031  0.0074  0.8879
   52MOL    H5819540   1.800   6.620   6.315  1.8065  0.8131  1.1752
   52MOL    C5919541   2.045   6.705   6.215 -0.1162  0.2785  0.0737
   52MOL    C6019542   2.071   6.783   6.086 -0.0886 -0.3352  0.0542
   52MOL    O6119543   1.958   6.811   6.169  0.2133 -0.2284  0.2608
   52MOL    C6219544   2.035   6.740   5.951  0.0344  0.7642  0.8130
   52MOL    O6319545   2.006   6.853   5.871  0.1020 -0.3853 -0.2476
   52MOL    C6419546   2.105   6.888   5.782 -0.3614  0.0792 -0.0395
   52MOL    C6519547   2.241   6.874   5.803 -0.4085  0.0690 -0.4136
   52MOL    C6619548   2.337   6.924   5.716 -0.2967 -0.1649  0.2567
   52MOL    C6719549   2.299   6.992   5.599  0.4778  0.4762  0.3027
   52MOL    C6819550   2.158   7.017   5.576 -0.2197  0.3280  0.1026
   52MOL    C6919551   2.063   6.957   5.663  0.7160 -0.1979  0.3151
   52MOL    H7019552   2.110   6.730   6.299 -0.1809 -0.4401  0.3396
   52MOL    H7119553   2.140   6.867   6.090 -0.2895 -0.1106 -1.1070
   52MOL    H7219554   1.949   6.673   5.958 -0.8910  1.6758 -1.2550
   52MOL    H7319555   2.111   6.674   5.908 -1.6899 -0.6921 -0.0856
   52MOL    H7419556   2.291   6.823   5.884  2.1332 -0.5995 -2.3006
   52MOL    H7519557   2.442   6.910   5.733  0.0435  1.4038 -0.4842
   52MOL    H7619558   2.377   7.026   5.532  0.5067 -1.9861 -0.9758
   52MOL    H7719559   2.125   7.071   5.488 -1.5791  0.6103  0.7606
   52MOL    C7819560   1.915   6.982   5.628  0.3827  0.0639 -0.2400
   52MOL    C7919561   1.844   7.084   5.708 -0.0409 -0.0905 -0.1320
   52MOL    O8019562   1.887   7.113   5.575 -0.3260  0.1257 -0.2314
   52MOL    C8119563   1.909   7.179   5.806 -0.7897 -0.2524 -0.2937
   52MOL    O8219564   1.837   7.173   5.933  0.1073  0.1295 -0.4022
   52MOL    C8319565   1.726   7.253   5.960 -0.6322  0.4377 -0.2131
   52MOL    C8419566   1.696   7.372   5.884 -0.0719 -0.0749 -0.3660
   52MOL    C8519567   1.578   7.439   5.903  0.0964 -0.5434  0.2263
   52MOL    C8619568   1.481   7.387   5.991  0.8112 -0.4979  0.2159
   52MOL    C8719569   1.507   7.268   6.066  0.8446 -0.3572 -0.1008
   52MOL    C8819570   1.630   7.203   6.056 -0.5117  0.3413  0.3941
   52MOL    H8919571   1.855   6.899   5.589  1.1352 -1.3566  1.5196
   52MOL    H9019572   1.735   7.085   5.704  0.0080  1.5820 -1.8003
   52MOL    H9119573   1.921   7.280   5.768 -0.0546 -0.3730 -0.3792
   52MOL    H9219574   2.010   7.140   5.820 -0.8980 -0.6286 -0.5392
   52MOL    H9319575   1.767   7.411   5.812  1.1373  0.0194  0.8578
   52MOL    H9419576   1.558   7.527   5.843  4.0126  0.0090 -0.4164
   52MOL    H9519577   1.381   7.424   6.007 -0.5676 -1.6733 -4.8658
   52MOL    H9619578   1.424   7.234   6.126 -0.5454 -1.2216 -2.4475
   52MOL    C9719579   1.661   7.086   6.132 -0.4150  0.7318  0.7604
   52MOL    C9819580   1.688   7.083   6.281 -1.1939 -0.4509 -0.5739
   52MOL    O9919581   1.557   7.050   6.227 -0.2337  0.2876 -1.0774
   52MOL   C10019582   1.696   7.208   6.366 -0.8688  0.2210  0.5488
   52MOL   O10119583   1.813   7.278   6.332  0.3943  0.8085  0.1583
   52MOL   C10219584   1.901   7.261   6.432  0.2937 -0.5117 -0.5229
   52MOL   C10319585   1.887   7.325   6.558 -0.0331  0.3638 -0.2134
   52MOL   C10419586   1.987   7.308   6.653 -0.7271 -0.7435  0.7395
   52MOL   C10519587   2.095   7.226   6.632 -0.3031  0.5000  0.6046
   52MOL   C10619588   2.106   7.168   6.508 -0.4381  0.0306  0.1327
   52MOL   C10719589   2.015   7.188   6.405  0.3644 -0.2442  0.7932
   52MOL   H10819590   1.696   7.000   6.074 -2.4162  0.9815 -0.8924
   52MOL   H10919591   1.755   7.003   6.311 -1.2226 -1.1641 -2.3264
   52MOL   H11019592   1.685   7.179   6.471  1.0304  2.0070  1.2670
   52MOL   H11119593   1.609   7.269   6.338 -1.5842 -0.9164  0.2640
   52MOL   H11219594   1.808   7.397   6.574 -2.5828 -2.1560 -1.1180
   52MOL   H11319595   1.996   7.378   6.736  1.2019  1.7047 -1.4145
   52MOL   H11419596   2.175   7.204   6.702  1.6457  1.2684 -1.3412
   52MOL   H11519597   2.189   7.101   6.492 -0.5986 -1.1638  3.8389
   52MOL   C11619598   2.045   7.132   6.262  0.2002  0.2323  0.0564
   52MOL   C11719599   2.127   7.211   6.164 -0.4448 -0.2522 -0.0518
   52MOL   O11819600   2.187   7.107   6.243  0.2100  0.5335  0.9492
   52MOL   C11919601   2.183   7.342   6.207 -0.6043  0.0496 -0.2848
   52MOL   O12019602   2.208   7.431   6.102  0.1397 -0.4193  0.0613
   52MOL   C12119603   2.102   7.506   6.055 -0.8417  0.3188 -0.0097
   52MOL   C12219604   1.977   7.518   6.124 -0.0811 -0.7415 -0.0574
   52MOL   C12319605   1.868   7.588   6.076  0.0665 -0.0287  0.0938
   52MOL   C12419606   1.874   7.650   5.948  0.4774 -0.2913 -0.6356
   52MOL   C12519607   2.001   7.646   5.882  0.3179 -0.3422 -0.4489
   52MOL   C12619608   2.113   7.576   5.939 -0.1997  0.3043  0.0136
   52MOL   H12719609   1.971   7.067   6.215  0.4585  0.6425 -0.9452
   52MOL   H12819610   2.110   7.186   6.060 -0.0134 -1.5052  0.1617
   52MOL   H12919611   2.276   7.331   6.263 -0.6091  0.2834 -0.2327
   52MOL   H13019612   2.122   7.389   6.284  1.1867  2.7901 -0.4867
   52MOL   H13119613   1.967   7.471   6.221 -0.4994 -1.4811 -0.4534
   52MOL   H13219614   1.779   7.580   6.137  1.0406 -1.5630  1.3616
   52MOL   H13319615   1.793   7.703   5.901 -1.6160 -0.8500  2.1588
   52MOL   H13419616   2.015   7.696   5.787 -0.9815 -0.1529 -0.5517
   52MOL   C13519617   2.247   7.574   5.852 -0.5824  0.1554  0.4788
   52MOL   C13619618   2.293   7.482   5.737  0.9497  0.0479  0.0052
   52MOL   O13719619   2.226   7.606   5.715  0.7409 -0.1048  0.3684
   52MOL   C13819620   2.227   7.351   5.694 -0.0450 -0.0782 -0.2494
   52MOL   O13919621   2.232   7.356   5.552 -0.2427  0.6035  0.1520
   52MOL   C14019622   2.355   7.341   5.486 -0.3337 -0.0831  0.1857
   52MOL   C14119623   2.471   7.303   5.550  0.2337 -0.7012  0.8621
   52MOL   C14219624   2.590   7.283   5.480 -0.3556  0.6187  0.1635
   52MOL   C14319625   2.599   7.301   5.343 -0.2437  0.0952 -0.2294
   52MOL   C14419626   2.479   7.345   5.278  0.6071 -0.4853 -1.1898
   52MOL   C14519627   2.359   7.372   5.350  0.1001 -0.0842 -0.5367
   52MOL   H14619628   2.333   7.615   5.904 -0.2409  1.3911 -0.9936
   52MOL   H14719629   2.397   7.481   5.704  0.3309  1.0933 -2.0118
   52MOL   H14819630   2.128   7.343   5.739 -0.0389  1.7282  0.0947
   52MOL   H14919631   2.285   7.266   5.730  2.1882  1.1695 -0.8544
   52MOL   H15019632   2.459   7.272   5.652 -1.5396 -0.1818  0.8217
   52MOL   H15119633   2.674   7.244   5.535 -0.1635  0.3345 -0.3327
   52MOL   H15219634   2.684   7.262   5.290 -0.2317  1.6583 -1.4212
   52MOL   H15319635   2.467   7.351   5.171  0.6747  0.5994 -1.1397
   52MOL   C15419636   2.233   7.405   5.284 -0.3231  0.4275 -0.3744
   52MOL   C15519637   2.189   7.548   5.246 -0.6988  0.0850  0.1675
   52MOL   O15619638   2.256   7.458   5.153  0.1361 -0.2847 -0.4758
   52MOL   C15719639   2.274   7.677   5.263 -0.7214  0.2243 -0.2688
   52MOL   O15819640   2.282   7.727   5.397  0.5058  0.0230  0.0380
   52MOL   C15919641   2.405   7.774   5.443 -0.3770  0.6366 -0.1141
   52MOL   C16019642   2.530   7.716   5.408 -0.6163  0.3842  0.0276
   52MOL   C16119643   2.651   7.764   5.469 -0.0978  0.3287  0.4944
   52MOL   C16219644   2.646   7.878   5.547  0.0677  0.1380 -0.1440
   52MOL   C16319645   2.526   7.949   5.566  0.5919 -0.0931 -0.0580
   52MOL   C16419646   2.404   7.897   5.516  0.3155 -0.1982  0.2843
   52MOL   H16519647   2.165   7.320   5.288  0.8271 -0.4867  0.2463
   52MOL   H16619648   2.086   7.567   5.218 -1.0709  0.6838  1.8782
   52MOL   H16719649   2.223   7.758   5.211  0.7958  1.5737  0.2986
   52MOL   H16819650   2.363   7.648   5.209 -0.9765  2.3491 -1.9212
   52MOL   H16919651   2.539   7.620   5.359 -0.5093  0.6035 -0.3829
   52MOL   H17019652   2.748   7.724   5.443  0.3063  0.3854  1.8648
   52MOL   H17119653   2.734   7.923   5.591  0.2364 -0.9405  0.6140
   52MOL   H17219654   2.519   8.037   5.628  1.5490  0.9114 -1.3587
   52MOL   C17319655   2.273   7.959   5.538  0.3221  0.0193  0.3959
   52MOL   C17419656   2.198   7.979   5.674 -0.5577 -0.1345  0.1877
   52MOL   O17519657   2.269   8.083   5.614 -0.9758  0.1128  0.4734
   52MOL   C17619658   2.261   7.928   5.810 -0.0839 -0.3369  0.3056
   52MOL   O17719659   2.183   7.954   5.924  0.0278 -0.1939 -0.0802
   52MOL   C17819660   2.148   8.082   5.959 -0.4025 -0.1876 -0.4519
   52MOL   C17919661   2.202   0.028   5.898  0.3454 -0.5175  0.1205
   52MOL   C18019662   2.153   0.153   5.938  0.2935  0.2071 -0.9372
   52MOL   C18119663   2.058   0.166   6.042  0.2515 -0.0687 -0.9413
   52MOL   C18219664   2.012   0.048   6.107  0.4726 -0.8255  0.7313
   52MOL   C18319665   2.060   8.092   6.068  0.3002  0.1389 -0.2183
   52MOL   H18419666   2.209   7.957   5.450 -0.0589 -3.7176  0.6849
   52MOL   H18519667   2.091   7.997   5.678 -0.6828 -0.3804 -1.6351
   52MOL   H18619668   2.359   7.974   5.817 -0.7699  1.8793 -3.5873
   52MOL   H18719669   2.293   7.824   5.801  3.1198  0.6218  0.1722
   52MOL   H18819670   2.285   0.028   5.830  0.9554 -0.2962  0.8539
   52MOL   H18919671   2.191   0.238   5.884  0.5760 -0.4996 -1.8599
   52MOL   H19019672   2.033   0.267   6.070  0.0748 -0.4373  0.2648
   52MOL   H19119673   1.938   0.055   6.185 -1.1300  1.6314 -0.9175
   52MOL   C19219674   2.014   7.967   6.139 -0.4318  0.4032 -0.2089
   52MOL   C19319675   2.094   7.897   6.238 -0.4388 -0.4245 -0.6840
   52MOL   O19419676   1.992   7.990   6.278  0.0494  0.4218  1.0297
   52MOL   C19519677   2.241   7.925   6.270 -0.1433  0.1167  0.1920
   52MOL   O19619678   2.257   7.883   6.405 -0.3857 -0.5430 -0.4695
   52MOL   C19719679   2.294   7.751   6.422  0.9986  0.6892 -0.1481
   52MOL   C19819680   2.400   7.685   6.346  0.6893  0.3968  0.3964
   52MOL   C19919681   2.438   7.550   6.363  0.5600 -0.6523  0.1163
   52MOL   C20019682   2.396   7.477   6.465  0.2703  0.5647  0.0575
   52MOL   C20119683   2.294   7.534   6.554  0.5369 -0.0772 -0.1796
   52MOL   C20219684   2.244   7.673   6.530 -0.6472  0.8310  0.2825
   52MOL   H20319685   1.935   7.914   6.085 -0.9081 -0.9144  1.7282
   52MOL   H20419686   2.072   7.792   6.257 -2.0985  0.0836  0.2517
   52MOL   H20519687   2.273   8.029   6.276  0.4930 -0.0932  0.4109
   52MOL   H20619688   2.300   7.874   6.194  1.2942 -0.2210  1.5244
   52MOL   H20719689   2.447   7.746   6.271 -2.5172  1.5027 -0.7798
   52MOL   H20819690   2.505   7.508   6.290  0.7821  0.0204 -0.0719
   52MOL   H20919691   2.444   7.383   6.489  1.0510  0.4852 -1.7672
   52MOL   H21019692   2.267   7.481   6.644 -1.1369  1.1290  0.0561
   52MOL   C21119693   2.141   7.728   6.625  0.3659 -0.1241 -0.1043
   52MOL   C21219694   1.998   7.725   6.593  0.4376  1.0887 -1.1385
   52MOL   O21319695   2.054   7.627   6.679  0.5845  0.0871 -0.2708
   52MOL   C21419696   1.932   7.668   6.470 -0.4144  0.0311 -0.0504
   52MOL   O21519697   1.795   7.647   6.495  0.0248  0.0455  0.2070
   52MOL   C21619698   1.707   7.757   6.500 -0.4233  0.5302 -0.1746
   52MOL   C21719699   1.741   7.888   6.464  0.1294 -0.3300  0.6703
   52MOL   C21819700   1.640   7.986   6.466 -0.5690  0.0249 -0.3901
   52MOL   C21919701   1.512   7.958   6.501  0.1390  0.0103  0.5314
   52MOL   C22019702   1.482   7.825   6.544  0.1737 -0.3586  0.0913
   52MOL   C22119703   1.582   7.725   6.556  0.0096  0.5004  0.4548
   52MOL   H22219704   2.191   7.795   6.695  0.9240 -0.4095 -0.2305
   52MOL   H22319705   1.938   7.799   6.646 -0.3327  0.5018 -1.1750
   52MOL   H22419706   1.980   7.579   6.430  2.4512  1.5854 -0.2031
   52MOL   H22519707   1.948   7.737   6.388 -0.7713 -1.2764 -1.2350
   52MOL   H22619708   1.841   7.919   6.436 -0.3290 -1.4105 -2.3647
   52MOL   H22719709   1.680   8.084   6.445  1.8717 -0.7973  0.2624
   52MOL   H22819710   1.440   8.037   6.487 -0.4892 -0.7046 -0.4036
   52MOL   H22919711   1.385   7.787   6.573  0.0601  0.4528  0.8166
   52MOL   C23019712   1.541   7.592   6.602 -0.0641  0.2019  0.2909
   52MOL   C23119713   1.611   7.515   6.715  0.2744 -0.0570 -0.4725
   52MOL   O23219714   1.479   7.586   6.730 -0.1520  0.6774 -0.0211
   52MOL   C23319715   1.713   7.567   6.808  0.2082 -0.0248 -0.0621
   52MOL   O23419716   1.692   7.532   6.946 -0.1310  0.4326 -0.4160
   52MOL   C23519717   1.755   7.417   6.994 -0.0918  0.7943  0.0689
   52MOL   C23619718   1.781   7.305   6.911  0.2005  0.3687 -0.3241
   52MOL   C23719719   1.845   7.198   6.962 -0.4523  0.5394 -0.2801
   52MOL   C23819720   1.893   7.188   7.093  0.0029  0.1627  0.3064
   52MOL   C23919721   1.866   7.296   7.179  0.3887  0.2036  0.4659
   52MOL   C24019722   1.796   7.405   7.131  1.1216  0.2604  0.1973
   52MOL   H24119723   1.499   7.537   6.518 -1.4239  0.3279  0.8879
   52MOL   H24219724   1.597   7.407   6.711  2.1358 -0.3061 -0.6536
   52MOL   H24319725   1.712   7.675   6.794  0.1751  0.0414  0.4658
   52MOL   H24419726   1.815   7.542   6.775  0.6589  0.8247  0.6751
   52MOL   H24519727   1.745   7.296   6.810  0.3740 -0.2457 -0.3296
   52MOL   H24619728   1.860   7.113   6.897 -2.2510 -0.6171  0.7609
   52MOL   H24719729   1.957   7.103   7.114  1.1066  0.4486 -1.7581
   52MOL   H24819730   1.917   7.291   7.274  1.4996 -1.7005 -0.2024
   52MOL   C24919731   1.764   7.523   7.221  0.2068  0.3386 -0.1872
   52MOL   C25019732   1.626   7.565   7.259 -0.0464  0.0435 -0.1164
   52MOL   O25119733   1.704   7.484   7.350  0.2105 -0.0477  0.2422
   52MOL   C25219734   1.506   7.508   7.182 -0.2216  0.2668 -0.5760
   52MOL   O25319735   1.383   7.538   7.241  0.1678  0.2272 -0.3972
   52MOL   C25419736   1.317   7.446   7.313 -0.6086  0.4289  0.0460
   52MOL   C25519737   1.383   7.370   7.414  0.0920  0.4570 -0.0292
   52MOL   C25619738   1.301   7.277   7.483  0.6373  0.3739  0.5079
   52MOL   C25719739   1.168   7.248   7.439 -0.8444 -0.2979 -0.5708
   52MOL   C25819740   1.104   7.331   7.347 -0.5055  1.0480  0.3745
   52MOL   C25919741   1.177   7.431   7.280 -0.4664  0.1514 -0.6766
   52MOL   H26019742   1.852   7.586   7.235  1.4328 -1.2379 -0.5382
   52MOL   H26119743   1.611   7.662   7.306  1.0593  0.8670 -1.4365
   52MOL   H26219744   1.512   7.400   7.175 -1.6848 -0.0438  2.3770
   52MOL   H26319745   1.503   7.553   7.083 -2.2361  0.2425 -0.5486
   52MOL   H26419746   1.488   7.387   7.433  0.5700 -1.3135 -1.0169
   52MOL   H26519747   1.340   7.225   7.569  0.6549 -0.8983 -0.2593
   52MOL   H26619748   1.112   7.166   7.483  0.4137 -1.2114 -0.6281
   52MOL   H26719749   1.000   7.315   7.324 -0.6474  2.5424 -0.0985
   52MOL   C26819750   1.103   7.514   7.182 -0.0088  0.2349  0.6665
   52MOL   C26919751   1.095   7.498   7.030 -0.4210  0.3150  0.0678
   52MOL   O27019752   0.996   7.439   7.115 -0.0686  0.4736  0.8515
   52MOL   C27119753   1.190   7.406   6.958 -0.0339 -0.3317 -0.1920
   52MOL   O27219754   1.127   7.368   6.838  0.2008 -0.0774  0.2618
   52MOL   C27319755   1.209   7.328   6.732  0.4677 -0.1076 -0.4665
   52MOL   C27419756   1.330   7.264   6.749  0.1558  0.1700  0.0208
   52MOL   C27519757   1.394   7.202   6.640 -0.0066  0.3061  0.3695
   52MOL   C27619758   1.335   7.205   6.510 -0.1470  0.3792  0.0286
   52MOL   C27719759   1.214   7.271   6.493  0.2276  0.6374  0.9357
   52MOL   C27819760   1.158   7.343   6.603  0.0616  0.3773 -0.2347
   52MOL   H27919761   1.072   7.612   7.218  0.8124  0.0387  1.9669
   52MOL   H28019762   1.060   7.582   6.970  0.2566  0.3490 -0.2790
   52MOL   H28119763   1.219   7.315   7.011 -1.1624 -0.2793  0.5162
   52MOL   H28219764   1.296   7.432   6.949 -0.1453 -0.0192 -0.6618
   52MOL   H28319765   1.370   7.249   6.848  2.2895  3.5217 -0.2411
   52MOL   H28419766   1.481   7.139   6.651  0.0081  0.1867 -0.3574
   52MOL   H28519767   1.387   7.154   6.430  0.8273  0.2390  0.7453
   52MOL   H28619768   1.165   7.278   6.397 -0.8843  0.7555  1.4995
   52MOL   C28719769   1.036   7.410   6.570 -0.7925 -0.2634  0.0489
   52MOL   C28819770   1.010   7.555   6.599  0.3982 -0.4710  0.3135
   52MOL   O28919771   1.064   7.515   6.477  0.3837 -0.1669  0.3170
   52MOL   C29019772   1.108   7.650   6.674 -0.3970  0.5248 -0.9128
   52MOL   O29119773   1.043   7.736   6.771  0.3026  0.1695  0.0955
   52MOL   C29219774   1.112   7.849   6.818 -0.1923  0.4133 -0.1302
   52MOL   C29319775   1.252   7.870   6.813 -0.3089  0.4076 -0.2783
   52MOL   C29419776   1.308   7.998   6.842 -0.1347 -0.0575  0.3894
   52MOL   C29519777   1.218   8.107   6.860  0.1902 -0.3568  1.2349
   52MOL   C29619778   1.082   8.080   6.873  0.6961  0.1969  0.3400
   52MOL   C29719779   1.026   7.957   6.849  0.4412 -0.2431 -0.1326
   52MOL   H29819780   0.952   7.343   6.553  0.0238 -1.2552 -0.1007
   52MOL   H29919781   0.907   7.591   6.595  0.9907  1.3865  1.1174
   52MOL   H30019782   1.151   7.705   6.591  1.6876  0.4151  0.0677
   52MOL   H30119783   1.186   7.592   6.725 -0.4695  0.0139 -1.3716
   52MOL   H30219784   1.317   7.784   6.802 -1.3496 -0.3626 -0.4348
   52MOL   H30319785   1.415   8.009   6.842 -0.2446  1.2403 -1.5228
   52MOL   H30419786   1.268   0.032   6.872 -1.6252  0.5051  2.2121
   52MOL   H30519787   1.018   8.167   6.876 -0.3540 -0.5121 -0.9602
   52MOL   C30619788   0.883   7.935   6.877  0.0716  0.6796 -0.4407
   52MOL   C30719789   0.824   7.884   7.009 -0.0931 -0.7335  0.1367
   52MOL   O30819790   0.849   8.024   6.985  0.3134  0.3550  0.4984
   52MOL   C30919791   0.902   7.829   7.121 -0.0756  0.3544  0.5727
   52MOL   O31019792   0.865   7.871   7.249 -0.2761 -0.4458 -0.3690
   52MOL   C31119793   0.906   7.995   7.282 -0.4889 -0.6335  0.3775
   52MOL   C31219794   1.017   8.066   7.223 -0.5571  0.0702  0.1507
   52MOL   C31319795   1.048   0.024   7.272  0.0044  0.0131 -0.1908
   52MOL   C31419796   0.974   0.078   7.376 -0.1547  0.2685 -0.0462
   52MOL   C31519797   0.864   0.017   7.433 -0.2085  0.2191  0.4687
   52MOL   C31619798   0.824   8.059   7.382 -0.9094 -0.4889  0.0911
   52MOL   H31719799   0.823   7.930   6.786  0.5090 -0.8314 -0.6646
   52MOL   H31819800   0.719   7.854   7.008 -0.6248  0.8997  2.4308
   52MOL   H31919801   1.009   7.845   7.108  0.0265  1.2008  2.2375
   52MOL   H32019802   0.890   7.721   7.118 -2.3195  0.5214  2.1686
   52MOL   H32119803   1.065   8.032   7.133  0.0264  1.8761 -0.2455
   52MOL   H32219804   1.132   0.081   7.235  0.6837  0.6473  2.2133
   52MOL   H32319805   1.009   0.177   7.401  0.3551  0.6285 -2.1498
   52MOL   H32419806   0.799   0.068   7.502 -0.3198  1.7733 -0.7578
   52MOL   C32519807   0.701   7.987   7.430 -0.2669  0.4457  0.1329
   52MOL   C32619808   0.712   7.886   7.546  0.2689  0.1030  1.1184
   52MOL   O32719809   0.668   8.022   7.566  0.3362 -0.1607  0.0385
   52MOL   C32819810   0.848   7.832   7.589  0.4362  0.8436  0.7065
   52MOL   O32919811   0.844   7.794   7.725 -0.2035  0.1396  0.1410
   52MOL   C33019812   0.908   7.679   7.755 -0.6393 -0.1317 -0.0569
   52MOL   C33119813   1.021   7.623   7.686 -0.3572  0.0004 -0.3899
   52MOL   C33219814   1.064   7.493   7.717 -0.5927 -0.1812 -0.0996
   52MOL   C33319815   1.015   7.423   7.828  0.1115  0.1634 -0.5761
   52MOL   C33419816   0.914   7.481   7.901 -0.1174  0.5071  0.5958
   52MOL   C33519817   0.856   7.601   7.862  0.1436  0.3466 -0.3598
   52MOL   H33619818   0.619   7.976   7.358 -1.2771  1.4752  1.0875
   52MOL   H33719819   0.629   7.815   7.555  0.2392  0.1234  1.0075
   52MOL   H33819820   0.932   7.897   7.564  1.0619 -0.7190 -1.4186
   52MOL   H33919821   0.859   7.751   7.517  0.6740  0.1029  1.5646
   52MOL   H34019822   1.078   7.676   7.611  1.4674  0.6989  1.4293
   52MOL   H34119823   1.139   7.457   7.649 -1.5608  1.5891 -2.1600
   52MOL   H34219824   1.056   7.327   7.856  4.5886  2.0825 -0.1983
   52MOL   H34319825   0.890   7.426   7.991  0.9556 -0.4801  0.2829
   52MOL   C34419826   0.751   7.661   7.950  0.5845 -0.4770  0.1422
   52MOL   C34519827   0.600   7.640   7.920  0.2117  0.5894 -0.1302
   52MOL   O34619828   0.670   7.565   8.024  0.1891  0.3457 -0.6514
   52MOL   C34719829   0.559   7.561   7.799 -1.0161 -0.4595  0.1178
   52MOL   O34819830   0.418   7.585   7.766 -0.0886 -0.4471 -0.2560
   52MOL   C34919831   0.379   7.621   7.644 -0.1975  0.0899  0.6553
   52MOL   C35019832   0.447   7.572   7.525  0.4881  0.0225 -0.3011
   52MOL   C35119833   0.394   7.592   7.401 -0.1341 -0.5864  0.1871
   52MOL   C35219834   0.277   7.671   7.390 -0.4611  0.8224  0.2633
   52MOL   C35319835   0.210   7.725   7.501  0.0875  1.2697  0.5082
   52MOL   C35419836   0.260   7.693   7.633  0.0059 -0.1223 -0.3706
   52MOL   H35519837   0.780   7.750   8.005 -1.0429  1.1156 -1.5206
   52MOL   H35619838   0.523   7.710   7.949 -0.1741  0.1428 -0.0711
   52MOL   H35719839   0.576   7.455   7.821 -1.3780 -0.6275 -0.4047
   52MOL   H35819840   0.621   7.596   7.716  0.4871  0.2297  1.5088
   52MOL   H35919841   0.532   7.507   7.538  0.9340  0.3400 -1.5916
   52MOL   H36019842   0.455   7.553   7.321  0.3000 -0.3342  0.3912
   52MOL   H36119843   0.239   7.679   7.289  1.0044  2.3949 -0.1885
   52MOL   H36219844   0.122   7.784   7.481  0.5229  2.0444  0.8465
   52MOL   C36319845   0.177   7.740   7.753  0.5943  0.2875 -0.2014
   52MOL   C36419846   0.222   7.859   7.836  0.2374  0.0875 -0.2478
   52MOL   O36519847   0.109   7.867   7.750  0.0023  0.3693 -0.1417
   52MOL   C36619848   0.337   7.953   7.797 -0.5191 -0.4622  0.3273
   52MOL   O36719849   0.313   8.059   7.888  0.6393  0.3467 -0.4302
   52MOL   C36819850   0.357   0.013   7.848  0.3375 -0.0978 -0.2987
   52MOL   C36919851   0.274   0.121   7.883  0.4608  0.2818  0.0642
   52MOL   C37019852   0.306   0.252   7.841  0.0031 -0.3725 -0.1871
   52MOL   C37119853   0.424   0.272   7.769  0.1189  0.2316 -0.6414
   52MOL   C37219854   0.507   0.168   7.729  0.1348  0.8035  0.4045
   52MOL   C37319855   0.475   0.040   7.770  0.4964 -0.8103  0.5047
   52MOL   H37419856   0.131   7.659   7.810  0.0414  0.9606  0.3256
   52MOL   H37519857   0.199   7.862   7.942 -0.7900  2.7814 -0.5165
   52MOL   H37619858   0.314   7.988   7.696 -0.6834 -2.2019 -0.2498
   52MOL   H37719859   0.435   7.909   7.813  0.0840  1.1359  1.2099
   52MOL   H37819860   0.180   0.106   7.935  0.4035 -0.3607 -0.2251
   52MOL   H37919861   0.236   0.333   7.857 -1.2825 -0.9190 -2.8346
   52MOL   H38019862   0.447   0.374   7.740  2.7520 -0.3689 -0.7989
   52MOL   H38119863   0.596   0.185   7.670  0.4005 -0.3641  0.4653
   52MOL   H38219864   0.538   8.126   7.741  0.5607 -0.6485  0.1744
   53MOL     C119865   5.454   0.283   5.471  0.0004 -0.1904  0.0901
   53MOL     C219866   5.348   0.264   5.579  0.2574  0.1698  0.1298
   53MOL     O319867   5.375   0.165   5.473  0.5584 -0.1439  0.2316
   53MOL     C419868   5.203   0.313   5.577 -0.5097  0.6311  0.1308
   53MOL     O519869   5.185   0.423   5.488  0.0421  0.7557 -0.7392
   53MOL     C619870   5.230   0.548   5.529 -0.2361 -0.9132  0.0492
   53MOL     C719871   5.295   0.572   5.654 -0.0716  0.3137  0.0692
   53MOL     C819872   5.337   0.700   5.700  0.2416 -0.0044  0.2909
   53MOL     C919873   5.313   0.810   5.620 -0.2372 -0.2574 -0.2026
   53MOL    C1019874   5.250   0.792   5.495  0.2148 -0.3975 -0.0589
   53MOL    C1119875   5.208   0.663   5.446 -0.4186 -0.9499 -0.4472
   53MOL    H1219876   5.558   0.267   5.497 -0.2043 -1.9403 -0.0785
   53MOL    H1319877   5.375   0.214   5.671 -0.5380  2.1105  1.4575
   53MOL    H1419878   5.190   0.345   5.680  0.9022 -0.2628  0.6067
   53MOL    H1519879   5.131   0.242   5.538  1.1975 -0.6316 -0.8093
   53MOL    H1619880   5.302   0.499   5.733  0.1816 -0.5512 -0.7440
   53MOL    H1719881   5.383   0.718   5.796  0.9824 -0.5187  0.0355
   53MOL    H1819882   5.354   0.908   5.638 -0.8908 -0.3410  1.7748
   53MOL    H1919883   5.226   0.884   5.444 -2.2755  1.5223  4.2703
   53MOL    H2019884   5.429   0.365   5.405  2.2424 -0.4669 -1.1291
   53MOL    C2119885   5.109   0.662   5.325  0.0353  0.2114 -0.4287
   53MOL    C2219886   4.963   0.626   5.349  0.2012  1.4402 -0.3509
   53MOL    O2319887   5.014   0.759   5.328 -0.1452  0.6403  0.5722
   53MOL    C2419888   4.902   0.601   5.484 -0.5978 -0.4517 -0.0360
   53MOL    O2519889   4.762   0.581   5.488  0.2792 -0.1067 -0.5207
   53MOL    C2619890   4.707   0.460   5.455 -0.2599 -0.0125 -0.8503
   53MOL    C2719891   4.787   0.344   5.431 -0.5915  0.3573 -0.2137
   53MOL    C2819892   4.735   0.221   5.399  0.7337  0.0659 -0.0027
   53MOL    C2919893   4.594   0.205   5.392  0.5814  0.0531 -0.0168
   53MOL    C3019894   4.508   0.316   5.417 -0.2327  0.0852 -0.0115
   53MOL    C3119895   4.567   0.445   5.444  0.4995 -0.1453 -0.1177
   53MOL    H3219896   5.158   0.639   5.230  0.2891  3.1164 -1.0620
   53MOL    H3319897   4.922   0.564   5.269  1.5843 -2.6615  1.9414
   53MOL    H3419898   4.915   0.691   5.544  0.2776 -1.8438  1.9048
   53MOL    H3519899   4.968   0.540   5.546 -0.1047  0.0630 -0.0530
   53MOL    H3619900   4.895   0.346   5.442 -0.7740 -1.8642  2.6148
   53MOL    H3719901   4.791   0.130   5.388  1.6363  0.5092  0.8833
   53MOL    H3819902   4.551   0.114   5.352  1.3079 -0.7692  1.0468
   53MOL    H3919903   4.400   0.313   5.416 -0.2326 -0.2988  1.0850
   53MOL    C4019904   4.482   0.561   5.467 -0.5069  0.7862 -0.6908
   53MOL    C4119905   4.483   0.694   5.393  0.0007  0.9746  0.3594
   53MOL    O4219906   4.403   0.590   5.352  0.4528  0.8107  0.2626
   53MOL    C4319907   4.594   0.727   5.299 -0.6950 -0.4588 -0.5350
   53MOL    O4419908   4.536   0.810   5.204 -0.6948 -0.1067  0.2940
   53MOL    C4519909   4.610   0.857   5.102  0.2514 -0.3734 -0.2544
   53MOL    C4619910   4.740   0.810   5.080 -0.2896  0.3369  0.3627
   53MOL    C4719911   4.807   0.851   4.960 -0.8085  0.1129  0.3634
   53MOL    C4819912   4.742   0.938   4.868 -0.1626 -0.1156  0.1534
   53MOL    C4919913   4.608   0.979   4.894  0.1087  0.4692  0.5765
   53MOL    C5019914   4.540   0.932   5.003  0.1340 -0.4971 -1.3199
   53MOL    H5119915   4.430   0.556   5.562  0.8588 -1.1613 -0.0298
   53MOL    H5219916   4.431   0.774   5.444  1.4758  1.7642  0.6700
   53MOL    H5319917   4.645   0.639   5.259  1.7800  1.2398 -1.2223
   53MOL    H5419918   4.670   0.781   5.355 -0.7017 -2.1287  1.1313
   53MOL    H5519919   4.794   0.743   5.146 -0.6405 -2.0481 -1.6582
   53MOL    H5619920   4.910   0.824   4.944 -0.6214  1.8963 -1.6307
   53MOL    H5719921   4.796   0.973   4.781 -0.8456 -0.5750 -0.4627
   53MOL    H5819922   4.566   1.044   4.818 -1.0176 -2.1177 -1.0984
   53MOL    C5919923   4.392   0.947   5.010 -0.0113 -0.1891  0.0199
   53MOL    C6019924   4.313   1.064   5.060  0.2383 -0.3807 -0.1583
   53MOL    O6119925   4.352   1.059   4.919 -0.1029  0.2354 -0.5404
   53MOL    C6219926   4.388   1.170   5.144  0.5183 -1.2873 -0.3785
   53MOL    O6319927   4.297   1.280   5.171  0.1099  0.7714  0.1640
   53MOL    C6419928   4.241   1.291   5.295 -0.3546 -0.0035  0.6728
   53MOL    C6519929   4.257   1.195   5.395  0.1281  0.6229  0.0659
   53MOL    C6619930   4.204   1.217   5.519  0.2639 -0.4036 -0.9294
   53MOL    C6719931   4.120   1.331   5.549  0.0388  0.0156 -0.2014
   53MOL    C6819932   4.093   1.419   5.442  0.5541  0.1002  0.1206
   53MOL    C6919933   4.156   1.403   5.318  0.2525  0.2209 -0.0358
   53MOL    H7019934   4.332   0.856   5.012  1.7945 -1.3687  2.2993
   53MOL    H7119935   4.206   1.070   5.076  0.2883  1.3744 -0.4146
   53MOL    H7219936   4.465   1.220   5.086 -0.8800 -0.0074 -1.1607
   53MOL    H7319937   4.440   1.123   5.227  1.0091 -1.5604 -0.8473
   53MOL    H7419938   4.329   1.116   5.381  0.6733  1.1190  0.0114
   53MOL    H7519939   4.215   1.139   5.593  0.1761  1.0768  0.6555
   53MOL    H7619940   4.076   1.332   5.647  2.6337 -1.5038  1.0378
   53MOL    H7719941   4.031   1.503   5.470  0.0206  0.0359 -0.8435
   53MOL    C7819942   4.129   1.504   5.215  0.5514 -0.3153  0.1442
   53MOL    C7919943   4.063   1.479   5.078 -0.2130  0.0528  0.3269
   53MOL    O8019944   3.990   1.525   5.194  0.2149  0.3228 -0.0135
   53MOL    C8119945   4.010   1.347   5.027  0.0322  0.1018 -0.3975
   53MOL    O8219946   3.942   1.365   4.905 -0.3450 -0.1573 -0.0474
   53MOL    C8319947   3.809   1.391   4.908  0.4558  0.4639 -0.5763
   53MOL    C8419948   3.737   1.427   5.030 -0.9469 -0.3894 -0.4308
   53MOL    C8519949   3.602   1.457   5.030 -0.3608  0.3543  0.2111
   53MOL    C8619950   3.534   1.446   4.913  0.1439 -0.8226  0.2964
   53MOL    C8719951   3.592   1.410   4.794 -0.5582  0.6851  0.8624
   53MOL    C8819952   3.729   1.382   4.787  0.2398 -0.0961 -0.6999
   53MOL    H8919953   4.175   1.598   5.244 -0.4580 -0.0918  1.0403
   53MOL    H9019954   4.069   1.550   4.996 -0.4537 -1.0955 -0.6959
   53MOL    H9119955   3.942   1.292   5.092 -1.0535  1.1925 -0.6013
   53MOL    H9219956   4.084   1.276   4.989  0.5409 -0.8614  2.2902
   53MOL    H9319957   3.786   1.427   5.126 -0.9505 -1.5914 -0.4187
   53MOL    H9419958   3.556   1.495   5.119 -1.6830 -0.0856 -0.2683
   53MOL    H9519959   3.429   1.470   4.922 -0.2668 -2.6414  0.6705
   53MOL    H9619960   3.539   1.406   4.700  1.1890 -0.5723 -0.0950
   53MOL    C9719961   3.784   1.345   4.654 -0.1800  0.0493  0.2430
   53MOL    C9819962   3.847   1.208   4.624 -0.4044 -0.2405  0.1723
   53MOL    O9919963   3.714   1.235   4.592  0.5955  0.4452  0.1634
   53MOL   C10019964   3.871   1.099   4.731  0.2217  0.1806  0.2053
   53MOL   O10119965   3.841   0.964   4.699  0.1003  0.1711  0.2794
   53MOL   C10219966   3.938   0.876   4.657 -1.1221 -0.0345  0.0443
   53MOL   C10319967   4.074   0.910   4.631 -0.2332  0.2434  0.3714
   53MOL   C10419968   4.169   0.812   4.599  0.3725 -0.0816  0.2255
   53MOL   C10519969   4.133   0.675   4.591  0.1584  0.0622  0.0879
   53MOL   C10619970   4.006   0.637   4.634  0.4304 -0.4983  0.4603
   53MOL   C10719971   3.909   0.740   4.662 -0.3626  0.1440  0.0676
   53MOL   H10819972   3.792   1.422   4.578  3.1489 -0.4355 -0.0035
   53MOL   H10919973   3.904   1.193   4.533  0.5944  1.9206  0.4124
   53MOL   H11019974   3.803   1.124   4.813 -1.8224  0.3578 -1.4904
   53MOL   H11119975   3.972   1.110   4.770  0.3557  2.0355 -0.6136
   53MOL   H11219976   4.099   1.014   4.616 -2.1455  0.3923 -1.9832
   53MOL   H11319977   4.267   0.850   4.575 -0.4361  0.7708 -1.9047
   53MOL   H11419978   4.206   0.600   4.563 -0.4676 -0.4870 -0.0926
   53MOL   H11519979   3.975   0.535   4.653  0.8071 -0.0377  3.7841
   53MOL   C11619980   3.771   0.704   4.706 -0.0665 -0.0866 -0.7066
   53MOL   C11719981   3.661   0.720   4.605 -0.4327  0.1288 -0.1708
   53MOL   O11819982   3.713   0.590   4.644  0.1681 -0.3262  0.5536
   53MOL   C11919983   3.689   0.775   4.466  0.4277 -1.2879 -0.3019
   53MOL   O12019984   3.583   0.745   4.371 -0.0251 -1.0713 -0.3571
   53MOL   C12119985   3.465   0.814   4.368  0.7943 -0.7544  0.5820
   53MOL   C12219986   3.443   0.942   4.436 -0.4765  0.6318  0.2848
   53MOL   C12319987   3.323   1.009   4.426 -0.6980 -0.6837  0.3134
   53MOL   C12419988   3.213   0.940   4.370 -0.5043  0.2201 -0.2949
   53MOL   C12519989   3.232   0.816   4.312 -0.5493 -0.2395  0.4906
   53MOL   C12619990   3.354   0.748   4.311 -0.2140  0.2112 -0.5163
   53MOL   H12719991   3.748   0.711   4.812 -2.9242 -3.6502 -0.9941
   53MOL   H12819992   3.562   0.738   4.647 -1.9938  0.3424 -3.7698
   53MOL   H12919993   3.779   0.722   4.433  0.9629 -0.7067  0.1953
   53MOL   H13019994   3.726   0.878   4.466 -0.1872 -1.0642  0.5744
   53MOL   H13119995   3.534   0.968   4.488  0.8348 -0.7245 -1.2817
   53MOL   H13219996   3.311   1.106   4.471  1.3198  0.0007 -0.5815
   53MOL   H13319997   3.117   0.988   4.357  0.9886  3.5532  0.6120
   53MOL   H13419998   3.153   0.761   4.263  0.5621 -1.0465 -0.4322
   53MOL   C13519999   3.369   0.618   4.245 -0.7011  0.1305 -0.4146
   53MOL   C13620000   3.392   0.489   4.312 -0.0773 -0.5475  0.2342
   53MOL   O13720001   3.260   0.526   4.263 -0.2376  0.6091 -0.2315
   53MOL   C13820002   3.409   0.475   4.460  0.1351  0.1460  0.7810
   53MOL   O13920003   3.306   0.544   4.529  0.1169 -0.2985  0.4324
   53MOL   C14020004   3.315   0.533   4.672  0.3591  0.1700 -0.2084
   53MOL   C14120005   3.412   0.460   4.748  0.0011 -0.1069 -0.1867
   53MOL   C14220006   3.399   0.459   4.888  0.0918 -0.1646  0.1276
   53MOL   C14320007   3.297   0.527   4.954  0.6260  0.5285 -0.6162
   53MOL   C14420008   3.207   0.600   4.882  0.1463 -0.0816  0.3743
   53MOL   C14520009   3.211   0.599   4.742  0.1628  0.4041  0.1677
   53MOL   H14620010   3.400   0.623   4.141 -0.1567  0.5498 -0.2324
   53MOL   H14720011   3.461   0.430   4.253  1.0538  1.4346 -0.4955
   53MOL   H14820012   3.504   0.519   4.490  0.7940 -1.1714  0.6765
   53MOL   H14920013   3.405   0.367   4.472 -0.8320  0.2510  1.4801
   53MOL   H15020014   3.503   0.420   4.706 -0.9767  0.3310 -2.8203
   53MOL   H15120015   3.478   0.415   4.947  0.7408 -1.3728 -1.5886
   53MOL   H15220016   3.280   0.519   5.061 -1.7949  0.7466 -0.9590
   53MOL   H15320017   3.145   0.664   4.942 -0.1346 -1.3364  1.4384
   53MOL   C15420018   3.104   0.679   4.676 -0.3442  0.3836  0.8850
   53MOL   C15520019   3.008   0.613   4.582  0.5936 -0.3631 -0.1515
   53MOL   O15620020   2.972   0.643   4.718  1.0652 -0.3382 -0.0783
   53MOL   C15720021   3.005   0.464   4.547  0.0339 -0.0109  0.9963
   53MOL   O15820022   2.860   0.424   4.534 -0.2091  0.3046 -0.3234
   53MOL   C15920023   2.824   0.322   4.622 -0.2083  0.8712 -0.4837
   53MOL   C16020024   2.891   0.201   4.640 -0.1377  0.1100 -0.1182
   53MOL   C16120025   2.864   0.106   4.743 -0.0295  0.1377  0.3056
   53MOL   C16220026   2.751   0.132   4.827 -0.5572  0.2574 -0.5869
   53MOL   C16320027   2.680   0.257   4.809  0.3304  0.7557  0.0321
   53MOL   C16420028   2.724   0.354   4.718  0.5057 -0.5523 -0.2549
   53MOL   H16520029   3.130   0.784   4.672 -0.2452  0.2827 -1.9385
   53MOL   H16620030   2.942   0.678   4.526  0.3231  0.0281  0.6197
   53MOL   H16720031   3.058   0.406   4.623  0.5950 -1.8761 -0.7711
   53MOL   H16820032   3.054   0.446   4.451 -0.1691  3.9509  0.0797
   53MOL   H16920033   2.969   0.174   4.569  0.7108 -0.7615  1.1204
   53MOL   H17020034   2.926   0.019   4.755 -0.5336  0.0865  2.8965
   53MOL   H17120035   2.711   0.057   4.893 -0.9745 -0.8758 -2.1125
   53MOL   H17220036   2.604   0.275   4.883 -0.5151 -0.3457 -0.5613
   53MOL   C17320037   2.648   0.482   4.717 -0.0531 -0.5775  0.1201
   53MOL   C17420038   2.502   0.497   4.683  0.1434  0.0629  0.2407
   53MOL   O17520039   2.543   0.486   4.821 -0.3414  0.2303 -0.1210
   53MOL   C17620040   2.399   0.395   4.639 -0.8086  0.1712 -0.2076
   53MOL   O17720041   2.464   0.309   4.546 -0.2313 -0.0667 -0.4698
   53MOL   C17820042   2.395   0.242   4.451  0.1646 -0.2635 -0.7036
   53MOL   C17920043   2.254   0.226   4.465 -0.5862  0.3514  0.2618
   53MOL   C18020044   2.189   0.136   4.384  0.1259  0.4708 -0.2917
   53MOL   C18120045   2.260   0.062   4.284 -0.7080  0.2897 -0.3927
   53MOL   C18220046   2.398   0.082   4.266 -0.7071 -0.1427  0.4852
   53MOL   C18320047   2.469   0.168   4.351 -0.3300  0.3590 -0.2604
   53MOL   H18420048   2.714   0.567   4.703  0.5631 -1.1088 -0.2278
   53MOL   H18520049   2.479   0.599   4.656  1.2208 -0.0030 -0.9740
   53MOL   H18620050   2.320   0.457   4.595 -1.8231  0.7590  2.3495
   53MOL   H18720051   2.366   0.338   4.725 -3.0285 -0.5749 -1.5170
   53MOL   H18820052   2.187   0.277   4.533  0.6675  0.9803  1.0530
   53MOL   H18920053   2.082   0.126   4.395 -0.2565  0.1637 -3.6251
   53MOL   H19020054   2.203   0.001   4.216  0.2577 -1.0645 -0.0033
   53MOL   H19120055   2.450   0.040   4.182  0.2237  1.3342  0.2946
   53MOL   C19220056   2.618   0.191   4.339 -0.5510  0.2637 -0.1625
   53MOL   C19320057   2.720   0.094   4.391 -0.7026 -1.1129  0.8291
   53MOL   O19420058   2.679   0.095   4.252 -0.0126 -1.2021 -0.4437
   53MOL   C19520059   2.703   8.130   4.459 -0.1337 -0.5102 -0.5067
   53MOL   O19620060   2.798   8.046   4.402 -0.3373 -0.2729 -0.3337
   53MOL   C19720061   2.780   7.908   4.419  0.5916  0.1220  0.2523
   53MOL   C19820062   2.678   7.851   4.509 -0.1042  0.4125  0.5329
   53MOL   C19920063   2.649   7.713   4.515  0.4893  0.1076 -0.1061
   53MOL   C20020064   2.723   7.617   4.446  0.0360 -0.6673 -0.1000
   53MOL   C20120065   2.835   7.671   4.374 -0.4284 -1.1336  0.2407
   53MOL   C20220066   2.864   7.810   4.362  0.2815  0.2222  0.3261
   53MOL   H20320067   2.644   0.295   4.318 -1.6220  0.7818  0.9764
   53MOL   H20420068   2.820   0.134   4.405 -1.5936  0.0801  3.9667
   53MOL   H20520069   2.601   8.095   4.442 -0.6169  0.6780 -0.0889
   53MOL   H20620070   2.718   8.154   4.564  2.4484 -0.4653 -0.8747
   53MOL   H20720071   2.619   7.921   4.566  1.8990  1.8152  0.9436
   53MOL   H20820072   2.575   7.674   4.584  0.5967 -2.8729 -1.5754
   53MOL   H20920073   2.690   7.514   4.443  0.0345 -0.6879  0.5270
   53MOL   H21020074   2.897   7.596   4.328  1.5655 -0.1398  1.2674
   53MOL   C21120075   2.971   7.860   4.276  0.1634  0.5950 -0.0024
   53MOL   C21220076   3.102   7.901   4.343 -0.0777  0.4983  0.2582
   53MOL   O21320077   3.091   7.778   4.272  0.1192 -0.3051  0.3486
   53MOL   C21420078   3.131   7.888   4.495 -0.0351  0.0731  0.0183
   53MOL   O21520079   3.262   7.930   4.521  0.2741 -0.1233  0.6795
   53MOL   C21620080   3.278   8.033   4.612 -0.2139 -0.1276 -0.3273
   53MOL   C21720081   3.199   8.150   4.596 -0.3150 -0.1640 -0.9943
   53MOL   C21820082   3.212   0.093   4.677  0.5282  0.5803 -0.1984
   53MOL   C21920083   3.304   0.083   4.778 -0.1885 -0.6238  0.2559
   53MOL   C22020084   3.388   8.144   4.791  0.3832  0.5784  0.4289
   53MOL   C22120085   3.376   8.029   4.710  0.6449 -0.5014 -0.2373
   53MOL   H22220086   2.941   7.897   4.178  1.0002  0.2822 -0.3757
   53MOL   H22320087   3.161   7.980   4.296  0.4281 -0.0142  0.0259
   53MOL   H22420088   3.142   7.782   4.520  1.3633  0.6343  1.8287
   53MOL   H22520089   3.052   7.946   4.542 -1.2021 -1.0184 -0.5490
   53MOL   H22620090   3.136   8.150   4.508  0.0236  0.4021 -1.2380
   53MOL   H22720091   3.159   0.185   4.659  0.9174  1.1892  1.6835
   53MOL   H22820092   3.322   0.162   4.850  0.1585 -0.9004  0.4772
   53MOL   H22920093   3.456   8.139   4.875  0.0444  0.5283  0.6991
   53MOL   C23020094   3.450   7.905   4.744  0.1745  0.0745 -0.7175
   53MOL   C23120095   3.592   7.874   4.708 -0.1522  0.3952 -0.1566
   53MOL   O23220096   3.556   7.917   4.844  0.4169  0.5253  0.4865
   53MOL   C23320097   3.663   7.973   4.616 -0.1581  0.0430  0.2238
   53MOL   O23420098   3.796   7.930   4.595  0.1391 -0.2552 -0.3784
   53MOL   C23520099   3.894   7.992   4.676 -0.4405  0.4528 -0.1659
   53MOL   C23620100   3.883   7.995   4.819  0.6892 -0.1154 -0.0660
   53MOL   C23720101   3.995   8.037   4.894  0.8726  0.1432 -0.7047
   53MOL   C23820102   4.109   8.084   4.832  0.3395  0.2612  0.7190
   53MOL   C23920103   4.118   8.089   4.689  0.0583 -0.2061 -0.3753
   53MOL   C24020104   4.011   8.042   4.614  0.3084  0.1962  0.1891
   53MOL   H24120105   3.391   7.813   4.749  2.2802 -1.2229  1.2516
   53MOL   H24220106   3.602   7.766   4.699 -1.4797  0.3279 -0.9875
   53MOL   H24320107   3.642   8.072   4.657 -2.0001  0.4548 -1.6049
   53MOL   H24420108   3.603   7.979   4.525 -1.9536  0.6446  1.4251
   53MOL   H24520109   3.800   7.949   4.871  0.7364 -0.2822 -0.1366
   53MOL   H24620110   3.994   8.027   5.001  0.9792  1.5296 -0.5569
   53MOL   H24720111   4.197   8.101   4.892  1.1688  0.9280 -0.6840
   53MOL   H24820112   4.209   8.132   4.650 -0.9683  0.5049 -2.0298
   53MOL   C24920113   4.018   8.039   4.463  0.2924  0.0942 -0.0040
   53MOL   C25020114   4.094   8.129   4.369  0.4190  0.4950 -0.3484
   53MOL   O25120115   4.156   8.016   4.427 -0.1914 -0.2377  0.1717
   53MOL   C25220116   4.137   0.100   4.408 -0.2498 -0.6573 -0.3779
   53MOL   O25320117   4.038   0.169   4.494 -0.7632  0.0264  0.1874
   53MOL   C25420118   3.967   0.273   4.441 -0.2781 -0.3484  0.3059
   53MOL   C25520119   4.028   0.376   4.368 -0.6578 -0.2345  0.3320
   53MOL   C25620120   3.950   0.479   4.305  0.6995  0.3978  1.3260
   53MOL   C25720121   3.809   0.467   4.309  0.3697  0.4478 -0.5006
   53MOL   C25820122   3.746   0.372   4.389  0.0150  0.5288  0.3402
   53MOL   C25920123   3.827   0.275   4.454 -0.0474  0.6768 -0.0197
   53MOL   H26020124   3.942   7.973   4.422  0.6575  1.4777 -2.9847
   53MOL   H26120125   4.090   8.105   4.263  0.4412 -1.8546  0.1434
   53MOL   H26220126   4.160   0.152   4.314 -1.8980 -0.9556 -0.9670
   53MOL   H26320127   4.237   0.085   4.449 -0.0536 -1.3365 -1.1012
   53MOL   H26420128   4.135   0.391   4.360 -1.0126  1.2798 -2.1520
   53MOL   H26520129   4.003   0.562   4.262 -0.7467 -0.0608 -1.4181
   53MOL   H26620130   3.750   0.551   4.274  1.4101  1.7848  0.8600
   53MOL   H26720131   3.642   0.357   4.416  0.4795 -2.3961  0.7047
   53MOL   C26820132   3.766   0.166   4.543  0.0126 -0.3457 -0.4182
   53MOL   C26920133   3.756   0.161   4.691 -0.0912  0.2200 -0.7370
   53MOL   O27020134   3.645   0.208   4.615  0.1919  0.0215  0.5431
   53MOL   C27120135   3.795   0.266   4.788  0.8593  0.0938 -1.2262
   53MOL   O27220136   3.756   0.229   4.920  0.2314 -0.1646  0.1595
   53MOL   C27320137   3.738   0.328   5.012  0.3645  0.7551 -0.3198
   53MOL   C27420138   3.780   0.458   5.000 -0.3313  0.6232 -0.6588
   53MOL   C27520139   3.748   0.557   5.090 -0.7883  0.5356 -0.4755
   53MOL   C27620140   3.651   0.524   5.191  0.0854  0.1005 -0.0663
   53MOL   C27720141   3.605   0.388   5.209  0.1392 -1.0365  0.4703
   53MOL   C27820142   3.655   0.294   5.120  0.1548  0.0373 -1.0058
   53MOL   H27920143   3.756   0.073   4.487 -2.2738 -0.2989 -0.1163
   53MOL   H28020144   3.756   0.062   4.737 -0.6515 -1.0713 -3.4492
   53MOL   H28120145   3.745   0.357   4.754  0.1503  0.1501 -0.0576
   53MOL   H28220146   3.904   0.274   4.784  0.8989  0.8399  0.7439
   53MOL   H28320147   3.845   0.486   4.918  0.1727 -2.1973 -1.2821
   53MOL   H28420148   3.791   0.656   5.085 -0.3784  0.3977  0.1346
   53MOL   H28520149   3.624   0.591   5.271  2.9147 -0.0496  1.0687
   53MOL   H28620150   3.532   0.369   5.286 -0.8367  0.9995  0.0820
   53MOL   C28720151   3.583   0.163   5.115 -0.0249 -0.4031  0.0732
   53MOL   C28820152   3.648   0.039   5.164  0.0088  0.0301  0.5375
   53MOL   O28920153   3.545   0.097   5.238 -0.2541 -0.7724 -0.1959
   53MOL   C29020154   3.789   0.031   5.227  0.0895 -0.2552 -0.0994
   53MOL   O29120155   3.791   8.073   5.302 -0.1920 -0.1909  0.2103
   53MOL   C29220156   3.915   8.044   5.366 -0.3987 -0.5893  0.1275
   53MOL   C29320157   4.046   8.075   5.315  0.2182  0.2272 -0.1601
   53MOL   C29420158   4.161   8.055   5.393 -0.0305  0.3181 -0.0280
   53MOL   C29520159   4.153   8.007   5.526 -0.0502 -0.0538  0.4841
   53MOL   C29620160   4.026   7.968   5.575  0.2895 -0.0536 -0.1662
   53MOL   C29720161   3.908   7.980   5.494 -0.1807 -0.1270  0.7771
   53MOL   H29820162   3.506   0.168   5.038 -1.9574  3.0480  2.1096
   53MOL   H29920163   3.624   8.120   5.105  2.1286  0.0662 -0.4272
   53MOL   H30020164   3.822   0.114   5.288  2.9483 -1.2057 -0.2695
   53MOL   H30120165   3.862   0.024   5.146 -0.4365 -0.5316 -0.5507
   53MOL   H30220166   4.064   8.098   5.211 -1.0192  0.5157 -0.3154
   53MOL   H30320167   4.261   8.083   5.363  0.6863 -0.8135  1.2587
   53MOL   H30420168   4.233   8.021   5.598  1.0077 -0.0720 -0.6575
   53MOL   H30520169   4.024   7.930   5.676 -0.0960 -1.2630 -0.6162
   53MOL   C30620170   3.773   7.932   5.546  0.0589 -0.3131 -0.1407
   53MOL   C30720171   3.725   7.789   5.553 -0.1009 -0.1013 -0.2428
   53MOL   O30820172   3.775   7.856   5.670  0.3702  0.0881  0.4492
   53MOL   C30920173   3.799   7.660   5.509 -0.0929 -0.0701  0.3820
   53MOL   O31020174   3.911   7.692   5.430 -0.3268 -0.7701  0.2042
   53MOL   C31120175   3.961   7.584   5.355  0.4083  0.0929  0.1875
   53MOL   C31220176   3.958   7.454   5.411 -0.2503 -0.2208  0.6176
   53MOL   C31320177   4.002   7.340   5.343 -0.4842  0.0113 -0.2192
   53MOL   C31420178   4.080   7.359   5.226 -0.3084  0.9278  0.4668
   53MOL   C31520179   4.079   7.489   5.171 -0.0395  0.0440  0.1520
   53MOL   C31620180   4.026   7.605   5.229 -0.3914  0.3930 -0.9726
   53MOL   H31720181   3.695   8.009   5.544 -0.3359 -0.7037  0.0923
   53MOL   H31820182   3.621   7.769   5.579 -0.1177  0.1310 -0.1231
   53MOL   H31920183   3.735   7.595   5.450  2.0618 -2.1090  0.1918
   53MOL   H32020184   3.837   7.603   5.594  0.7580 -0.2323 -0.1032
   53MOL   H32120185   3.922   7.433   5.511  0.1478  1.6943  1.1902
   53MOL   H32220186   3.981   7.242   5.383 -0.2892 -0.0954 -0.3745
   53MOL   H32320187   4.118   7.271   5.177  1.9219  2.1247 -0.0278
   53MOL   H32420188   4.137   7.491   5.080  0.4245 -0.7161  0.4325
   53MOL   C32520189   4.048   7.742   5.181 -0.2661  0.2905  1.0298
   53MOL   C32620190   4.177   7.799   5.145  0.1190 -0.5190 -0.2230
   53MOL   O32720191   4.076   7.759   5.044  0.3654  0.6695  0.5971
   53MOL   C32820192   4.303   7.719   5.134  0.3715  0.2705 -0.2272
   53MOL   O32920193   4.412   7.811   5.133 -0.3272 -0.6658 -0.0812
   53MOL   C33020194   4.458   7.868   5.252  0.6240  1.1141 -0.4482
   53MOL   C33120195   4.410   7.831   5.378 -0.7268  0.5066 -0.1247
   53MOL   C33220196   4.475   7.878   5.496 -0.3631 -0.5472  0.6189
   53MOL   C33320197   4.585   7.968   5.488 -0.4833  0.3069  0.0262
   53MOL   C33420198   4.631   8.000   5.359 -0.3106 -0.4224 -0.0992
   53MOL   C33520199   4.571   7.949   5.242  0.1820 -0.0771  0.0151
   53MOL   H33620200   3.961   7.798   5.213 -0.0875  0.0120  2.0315
   53MOL   H33720201   4.185   7.907   5.152  1.0427 -0.6020  0.0890
   53MOL   H33820202   4.308   7.671   5.036  1.3229  1.6700 -0.8973
   53MOL   H33920203   4.301   7.640   5.208  0.9689  0.0528 -0.4402
   53MOL   H34020204   4.316   7.777   5.380 -0.7225  0.2439 -3.7274
   53MOL   H34120205   4.436   7.843   5.590  1.6669  0.9907  2.0580
   53MOL   H34220206   4.642   8.011   5.570 -0.0511  1.7816 -1.0321
   53MOL   H34320207   4.725   8.053   5.354 -1.1470  0.9192 -1.8183
   53MOL   C34420208   4.634   7.972   5.108 -0.3926 -0.5647  0.4297
   53MOL   C34520209   4.605   8.089   5.015 -0.0991  0.6450  0.1608
   53MOL   O34620210   4.712   8.098   5.099 -0.4746  0.1004 -0.5116
   53MOL   C34720211   4.521   0.033   5.038  0.5956  0.3656 -0.1062
   53MOL   O34820212   4.562   0.138   4.945 -0.3754  0.1177 -0.0528
   53MOL   C34920213   4.473   0.227   4.899 -0.0458 -0.2504  1.1616
   53MOL   C35020214   4.375   0.179   4.810 -0.4118 -0.2496  0.2302
   53MOL   C35120215   4.283   0.270   4.754 -0.1996 -0.0561  0.3479
   53MOL   C35220216   4.283   0.401   4.788 -0.0100 -0.2096 -0.2712
   53MOL   C35320217   4.379   0.446   4.876 -0.3734 -0.9344 -0.1618
   53MOL   C35420218   4.477   0.362   4.932 -0.1973  1.0002  0.2623
   53MOL   H35520219   4.675   7.881   5.063 -0.2528 -0.5054  0.4347
   53MOL   H35620220   4.643   8.084   4.913 -1.6306  0.3581 -0.4114
   53MOL   H35720221   4.513   0.067   5.142 -0.9389 -1.2445  0.3353
   53MOL   H35820222   4.418   0.003   5.018  0.5690 -0.1067  0.7079
   53MOL   H35920223   4.378   0.075   4.779 -2.9953 -0.1776 -0.3587
   53MOL   H36020224   4.211   0.238   4.680 -0.4957 -0.1681  0.6820
   53MOL   H36120225   4.201   0.468   4.768  0.1278  0.3319  0.9055
   53MOL   H36220226   4.379   0.546   4.917 -2.2483  0.6880 -3.8903
   53MOL   C36320227   4.564   0.424   5.039  0.1602  0.2602 -0.2467
   53MOL   C36420228   4.715   0.443   5.040 -0.1373 -0.4486 -0.2355
   53MOL   O36520229   4.617   0.546   4.995 -0.4699  0.1192  0.5727
   53MOL   C36620230   4.808   0.404   4.931 -0.5242 -0.1996 -0.3854
   53MOL   O36720231   4.937   0.428   4.976  0.4961  0.2584  0.7837
   53MOL   C36820232   5.006   0.339   5.058  0.0545  0.1610  0.4492
   53MOL   C36920233   5.130   0.372   5.116 -0.0459  0.1703 -0.6021
   53MOL   C37020234   5.188   0.294   5.223 -0.0911  0.0644  0.8143
   53MOL   C37120235   5.127   0.177   5.268 -0.4697 -0.0819  1.2724
   53MOL   C37220236   5.000   0.135   5.212 -0.3698 -0.3060 -0.3397
   53MOL   C37320237   4.942   0.218   5.109 -0.6978  0.1875  0.8329
   53MOL   H37420238   4.517   0.412   5.136 -0.9124  1.3805 -0.6107
   53MOL   H37520239   4.769   0.484   5.125  0.1025 -2.2027  0.4760
   53MOL   H37620240   4.802   0.470   4.845 -2.8606  1.5164  1.0190
   53MOL   H37720241   4.796   0.299   4.906 -2.0725  0.0351 -0.6865
   53MOL   H37820242   5.170   0.466   5.083  1.1908 -0.1975 -0.1639
   53MOL   H37920243   5.277   0.326   5.276  0.5771  0.2839 -0.4163
   53MOL   H38020244   5.169   0.122   5.351 -0.4670 -1.3084  0.4703
   53MOL   H38120245   4.951   0.043   5.240  0.1257 -0.0902  1.2332
   53MOL   H38220246   4.845   0.185   5.076 -0.9013  2.9068 -1.4838
   54MOL     C120247   2.840   7.151   1.266  0.3631 -0.1808  0.6795
   54MOL     C220248   2.975   7.217   1.266  0.3693 -0.1905  0.0590
   54MOL     O320249   2.899   7.188   1.387  0.2389  0.0336 -0.2039
   54MOL     C420250   3.006   7.362   1.243 -0.0651  0.1382  0.2017
   54MOL     O520251   2.886   7.436   1.227  0.2820  0.4260  0.1334
   54MOL     C620252   2.829   7.454   1.102 -0.1351  0.2539 -0.2508
   54MOL     C720253   2.870   7.382   0.982  0.9426 -0.1574 -0.8279
   54MOL     C820254   2.801   7.388   0.863  0.3753  0.3400 -0.0078
   54MOL     C920255   2.684   7.467   0.862 -0.3762 -0.6401  0.2090
   54MOL    C1020256   2.653   7.554   0.965 -0.3245 -0.0287 -0.3788
   54MOL    C1120257   2.723   7.547   1.085  0.3297 -0.2180  0.2120
   54MOL    H1220258   2.824   7.045   1.249 -0.3257  0.1085 -0.5862
   54MOL    H1320259   3.052   7.142   1.254  0.0541 -0.4803 -0.1837
   54MOL    H1420260   3.078   7.374   1.162  2.0195  0.9684  2.0960
   54MOL    H1520261   3.066   7.388   1.331  2.0795 -1.4014 -0.7788
   54MOL    H1620262   2.953   7.314   0.974  0.6923 -0.3509 -1.7793
   54MOL    H1720263   2.843   7.332   0.781 -0.6703 -0.5230  0.0420
   54MOL    H1820264   2.612   7.466   0.782 -2.3854 -2.5988  1.9754
   54MOL    H1920265   2.573   7.626   0.960 -0.6494 -0.4723 -1.5518
   54MOL    H2020266   2.752   7.211   1.242  1.7067  1.5225 -0.1356
   54MOL    C2120267   2.685   7.621   1.205  0.1901 -0.8440  0.6937
   54MOL    C2220268   2.740   7.750   1.241  0.6328 -0.0022 -0.4879
   54MOL    O2320269   2.613   7.742   1.176  0.5673 -0.1259 -0.3215
   54MOL    C2420270   2.838   7.840   1.176 -0.4219  1.1280 -0.1480
   54MOL    O2520271   2.918   7.778   1.073 -0.2366 -0.0768  0.0489
   54MOL    C2620272   3.031   7.701   1.106 -0.0795 -0.0398 -0.6066
   54MOL    C2720273   3.081   7.686   1.235 -0.7892 -0.3375  0.1663
   54MOL    C2820274   3.204   7.617   1.255  0.0822  0.2442 -0.1185
   54MOL    C2920275   3.279   7.572   1.145  0.3579 -0.1552 -0.3104
   54MOL    C3020276   3.225   7.579   1.018 -0.3482 -0.2070  0.8283
   54MOL    C3120277   3.104   7.644   0.998  0.0333 -0.5127 -0.4685
   54MOL    H3220278   2.645   7.555   1.283  0.9432 -0.8452  1.0897
   54MOL    H3320279   2.728   7.788   1.343 -0.8449 -0.6707 -0.3991
   54MOL    H3420280   2.902   7.886   1.251 -0.7071 -1.1379  1.5573
   54MOL    H3520281   2.790   7.925   1.128 -0.2808  0.1791 -2.0395
   54MOL    H3620282   3.042   7.727   1.327  0.8715 -3.3181  2.2856
   54MOL    H3720283   3.255   7.603   1.349  3.3864 -0.9231 -1.9863
   54MOL    H3820284   3.376   7.531   1.168  0.3027 -1.3897 -2.1820
   54MOL    H3920285   3.278   7.535   0.935  0.6317  0.4447  1.0916
   54MOL    C4020286   3.050   7.661   0.861  0.0379  0.5424 -0.1228
   54MOL    C4120287   3.105   7.751   0.751  0.1342 -0.6378 -0.4338
   54MOL    O4220288   3.149   7.609   0.759 -0.3282 -0.1115 -0.0086
   54MOL    C4320289   3.203   7.859   0.786 -0.2434 -1.0217 -0.2697
   54MOL    O4420290   3.237   7.932   0.672  0.3446 -0.7754 -0.0433
   54MOL    C4520291   3.338   8.023   0.693  0.2348 -0.1881  0.6071
   54MOL    C4620292   3.357   8.103   0.808 -0.0250  0.2903  0.0792
   54MOL    C4720293   3.463   0.023   0.825  0.0449 -0.1330  0.8949
   54MOL    C4820294   3.560   0.041   0.727  0.2924 -0.2561 -0.3077
   54MOL    C4920295   3.545   8.135   0.607  0.6199 -0.0908  0.1378
   54MOL    C5020296   3.430   8.050   0.587  0.3802  0.2201  0.5168
   54MOL    H5120297   2.949   7.623   0.847  1.4398 -2.7055 -2.2254
   54MOL    H5220298   3.028   7.773   0.678 -2.1787 -0.7086  1.9048
   54MOL    H5320299   3.293   7.815   0.829 -0.8100 -1.0621  0.8904
   54MOL    H5420300   3.155   7.912   0.869  2.6420  0.6647  0.4045
   54MOL    H5520301   3.295   8.092   0.896  0.9924 -0.3251  0.7392
   54MOL    H5620302   3.455   0.084   0.914 -0.0897 -1.4061  1.7761
   54MOL    H5720303   3.641   0.112   0.739  2.8850 -3.0300 -0.5497
   54MOL    H5820304   3.617   8.157   0.530  0.6045 -0.8925 -0.1049
   54MOL    C5920305   3.415   7.964   0.471  0.1517  0.4684  0.6234
   54MOL    C6020306   3.349   8.001   0.332 -0.4625 -0.1844 -0.0443
   54MOL    O6120307   3.492   8.020   0.360  0.3699 -0.5959  0.2007
   54MOL    C6220308   3.271   8.135   0.294 -0.1247  0.3442  0.3375
   54MOL    O6320309   3.173   8.096   0.196  0.3508 -0.1437  0.3921
   54MOL    C6420310   3.039   8.075   0.230  0.1435 -0.8721 -0.8479
   54MOL    C6520311   2.997   8.056   0.364  0.2954  0.0105  0.2887
   54MOL    C6620312   2.866   8.049   0.394  0.8612 -0.1890  0.3308
   54MOL    C6720313   2.773   8.039   0.296  0.2736  0.4078  0.7817
   54MOL    C6820314   2.808   8.032   0.160 -0.4779 -0.7021 -0.1033
   54MOL    C6920315   2.946   8.047   0.129 -0.6334 -0.5841  0.6798
   54MOL    H7020316   3.441   7.859   0.487 -2.9921 -0.1233  2.4508
   54MOL    H7120317   3.322   7.913   0.275 -1.4041 -0.4838  0.8496
   54MOL    H7220318   3.335   0.034   0.238 -1.4313 -0.0181 -1.6430
   54MOL    H7320319   3.236   0.026   0.377 -3.1963  0.8795 -1.3013
   54MOL    H7420320   3.060   8.071   0.450  0.8779 -4.2622  0.6914
   54MOL    H7520321   2.824   8.054   0.493 -1.9002 -0.3033 -0.7835
   54MOL    H7620322   2.671   8.031   0.331 -0.9533  2.1515 -2.2919
   54MOL    H7720323   2.737   8.020   0.080 -1.2101  3.0872 -0.0831
   54MOL    C7820324   2.995   8.049   8.161  0.7343 -0.3112  0.2008
   54MOL    C7920325   3.064   7.925   8.105  0.6046  0.8602 -0.2839
   54MOL    O8020326   2.930   7.954   8.078 -0.3756  0.2633  0.1163
   54MOL    C8120327   3.090   7.805   0.021  0.2078 -0.7297  0.1774
   54MOL    O8220328   3.107   7.684   8.120 -0.2370  0.5343 -0.2801
   54MOL    C8320329   3.082   7.560   0.003 -0.0538 -0.1073 -0.1818
   54MOL    C8420330   3.073   7.534   0.138  0.2388  0.0032 -0.0277
   54MOL    C8520331   3.034   7.405   0.171  0.5978 -0.3829  0.3016
   54MOL    C8620332   3.026   7.299   0.078 -0.3654 -0.8147  0.3723
   54MOL    C8720333   3.033   7.323   8.109  0.0763  0.1053  0.3770
   54MOL    C8820334   3.055   7.454   8.073  0.4543 -1.1568  0.2000
   54MOL    H8920335   3.018   8.146   8.116  1.0197  0.2991  1.6243
   54MOL    H9020336   3.130   7.936   8.020 -1.7315  0.1740 -2.2325
   54MOL    H9120337   3.024   7.794   0.107  2.2443  1.7900  2.1257
   54MOL    H9220338   3.187   7.837   0.061 -0.6051 -1.3484  2.7379
   54MOL    H9320339   3.096   7.601   0.219  1.9198  0.8126 -1.1274
   54MOL    H9420340   3.014   7.382   0.275  0.6326 -2.7365 -0.1992
   54MOL    H9520341   3.003   7.200   0.113 -0.1407 -0.3846  1.7469
   54MOL    H9620342   3.029   7.239   8.041  1.8651  2.3356 -2.6409
   54MOL    C9720343   3.053   7.484   7.931  0.4138 -0.1729 -0.1633
   54MOL    C9820344   3.174   7.495   7.841  0.3244  0.1613  0.6511
   54MOL    O9920345   3.097   7.373   7.853  0.8992  0.4774 -0.4584
   54MOL   C10020346   3.311   7.483   7.901 -0.2104  0.0287 -0.0932
   54MOL   O10120347   3.406   7.508   7.799  0.6562  0.5319 -0.0521
   54MOL   C10220348   3.535   7.537   7.845  0.5724  0.1162  0.0936
   54MOL   C10320349   3.587   7.512   7.973 -0.6997  0.3312  0.1283
   54MOL   C10420350   3.720   7.542   8.014 -0.5975  0.9850 -0.3739
   54MOL   C10520351   3.805   7.607   7.922 -0.0513  0.0808 -0.5001
   54MOL   C10620352   3.744   7.643   7.799  0.5654 -0.2214  0.6633
   54MOL   C10720353   3.619   7.604   7.753 -0.5776  0.2607  0.0265
   54MOL   H10820354   2.962   7.526   7.889  1.6243  1.5038 -1.2094
   54MOL   H10920355   3.159   7.543   7.745 -0.2464 -0.1301  0.5904
   54MOL   H11020356   3.320   7.384   7.948  0.7587  1.0763  2.0009
   54MOL   H11120357   3.324   7.561   7.975  1.4821 -0.4884  0.1594
   54MOL   H11220358   3.526   7.461   8.047 -0.6521 -1.8808 -1.3015
   54MOL   H11320359   3.749   7.485   8.101  1.0169 -0.9345 -2.1193
   54MOL   H11420360   3.907   7.631   7.947 -0.6418  0.3946  1.7741
   54MOL   H11520361   3.806   7.686   7.722 -0.4160 -1.7915 -1.0276
   54MOL   C11620362   3.562   7.631   7.618  0.2180 -0.2994 -0.0024
   54MOL   C11720363   3.474   7.746   7.579  0.2265 -0.6352  0.1406
   54MOL   O11820364   3.617   7.750   7.558 -0.8791 -0.2520 -0.2967
   54MOL   C11920365   3.416   7.853   7.663 -0.3278  0.3240  0.0691
   54MOL   O12020366   3.442   7.854   7.803 -0.3409 -0.8468  0.0063
   54MOL   C12120367   3.389   7.960   7.880  0.2960  0.5124 -0.1457
   54MOL   C12220368   3.308   8.061   7.829  0.8844  0.1265  0.2342
   54MOL   C12320369   3.275   0.006   7.901  0.3737  0.1690  0.5137
   54MOL   C12420370   3.321   0.013   8.034 -0.2114  0.6118 -0.0434
   54MOL   C12520371   3.401   8.084   8.087 -0.8986 -0.4222 -0.1916
   54MOL   C12620372   3.441   7.971   8.015 -0.2803 -0.1509  0.1680
   54MOL   H12720373   3.573   7.542   7.556 -0.1292  0.4504 -1.1419
   54MOL   H12820374   3.423   7.744   7.483 -1.7815  0.4415  1.1641
   54MOL   H12920375   3.308   7.842   7.663 -0.1956 -1.1207  1.2325
   54MOL   H13020376   3.440   7.942   7.604 -1.7478  0.1132 -0.8360
   54MOL   H13120377   3.268   8.055   7.729 -2.3174 -0.3706  1.4824
   54MOL   H13220378   3.212   0.083   7.860  0.2818 -0.3245 -0.2654
   54MOL   H13320379   3.267   0.091   8.085 -0.8108 -0.7183  1.3870
   54MOL   H13420380   3.426   8.094   0.022 -0.7069 -2.2411 -0.0399
   54MOL   C13520381   3.521   7.858   8.070  0.1767 -0.2308 -0.6688
   54MOL   C13620382   3.664   7.873   8.111  0.3668  0.6827  0.6876
   54MOL   O13720383   3.556   7.883   0.034  0.3584 -0.2347  0.3179
   54MOL   C13820384   3.744   8.006   8.078  0.8167  0.4631 -0.8968
   54MOL   O13920385   3.852   8.033   0.005  0.7247  0.4856  0.1317
   54MOL   C14020386   3.946   7.938   0.024 -0.2658  0.1095 -0.1132
   54MOL   C14120387   3.995   7.851   8.093 -0.9862 -1.1916  0.6303
   54MOL   C14220388   4.097   7.757   8.114  0.3355  0.6788 -0.3240
   54MOL   C14320389   4.157   7.752   0.069 -0.6219 -0.6694 -0.0276
   54MOL   C14420390   4.114   7.838   0.170  0.5683 -0.3095  0.2262
   54MOL   C14520391   4.005   7.926   0.148  0.4286 -0.1861 -0.2119
   54MOL   H14620392   3.489   7.756   8.050 -1.0533 -0.3406  1.7605
   54MOL   H14720393   3.726   7.788   8.138 -1.8837 -1.1899  0.0691
   54MOL   H14820394   3.671   8.087   8.080 -0.9894 -1.1304 -1.5984
   54MOL   H14920395   3.771   8.012   7.973 -0.4853 -2.5088 -1.4603
   54MOL   H15020396   3.954   7.858   7.994  0.5681  0.7490  0.0844
   54MOL   H15120397   4.126   7.692   8.033 -1.5812 -0.9085  0.2396
   54MOL   H15220398   4.244   7.691   0.086  0.8108  1.3442  0.1086
   54MOL   H15320399   4.155   7.837   0.270  1.2840  0.7563 -0.0429
   54MOL   C15420400   3.953   8.015   0.257  0.5209 -0.2526 -0.2124
   54MOL   C15520401   3.858   7.969   0.364 -0.8264 -1.1087 -0.4807
   54MOL   O15620402   4.002   7.985   0.388  0.1206  0.5522 -0.2611
   54MOL   C15720403   3.804   7.831   0.374  0.3559 -0.3682  0.3109
   54MOL   O15820404   3.751   7.806   0.507 -0.1779  0.0330  0.1560
   54MOL   C15920405   3.830   7.777   0.613 -1.0153  0.4577  0.4829
   54MOL   C16020406   3.974   7.777   0.613  0.0468  0.2545 -0.0629
   54MOL   C16120407   4.044   7.744   0.728  0.5809  0.3448  0.0037
   54MOL   C16220408   3.974   7.733   0.852 -0.4150  0.0863 -0.0663
   54MOL   C16320409   3.836   7.733   0.853 -0.2937 -0.3403  0.3429
   54MOL   C16420410   3.767   7.749   0.733 -0.2647 -0.0670 -0.4922
   54MOL   H16520411   3.966   8.120   0.231  0.0414  0.1282  1.0691
   54MOL   H16620412   3.805   8.049   0.415 -0.0987  0.5546 -2.3168
   54MOL   H16720413   3.888   7.764   0.356  0.7006 -0.1451  1.0428
   54MOL   H16820414   3.730   7.829   0.294 -0.4075  2.2929  0.8856
   54MOL   H16920415   4.031   7.778   0.521 -0.8944  0.0859 -0.6539
   54MOL   H17020416   4.151   7.735   0.721  0.6881  0.5815  1.3096
   54MOL   H17120417   4.020   7.717   0.948  0.2125  0.1886 -0.3457
   54MOL   H17220418   3.781   7.729   0.946  1.0676 -1.6382  1.1289
   54MOL   C17320419   3.621   7.755   0.731  0.2403 -0.0147  0.0222
   54MOL   C17420420   3.541   7.634   0.690  0.2744 -0.1511  0.2392
   54MOL   O17520421   3.570   7.667   0.828 -0.0245  0.3361  0.3745
   54MOL   C17620422   3.602   7.516   0.634 -0.3764  0.6894 -0.3353
   54MOL   O17720423   3.502   7.420   0.589  0.0983 -0.4812  0.3445
   54MOL   C17820424   3.454   7.448   0.455  0.4575 -0.4112  0.0884
   54MOL   C17920425   3.463   7.575   0.394 -0.4789 -0.9637 -0.2617
   54MOL   C18020426   3.424   7.598   0.261 -0.5411  0.0623  0.0102
   54MOL   C18120427   3.375   7.483   0.195  0.5923 -0.3369 -0.1355
   54MOL   C18220428   3.349   7.359   0.256 -0.3713  0.6355  0.1278
   54MOL   C18320429   3.382   7.343   0.392  0.0721  0.6994  0.3948
   54MOL   H18420430   3.588   7.858   0.748 -1.5695 -0.8744  1.9598
   54MOL   H18520431   3.439   7.655   0.661  0.6162 -0.6638 -1.3633
   54MOL   H18620432   3.664   7.463   0.707 -2.8173 -1.2294  0.4324
   54MOL   H18720433   3.678   7.541   0.560  0.4632  3.3216  1.3364
   54MOL   H18820434   3.517   7.659   0.436 -1.6888 -0.8799  1.1837
   54MOL   H18920435   3.452   7.693   0.218  0.4742  0.7029  2.0207
   54MOL   H19020436   3.348   7.481   0.091 -0.6772  0.3311  0.1656
   54MOL   H19120437   3.302   7.273   0.210 -1.3744 -0.0556  2.3375
   54MOL   C19220438   3.374   7.212   0.461 -0.2994  0.6812  1.3906
   54MOL   C19320439   3.280   7.168   0.562 -0.3869  0.4043 -0.3922
   54MOL   O19420440   3.257   7.129   0.426  0.3978  0.2767 -0.1594
   54MOL   C19520441   3.175   7.253   0.617 -0.2792  0.1663  0.7730
   54MOL   O19620442   3.062   7.187   0.650  0.0341 -0.8411 -0.9570
   54MOL   C19720443   3.055   7.116   0.767  0.2128  1.1944 -0.6750
   54MOL   C19820444   3.166   7.105   0.851  0.5266  0.1203 -0.0566
   54MOL   C19920445   3.156   7.028   0.970 -0.0558 -0.8002  0.8879
   54MOL   C20020446   3.041   6.967   1.007  0.4098 -0.0399  0.1909
   54MOL   C20120447   2.927   6.970   0.922  0.3076 -0.0970  0.5494
   54MOL   C20220448   2.937   7.040   0.799  0.4737  0.1132  0.3801
   54MOL   H20320449   3.472   7.166   0.456 -0.8833 -0.3686 -0.9081
   54MOL   H20420450   3.339   7.104   0.627  0.0436 -1.2696 -2.4135
   54MOL   H20520451   3.153   7.336   0.550 -0.5899 -0.1637  0.4650
   54MOL   H20620452   3.209   7.307   0.705 -1.8815 -0.1825  1.6437
   54MOL   H20720453   3.256   7.163   0.834  0.2055  0.3855 -0.8805
   54MOL   H20820454   3.243   7.017   1.033  0.1535 -0.9169  0.5802
   54MOL   H20920455   3.039   6.918   1.103  0.4953  2.2375  1.3889
   54MOL   H21020456   2.829   6.930   0.942  1.0999 -1.2196  2.2623
   54MOL   C21120457   2.827   7.031   0.692 -0.6185 -0.4883 -0.0544
   54MOL   C21220458   2.856   6.941   0.573  0.5324 -0.0471  0.5355
   54MOL   O21320459   2.765   6.902   0.677 -0.4351  0.0608 -0.2053
   54MOL   C21420460   2.995   6.877   0.555  0.3029 -0.4744  0.6594
   54MOL   O21520461   2.989   6.755   0.483  0.3192  0.9498 -0.2539
   54MOL   C21620462   2.988   6.762   0.348  0.3625 -0.3318 -0.1006
   54MOL   C21720463   3.027   6.879   0.276  0.1093  0.0412  0.6358
   54MOL   C21820464   3.017   6.870   0.135 -0.1847 -0.1144 -0.5359
   54MOL   C21920465   2.982   6.748   0.068  0.4471  0.5622  0.1044
   54MOL   C22020466   2.951   6.635   0.143 -0.4365  0.6005  0.5037
   54MOL   C22120467   2.952   6.643   0.283  0.0155  0.1518  0.5904
   54MOL   H22220468   2.752   7.109   0.700 -0.3515 -0.0616 -1.6433
   54MOL   H22320469   2.804   6.965   0.480  1.0560  1.2956  0.5761
   54MOL   H22420470   3.029   6.844   0.653  0.1815 -0.1434  0.8124
   54MOL   H22520471   3.076   6.946   0.532  1.5660 -1.7277  1.2870
   54MOL   H22620472   3.061   6.973   0.318 -2.7797  1.2663  0.3889
   54MOL   H22720473   3.039   6.955   0.072  1.0884  1.2814  1.7186
   54MOL   H22820474   2.979   6.740   8.130  2.4658 -2.3649  0.2070
   54MOL   H22920475   2.929   6.542   0.092  0.6118  0.4754  0.2682
   54MOL   C23020476   2.919   6.516   0.358  0.0426  0.1745  0.3684
   54MOL   C23120477   2.789   6.485   0.424 -0.2298  0.4975  0.5984
   54MOL   O23220478   2.825   6.435   0.294  0.3308  0.6006  0.0152
   54MOL   C23320479   2.684   6.597   0.437 -0.1060 -0.2788  0.0003
   54MOL   O23420480   2.553   6.557   0.394 -0.1611  0.1743  0.0032
   54MOL   C23520481   2.439   6.630   0.442 -1.1504  0.3686  0.3346
   54MOL   C23620482   2.454   6.768   0.479  0.0505  0.0125  0.0480
   54MOL   C23720483   2.347   6.839   0.519  0.2050 -0.2880 -0.0996
   54MOL   C23820484   2.220   6.783   0.528 -0.1534 -0.1347 -0.2024
   54MOL   C23920485   2.204   6.649   0.496  0.1349 -0.5764 -0.0604
   54MOL   C24020486   2.309   6.571   0.445  0.1756 -0.3003 -0.0967
   54MOL   H24120487   3.004   6.453   0.382  1.5408  2.6037  1.7285
   54MOL   H24220488   2.782   6.415   0.507 -1.8798 -0.7386 -0.5412
   54MOL   H24320489   2.722   6.672   0.368 -1.0515 -0.9215 -1.2523
   54MOL   H24420490   2.683   6.642   0.536  0.5492  0.7642 -0.4680
   54MOL   H24520491   2.547   6.821   0.486 -0.0378  0.7336 -3.3616
   54MOL   H24620492   2.364   6.944   0.539  4.9918 -1.4853  3.2814
   54MOL   H24720493   2.138   6.844   0.561 -1.2336 -1.3205 -0.6744
   54MOL   H24820494   2.105   6.607   0.511  0.0989  0.0249  1.5040
   54MOL   C24920495   2.284   6.425   0.407  0.5825  0.4405  0.3037
   54MOL   C25020496   2.326   6.304   0.491 -0.4047 -0.3739  0.1243
   54MOL   O25120497   2.193   6.358   0.503 -0.0079  0.1312  0.3620
   54MOL   C25220498   2.410   6.321   0.618  0.2235 -0.3326 -0.2545
   54MOL   O25320499   2.468   6.200   0.664 -0.8365  0.1372 -0.3200
   54MOL   C25420500   2.571   6.132   0.603 -0.0963 -0.5365 -0.0893
   54MOL   C25520501   2.627   6.179   0.481  0.0026  0.3487 -0.3184
   54MOL   C25620502   2.731   6.107   0.413  0.7486 -0.4863 -0.0132
   54MOL   C25720503   2.781   5.995   0.479  0.5962 -0.3514 -0.3539
   54MOL   C25820504   2.738   5.952   0.603  0.2055  0.1630  1.0479
   54MOL   C25920505   2.625   6.014   0.658 -0.5985 -0.2184 -0.2031
   54MOL   H26020506   2.272   6.410   0.300 -1.8268 -0.1027  0.6166
   54MOL   H26120507   2.334   6.207   0.442  2.0052 -0.0633 -0.1297
   54MOL   H26220508   2.343   6.340   0.702 -0.0075 -1.1564 -0.2514
   54MOL   H26320509   2.476   6.407   0.605 -0.9560  0.2036 -2.9553
   54MOL   H26420510   2.586   6.267   0.434  0.3251  0.7263  0.0948
   54MOL   H26520511   2.766   6.137   0.315  0.0611  0.6307  0.0758
   54MOL   H26620512   2.861   5.942   0.430 -1.3984 -3.2471 -0.5988
   54MOL   H26720513   2.793   5.867   0.642  0.9895 -0.4713 -1.3107
   54MOL   C26820514   2.571   5.974   0.791  0.0718 -0.3457  0.3560
   54MOL   C26920515   2.435   5.925   0.820 -1.1567  0.2523  0.6885
   54MOL   O27020516   2.546   5.836   0.801  0.2895  0.1713  0.3465
   54MOL   C27120517   2.331   5.916   0.715 -0.6336  0.2515 -0.4697
   54MOL   O27220518   2.217   5.993   0.745 -0.4694 -0.3730  0.4904
   54MOL   C27320519   2.127   5.961   0.849  0.2415 -0.1209 -0.4100
   54MOL   C27420520   2.051   5.840   0.840 -0.6752  0.0415  0.1106
   54MOL   C27520521   1.958   5.807   0.938  0.3227  0.4434  0.0496
   54MOL   C27620522   1.930   5.901   1.040  0.3006 -0.2159  0.0111
   54MOL   C27720523   1.987   6.028   1.037  0.6290 -0.4753 -0.3718
   54MOL   C27820524   2.083   6.059   0.940 -0.1628 -0.0180  0.1919
   54MOL   H27920525   2.632   6.010   0.873 -1.7248  3.4154  0.1508
   54MOL   H28020526   2.401   5.928   0.923 -1.5804 -1.2057  0.6046
   54MOL   H28120527   2.294   5.814   0.718 -1.0637  0.4336  0.7682
   54MOL   H28220528   2.357   5.938   0.611 -1.5474 -1.1120 -0.9905
   54MOL   H28320529   2.059   5.774   0.755 -0.2193 -0.5829  0.6384
   54MOL   H28420530   1.899   5.718   0.918  0.3056  0.4366  0.1277
   54MOL   H28520531   1.857   5.876   1.116 -0.3593  3.0781  0.5256
   54MOL   H28620532   1.948   6.105   1.103  0.9241 -1.9720  1.5996
   54MOL   C28720533   2.147   6.192   0.929  0.1134 -0.6862 -0.4542
   54MOL   C28820534   2.078   6.314   0.872  0.8403  0.5228  0.0559
   54MOL   O28920535   2.088   6.289   1.017 -0.6685 -0.0657  0.3618
   54MOL   C29020536   1.939   6.293   0.809 -0.0703  0.5310 -0.0174
   54MOL   O29120537   1.864   6.410   0.792  0.6824  0.1826 -0.4885
   54MOL   C29220538   1.777   6.456   0.896  0.4612  0.6506  0.3453
   54MOL   C29320539   1.779   6.398   1.023 -1.0028  0.6307  0.7803
   54MOL   C29420540   1.681   6.440   1.116 -0.2470  0.2001  0.2625
   54MOL   C29520541   1.580   6.525   1.078  0.4374  0.8261 -0.3451
   54MOL   C29620542   1.585   6.585   0.956  0.5353 -0.8453  0.5429
   54MOL   C29720543   1.686   6.558   0.865 -0.1120 -0.9759 -0.3181
   54MOL   H29820544   2.255   6.188   0.943  0.3381  2.0409 -1.0791
   54MOL   H29920545   2.139   6.393   0.830 -0.1868  1.1004 -0.3560
   54MOL   H30020546   1.886   6.209   0.853  0.9314  0.2187  0.6303
   54MOL   H30120547   1.967   6.271   0.706  1.3640  0.6986  0.3257
   54MOL   H30220548   1.848   6.318   1.049 -2.6315 -1.1103 -0.2061
   54MOL   H30320549   1.672   6.412   1.220  0.3642 -0.2889  0.1881
   54MOL   H30420550   1.505   6.541   1.154  2.0208  0.1107  1.4050
   54MOL   H30520551   1.504   6.643   0.914  1.2594 -0.4390 -0.3085
   54MOL   C30620552   1.676   6.627   0.730 -0.7850  0.5884  0.4972
   54MOL   C30720553   1.655   6.551   0.597  0.0271 -0.4459 -0.0133
   54MOL   O30820554   1.547   6.591   0.677 -0.1282  0.5128  0.2364
   54MOL   C30920555   1.670   6.398   0.592 -0.3376 -0.2654 -0.4582
   54MOL   O31020556   1.566   6.353   0.508 -0.3047  0.0948 -0.1956
   54MOL   C31120557   1.579   6.373   0.373 -0.6065 -0.3041 -0.1881
   54MOL   C31220558   1.709   6.391   0.313 -0.0329  0.0070  0.2856
   54MOL   C31320559   1.724   6.410   0.173  0.5851  0.4385  0.1234
   54MOL   C31420560   1.608   6.407   0.090  0.4449 -0.3617  0.0559
   54MOL   C31520561   1.486   6.383   0.153  0.0227 -0.0296  0.0550
   54MOL   C31620562   1.469   6.366   0.289  0.9590  0.3282 -0.2542
   54MOL   H31720563   1.712   6.729   0.724  2.1011 -0.3391  1.2625
   54MOL   H31820564   1.682   6.607   0.508  0.3125  1.0243  0.9676
   54MOL   H31920565   1.654   6.356   0.691 -1.2630  0.2387 -0.3830
   54MOL   H32020566   1.772   6.375   0.560  0.1816  1.8098 -0.3928
   54MOL   H32120567   1.798   6.393   0.374 -0.4059  1.4306  0.7868
   54MOL   H32220568   1.823   6.404   0.130 -0.2632 -1.4552 -1.6664
   54MOL   H32320569   1.615   6.421   8.153 -0.4213 -2.6139 -0.3281
   54MOL   H32420570   1.399   6.380   0.090  0.8092 -0.5960 -1.0142
   54MOL   C32520571   1.333   6.332   0.335 -0.5358  0.5487  0.3008
   54MOL   C32620572   1.238   6.435   0.404  0.1343 -0.2066  0.0687
   54MOL   O32720573   1.233   6.403   0.265  0.7401  0.0843  0.4116
   54MOL   C32820574   1.276   6.572   0.437  0.4169 -0.3002 -0.1001
   54MOL   O32920575   1.164   6.660   0.451 -0.0716  0.1886 -0.2329
   54MOL   C33020576   1.113   6.727   0.344 -0.3311  0.6364  1.1143
   54MOL   C33120577   1.162   6.705   0.213 -0.1088 -0.7663  0.4256
   54MOL   C33220578   1.118   6.779   0.104 -0.3643 -0.2106 -0.3728
   54MOL   C33320579   1.009   6.871   0.128  0.0168  0.5234 -0.6480
   54MOL   C33420580   0.954   6.888   0.252 -0.0145  0.0175  0.3880
   54MOL   C33520581   1.017   6.828   0.368 -0.7001  0.5889  0.6587
   54MOL   H33620582   1.314   6.228   0.360  0.9147  0.3591  0.6957
   54MOL   H33720583   1.149   6.410   0.461  0.0028  1.7035  0.7471
   54MOL   H33820584   1.360   6.608   0.378  0.8591  1.1477  1.3652
   54MOL   H33920585   1.314   6.566   0.539 -0.8685 -1.4326  0.3288
   54MOL   H34020586   1.237   6.632   0.187 -0.8474 -0.7522 -1.8234
   54MOL   H34120587   1.159   6.745   0.010  0.4398  0.7102 -0.3575
   54MOL   H34220588   0.970   6.921   0.041  0.5585  0.1518 -1.1074
   54MOL   H34320589   0.870   6.955   0.259  0.0449  0.2332 -0.9284
   54MOL   C34420590   0.969   6.882   0.505 -0.1936  0.4392 -0.2987
   54MOL   C34520591   1.057   6.942   0.615 -0.3427 -0.3140 -0.3560
   54MOL   O34620592   1.005   7.022   0.512 -0.4648  0.0543  0.5216
   54MOL   C34720593   1.210   6.924   0.619  0.0375  0.0841  0.2380
   54MOL   O34820594   1.275   7.005   0.713 -0.1662  0.3808  0.2150
   54MOL   C34920595   1.420   7.000   0.725  0.6695 -0.0399 -0.0153
   54MOL   C35020596   1.500   6.975   0.621  0.0945 -0.9117  0.0986
   54MOL   C35120597   1.640   6.971   0.629  0.0783 -0.0088 -0.8073
   54MOL   C35220598   1.701   7.001   0.752  0.3859  0.3858  0.3765
   54MOL   C35320599   1.615   7.029   0.861  0.2086  0.4331 -0.2141
   54MOL   C35420600   1.477   7.032   0.845 -0.5957 -0.3552  0.5426
   54MOL   H35520601   0.867   6.854   0.529  0.5727 -0.9965  1.3518
   54MOL   H35620602   1.008   6.967   0.709 -1.0093  0.6481 -0.9488
   54MOL   H35720603   1.239   6.949   0.517 -2.0885  1.7198 -0.0031
   54MOL   H35820604   1.230   6.820   0.647  1.2137  1.0580  3.2523
   54MOL   H35920605   1.457   6.965   0.522 -0.6815 -0.3568  0.3743
   54MOL   H36020606   1.701   6.963   0.541 -2.4516 -1.0309 -2.5343
   54MOL   H36120607   1.808   7.000   0.760  0.5575  1.0476 -1.6078
   54MOL   H36220608   1.666   7.047   0.954 -0.3371 -0.0615  0.1774
   54MOL   C36320609   1.397   7.089   0.960  0.4072 -0.5199 -0.1230
   54MOL   C36420610   1.395   7.040   1.102  0.6014  0.7529  0.6902
   54MOL   O36520611   1.474   7.150   1.056 -0.7388  0.2555  0.1373
   54MOL   C36620612   1.474   6.901   1.127  0.0688 -0.0495  0.4931
   54MOL   O36720613   1.530   6.926   1.250 -0.4139 -0.7127 -0.1740
   54MOL   C36820614   1.663   6.917   1.268  0.4364  0.6228  0.2766
   54MOL   C36920615   1.719   6.981   1.375 -0.3034 -0.3893 -0.8580
   54MOL   C37020616   1.860   6.986   1.398  0.4116  0.0615 -0.2126
   54MOL   C37120617   1.937   6.919   1.307 -0.8312 -0.2078  0.1496
   54MOL   C37220618   1.886   6.840   1.202  0.0636 -1.1027  0.1970
   54MOL   C37320619   1.747   6.834   1.190  0.0170  0.0652  0.2220
   54MOL   H37420620   1.313   7.148   0.922  0.1166 -0.6023  0.3857
   54MOL   H37520621   1.318   7.069   1.173 -0.5951  0.9521 -0.6627
   54MOL   H37620622   1.552   6.891   1.051  1.7330 -0.3161  2.2212
   54MOL   H37720623   1.403   6.819   1.140 -1.5400  1.1185 -0.6383
   54MOL   H37820624   1.656   7.045   1.435 -0.7380 -2.0292  0.4907
   54MOL   H37920625   1.898   7.046   1.479  2.8314  2.0527 -2.7086
   54MOL   H38020626   2.043   6.939   1.303 -1.4176  3.6110  1.1885
   54MOL   H38120627   1.944   6.783   1.132  1.3933  1.1357 -0.5776
   54MOL   H38220628   1.700   6.771   1.114 -2.2020  1.4879  0.3724
   55MOL     C120629   7.945   0.231   2.681 -0.5959  0.3661  0.1705
   55MOL     C220630   8.068   0.162   2.628 -0.1764 -0.6480  0.0900
   55MOL     O320631   7.954   0.083   2.675  0.3306  0.2232  0.0525
   55MOL     C420632   0.018   0.171   2.717 -0.0117 -0.7327 -0.2389
   55MOL     O520633   0.139   0.119   2.664 -0.2255 -0.2335 -0.3128
   55MOL     C620634   0.148   8.167   2.597 -0.7048  0.3034  0.3220
   55MOL     C720635   0.059   8.054   2.618 -0.4952  0.6969 -0.1254
   55MOL     C820636   0.084   7.930   2.557 -0.7028 -0.4413  0.3464
   55MOL     C920637   0.191   7.924   2.459 -0.4865 -0.3415  0.2959
   55MOL    C1020638   0.286   8.026   2.451  0.0062 -0.8810  0.4784
   55MOL    C1120639   0.264   8.149   2.520  1.1886 -0.2084  0.0488
   55MOL    H1220640   7.883   0.285   2.610 -2.6412  0.1421  1.7515
   55MOL    H1320641   8.085   0.183   2.523 -0.0987 -1.6420 -0.0997
   55MOL    H1420642   8.154   0.113   2.803 -1.7261  1.5959  0.7061
   55MOL    H1520643   0.031   0.274   2.749  1.9934 -1.3854  1.2125
   55MOL    H1620644   8.149   8.068   2.689  0.4381  1.4187  0.7962
   55MOL    H1720645   0.016   7.847   2.570  0.0312 -1.1642 -0.3518
   55MOL    H1820646   0.215   7.838   2.397  0.3301  0.6563 -0.7975
   55MOL    H1920647   0.360   7.993   2.379 -1.5821 -1.5507 -0.9126
   55MOL    H2020648   7.947   0.275   2.781 -2.9984 -0.7594  0.7444
   55MOL    C2120649   0.372   0.076   2.524 -0.7207  0.7366 -0.0854
   55MOL    C2220650   0.491   0.067   2.612  0.3051  0.3521 -0.1016
   55MOL    O2320651   0.504   0.038   2.481 -0.3378 -0.2730 -0.5310
   55MOL    C2420652   0.506   8.121   2.705  0.5360  0.0880  0.0869
   55MOL    O2520653   0.549   0.005   2.834 -0.7934 -0.8062  0.2314
   55MOL    C2620654   0.533   8.097   2.948  0.7018  0.5552  0.1228
   55MOL    C2720655   0.515   7.956   2.942  0.1684 -0.2647  0.8195
   55MOL    C2820656   0.499   7.879   3.059 -0.5039 -0.0926  0.0968
   55MOL    C2920657   0.513   7.944   3.182 -0.1852  0.3693  0.2492
   55MOL    C3020658   0.547   8.085   3.188 -0.1671  0.3096 -0.4488
   55MOL    C3120659   0.550   8.157   3.071 -0.0650 -0.1643 -0.8547
   55MOL    H3220660   0.334   0.174   2.495 -0.1682  0.4713 -1.7283
   55MOL    H3320661   0.546   0.157   2.638  0.4518 -0.1885  1.5129
   55MOL    H3420662   0.577   8.048   2.665  0.5052  0.4571 -0.6614
   55MOL    H3520663   0.410   8.071   2.717  0.5099  0.3101  0.8260
   55MOL    H3620664   0.508   7.905   2.848  0.4867  0.4890  0.3855
   55MOL    H3720665   0.489   7.772   3.056 -2.2098  0.0123  1.1833
   55MOL    H3820666   0.523   7.894   3.278  2.2853  0.8919  0.2945
   55MOL    H3920667   0.554   8.136   3.283  0.2767  1.2283 -0.9606
   55MOL    C4020668   0.568   0.139   3.085 -0.0317  0.1570 -0.2135
   55MOL    C4120669   0.460   0.232   3.047 -0.1943 -0.1665  0.4652
   55MOL    O4220670   0.468   0.185   3.179 -0.3948 -0.1841 -0.1011
   55MOL    C4320671   0.331   0.177   2.978 -0.1785 -0.2988 -0.2644
   55MOL    O4420672   0.210   0.255   3.021 -0.1195 -0.3417  0.3834
   55MOL    C4520673   0.216   0.392   3.005 -0.1837 -0.3173  0.3442
   55MOL    C4620674   0.291   0.455   2.905 -0.2875  0.5655 -0.7627
   55MOL    C4720675   0.299   0.597   2.900 -0.2628 -0.0418 -0.6911
   55MOL    C4820676   0.221   0.674   2.994  0.2192 -0.0923  0.1170
   55MOL    C4920677   0.143   0.611   3.091  0.1023  0.2900  1.3440
   55MOL    C5020678   0.142   0.470   3.101  0.1838 -0.3425  0.0909
   55MOL    H5120679   0.663   0.186   3.109 -0.7337  0.9507  1.0947
   55MOL    H5220680   0.487   0.337   3.045 -0.5525 -0.0326  2.0497
   55MOL    H5320681   0.312   0.072   3.000 -0.1196 -0.2202  0.1679
   55MOL    H5420682   0.348   0.180   2.870  2.2754 -0.8949  0.0698
   55MOL    H5520683   0.329   0.393   2.825 -0.2093  1.1979 -1.2181
   55MOL    H5620684   0.328   0.644   2.807 -0.3073  0.4435 -0.4654
   55MOL    H5720685   0.207   0.781   2.980 -1.2894 -0.2860  0.1092
   55MOL    H5820686   0.085   0.670   3.160  0.4496  0.2382  1.6838
   55MOL    C5920687   0.045   0.413   3.191  0.0499 -0.4070 -0.4936
   55MOL    C6020688   0.064   0.355   3.329 -0.4509  0.0143  0.3116
   55MOL    O6120689   0.032   0.493   3.319 -0.3881  0.4745  0.0166
   55MOL    C6220690   0.208   0.305   3.356 -0.1108 -0.2900  0.4345
   55MOL    O6320691   0.213   0.266   3.495  0.0933 -0.1123  0.5549
   55MOL    C6420692   0.257   0.142   3.516  0.1301 -0.5345 -0.4494
   55MOL    C6520693   0.153   0.048   3.531 -0.1122  0.8709  0.5150
   55MOL    C6620694   0.179   8.085   3.538 -0.5879 -0.4115  0.1823
   55MOL    C6720695   0.319   8.044   3.529 -0.1236  0.9370  0.6449
   55MOL    C6820696   0.425   8.137   3.514  0.1143 -0.1057  0.5233
   55MOL    C6920697   0.394   0.106   3.501 -0.0888  0.4896 -0.1359
   55MOL    H7020698   8.119   0.390   3.145  0.1000 -0.6326 -0.4847
   55MOL    H7120699   8.149   0.302   3.373 -1.0026  0.8223  0.2329
   55MOL    H7220700   0.274   0.387   3.327  0.4712 -1.7371 -2.5230
   55MOL    H7320701   0.236   0.232   3.280 -2.2499  0.5176 -1.1728
   55MOL    H7420702   0.055   0.095   3.527 -1.1140 -0.7151  4.1444
   55MOL    H7520703   0.092   8.021   3.545 -0.4792 -0.8328 -1.9448
   55MOL    H7620704   0.355   7.942   3.528 -0.7608  0.6681  2.4116
   55MOL    H7720705   0.524   8.096   3.502  0.0849  0.2698 -1.1750
   55MOL    C7820706   0.505   0.211   3.491 -0.4199  0.3104 -0.3922
   55MOL    C7920707   0.554   0.299   3.599  0.3747  0.1122  0.4177
   55MOL    O8020708   0.620   0.172   3.572 -0.1321  0.6795 -0.5060
   55MOL    C8120709   0.490   0.306   3.738  0.1937 -0.0848  0.5283
   55MOL    O8220710   0.569   0.390   3.822 -0.5080 -0.5463  0.1107
   55MOL    C8320711   0.538   0.421   3.951 -1.0005 -0.1089  0.0845
   55MOL    C8420712   0.499   0.320   4.044  0.6031 -0.1117  0.4990
   55MOL    C8520713   0.473   0.359   4.176 -0.4285 -0.0126 -0.2672
   55MOL    C8620714   0.502   0.491   4.219 -0.3115  1.0635  0.6983
   55MOL    C8720715   0.543   0.590   4.124  0.8061  0.5995 -0.0048
   55MOL    C8820716   0.553   0.559   3.990  0.2632 -0.0695  0.3046
   55MOL    H8920717   0.543   0.221   3.390 -1.6108 -0.9453 -0.9717
   55MOL    H9020718   0.597   0.390   3.557 -1.0102  0.6067  0.0398
   55MOL    H9120719   0.475   0.207   3.781 -2.0577 -0.9115 -2.0189
   55MOL    H9220720   0.392   0.350   3.722  0.3077  0.0815  0.2829
   55MOL    H9320721   0.494   0.216   4.014  0.3911 -0.3714  1.4280
   55MOL    H9420722   0.446   0.294   4.259 -0.5396  0.6775  0.2444
   55MOL    H9520723   0.478   0.524   4.319  1.7126 -0.3390  1.6854
   55MOL    H9620724   0.551   0.691   4.161 -0.6187  0.6788  0.0914
   55MOL    C9720725   0.594   0.663   3.892 -0.4384  0.0887 -0.0348
   55MOL    C9820726   0.492   0.728   3.802  0.2844 -0.4066  0.6489
   55MOL    O9920727   0.536   0.799   3.917  0.2122  0.3245  0.0381
   55MOL   C10020728   0.345   0.700   3.809  0.0204  0.3135 -0.2008
   55MOL   O10120729   0.272   0.775   3.711  0.0644  0.0783  0.4415
   55MOL   C10220730   0.201   0.895   3.742 -0.5479  0.0815  0.3088
   55MOL   C10320731   0.231   0.972   3.857  0.6873 -0.6542 -0.9680
   55MOL   C10420732   0.151   1.080   3.891 -0.2512 -0.0709 -0.5199
   55MOL   C10520733   0.043   1.115   3.810 -0.4760  0.4709  0.1431
   55MOL   C10620734   0.016   1.040   3.694  0.7502 -0.4487  0.6001
   55MOL   C10720735   0.096   0.930   3.658 -0.7729 -0.2289  0.1642
   55MOL   H10820736   0.701   0.659   3.873 -0.2408 -1.0701  1.1974
   55MOL   H10920737   0.519   0.770   3.705 -1.1998  3.2374  1.7105
   55MOL   H11020738   0.322   0.715   3.914  0.2310  0.1393 -0.1307
   55MOL   H11120739   0.330   0.596   3.779  1.6754  0.0237 -0.0190
   55MOL   H11220740   0.307   0.937   3.925 -1.4366  1.7938  2.8808
   55MOL   H11320741   0.166   1.146   3.975 -1.9642 -1.6941  1.1266
   55MOL   H11420742   8.156   1.206   3.823  1.2659  1.2643  2.5631
   55MOL   H11520743   8.114   1.087   3.628  0.7037 -0.5341  0.5915
   55MOL   C11620744   0.057   0.836   3.547 -0.1114  0.2166 -0.5216
   55MOL   C11720745   8.097   0.776   3.519  0.6395  0.0188  0.0788
   55MOL   O11820746   8.142   0.893   3.447 -0.0215  0.4816 -0.3756
   55MOL   C11920747   7.962   0.796   3.581 -0.3753  0.0860  0.6901
   55MOL   O12020748   7.966   0.848   3.714  0.3534 -0.2667 -0.1331
   55MOL   C12120749   7.841   0.858   3.776  0.2977  0.2288  0.3318
   55MOL   C12220750   7.738   0.946   3.737  0.3549 -0.5648 -0.3171
   55MOL   C12320751   7.611   0.946   3.799 -0.5838  0.7591 -0.8403
   55MOL   C12420752   7.583   0.853   3.901 -0.1060 -0.4618 -0.1401
   55MOL   C12520753   7.679   0.764   3.937 -0.2271 -0.6611 -0.2005
   55MOL   C12620754   7.809   0.765   3.883  0.5857  0.3824  0.7896
   55MOL   H12720755   0.148   0.790   3.510 -0.8668 -1.3757 -0.4475
   55MOL   H12820756   8.106   0.685   3.459  1.2330  0.8067 -1.0433
   55MOL   H12920757   7.912   0.699   3.587 -0.5307  0.0376 -1.1929
   55MOL   H13020758   7.899   0.853   3.513  0.6061  1.4124  0.8874
   55MOL   H13120759   7.757   1.017   3.657  3.2497 -0.4001  0.4629
   55MOL   H13220760   7.537   1.024   3.787  1.0036  2.4096 -0.2166
   55MOL   H13320761   7.483   0.852   3.942 -0.3345 -0.0984 -0.6754
   55MOL   H13420762   7.659   0.696   4.018 -0.0561  2.7104  2.8177
   55MOL   C13520763   7.916   0.667   3.939  0.3173 -0.2326 -0.2859
   55MOL   C13620764   8.021   0.723   4.032 -0.1248 -0.3050  0.8667
   55MOL   O13720765   7.905   0.642   4.080 -0.2279  0.5059 -0.3369
   55MOL   C13820766   8.024   0.870   4.066  0.8128  0.2224 -0.0125
   55MOL   O13920767   8.121   0.896   4.159  0.2935 -0.0635 -0.1323
   55MOL   C14020768   8.090   0.870   4.289 -0.3347  0.2865 -0.4284
   55MOL   C14120769   7.968   0.908   4.358  0.2359  0.5695 -0.4364
   55MOL   C14220770   7.942   0.874   4.495  0.2272 -0.5921 -0.0006
   55MOL   C14320771   8.034   0.801   4.570  0.1213  0.1208 -0.1263
   55MOL   C14420772   8.153   0.759   4.503 -0.2606 -0.3261 -0.0765
   55MOL   C14520773   0.015   0.801   4.369 -0.2817  0.4537  0.5207
   55MOL   H14620774   7.923   0.572   3.887 -1.7334  0.7554 -2.4445
   55MOL   H14720775   8.116   0.671   4.019  0.2102  0.7994 -1.3609
   55MOL   H14820776   7.923   0.902   4.092  0.4910 -0.7544 -0.0051
   55MOL   H14920777   8.057   0.922   3.976  1.8666 -2.6709 -1.3588
   55MOL   H15020778   7.905   0.985   4.315 -1.4553 -0.6936 -0.2505
   55MOL   H15120779   7.846   0.901   4.536 -0.1813 -0.7905 -0.8177
   55MOL   H15220780   8.021   0.777   4.675  1.3368 -2.8156 -0.5841
   55MOL   H15320781   0.058   0.697   4.551 -0.2590  0.2663  0.6855
   55MOL   C15420782   0.149   0.764   4.305 -0.2432  0.2215 -0.6963
   55MOL   C15520783   0.265   0.859   4.267  0.0367  0.4711  0.4492
   55MOL   O15620784   0.256   0.801   4.395 -0.2038 -0.0128  0.3890
   55MOL   C15720785   0.248   1.006   4.261  0.2929 -0.9118 -0.3731
   55MOL   O15820786   0.377   1.052   4.229  0.0322 -0.1877  0.2880
   55MOL   C15920787   0.459   1.120   4.315  0.5108  0.4240 -0.6144
   55MOL   C16020788   0.421   1.166   4.442 -0.0947 -0.0432  0.2111
   55MOL   C16120789   0.519   1.232   4.527 -0.1435  0.4312  1.2486
   55MOL   C16220790   0.640   1.273   4.469 -1.0292  0.6438 -0.8635
   55MOL   C16320791   0.682   1.222   4.343  0.5174 -0.6368  0.1209
   55MOL   C16420792   0.593   1.138   4.268 -0.9669  0.1101  0.0654
   55MOL   H16520793   0.158   0.663   4.266  0.2731 -0.7686  1.9243
   55MOL   H16620794   0.346   0.819   4.206  1.8803  1.4243  2.2106
   55MOL   H16720795   0.219   1.033   4.363  0.6293  0.6022 -0.6775
   55MOL   H16820796   0.176   1.033   4.184  3.1129  4.0632 -1.4226
   55MOL   H16920797   0.323   1.158   4.487  0.1046  4.0558  1.6494
   55MOL   H17020798   0.493   1.259   4.628  0.2562 -1.4922  1.8878
   55MOL   H17120799   0.708   1.331   4.530 -2.1623  0.3798  0.6766
   55MOL   H17220800   0.786   1.233   4.314  1.1979 -2.7227  1.6630
   55MOL   C17320801   0.641   1.066   4.149 -0.0605 -0.1567 -0.7973
   55MOL   C17420802   0.615   1.110   4.008  0.0411  0.1818 -0.3805
   55MOL   O17520803   0.728   1.158   4.082 -0.5355  0.1920  0.3585
   55MOL   C17620804   0.512   1.212   3.971 -0.4791  0.9469  0.5041
   55MOL   O17720805   0.526   1.335   4.044 -0.4957  0.3322  0.2075
   55MOL   C17820806   0.483   1.450   3.972 -0.5275  0.2066  0.1589
   55MOL   C17920807   0.363   1.450   3.897  0.5100  0.1526 -0.0334
   55MOL   C18020808   0.328   1.568   3.825  0.5362 -0.0904  0.3154
   55MOL   C18120809   0.411   1.681   3.829 -0.3144 -0.8324  0.1952
   55MOL   C18220810   0.525   1.678   3.915 -0.5536 -0.1565 -0.7093
   55MOL   C18320811   0.566   1.561   3.979  0.3235 -0.2292 -0.0367
   55MOL   H18420812   0.688   0.969   4.166  1.0193  0.8022  1.8009
   55MOL   H18520813   0.644   1.042   3.928  1.4384 -1.6654  1.6336
   55MOL   H18620814   0.412   1.171   3.984  0.8020 -1.7560  2.2896
   55MOL   H18720815   0.521   1.241   3.866 -2.0894 -0.0099  0.0873
   55MOL   H18820816   0.291   1.370   3.896 -1.1882  1.6283  1.1371
   55MOL   H18920817   0.233   1.566   3.775  0.5385 -2.0658  0.3647
   55MOL   H19020818   0.380   1.778   3.793 -2.0543 -1.3539  0.2274
   55MOL   H19120819   0.586   1.767   3.922 -1.2075  0.1866  0.9475
   55MOL   C19220820   0.686   1.549   4.070 -0.3814 -0.8508  0.2326
   55MOL   C19320821   0.822   1.487   4.030 -0.7945 -0.0392 -0.5936
   55MOL   O19420822   0.793   1.629   4.019  0.0945  1.0036  0.3761
   55MOL   C19520823   0.839   1.409   3.909 -0.9129 -0.0895 -0.3595
   55MOL   O19620824   0.968   1.443   3.858  0.1211  0.5366  0.1679
   55MOL   C19720825   0.990   1.559   3.788 -0.5825 -0.0749  0.0167
   55MOL   C19820826   0.885   1.649   3.744  0.0640  0.4740  0.7255
   55MOL   C19920827   0.918   1.771   3.685 -0.2590  0.0294 -0.6793
   55MOL   C20020828   1.055   1.801   3.663 -0.3198  0.2605  0.7314
   55MOL   C20120829   1.154   1.714   3.698 -0.0172 -0.4498 -0.3566
   55MOL   C20220830   1.124   1.595   3.761 -0.0733 -0.3052 -0.1081
   55MOL   H20320831   0.669   1.591   4.169 -0.2666 -1.0061  0.3175
   55MOL   H20420832   0.895   1.457   4.105 -1.1128 -0.4047 -0.4273
   55MOL   H20520833   0.763   1.400   3.831 -1.4422  3.0787 -0.2856
   55MOL   H20620834   0.846   1.308   3.949 -0.5007  0.5903  1.3048
   55MOL   H20720835   0.779   1.629   3.754 -0.4124  2.2931 -0.5511
   55MOL   H20820836   0.846   1.841   3.646  0.3707 -1.3414 -4.4938
   55MOL   H20920837   1.072   1.892   3.607 -0.6272 -0.7549 -1.0418
   55MOL   H21020838   1.256   1.747   3.689 -0.5461  2.0766  2.2272
   55MOL   C21120839   1.239   1.498   3.798  0.1642 -0.0074  0.4683
   55MOL   C21220840   1.283   1.377   3.727  0.2179 -0.1827 -0.0169
   55MOL   O21320841   1.353   1.503   3.713  0.4620  1.2447  0.5082
   55MOL   C21420842   1.190   1.325   3.607  0.7119 -0.6578  0.3375
   55MOL   O21520843   1.260   1.313   3.487 -0.0748 -0.0508 -0.2386
   55MOL   C21620844   1.228   1.393   3.378 -0.0414 -0.2099  0.3343
   55MOL   C21720845   1.166   1.514   3.383 -0.3085 -0.3992 -0.2954
   55MOL   C21820846   1.128   1.581   3.267  0.4181  0.5199  0.3160
   55MOL   C21920847   1.163   1.532   3.141 -0.2180 -0.4183 -0.1260
   55MOL   C22020848   1.245   1.414   3.133  0.3763  0.5759 -0.1302
   55MOL   C22120849   1.271   1.341   3.252 -0.8283 -0.0964  0.4015
   55MOL   H22220850   1.266   1.505   3.903 -1.2322 -0.6457  0.8793
   55MOL   H22320851   1.336   1.300   3.782  0.6341  1.9033  2.6498
   55MOL   H22420852   1.108   1.397   3.606  0.7462 -0.6192  0.3119
   55MOL   H22520853   1.162   1.224   3.637 -1.5941 -0.7244 -1.7998
   55MOL   H22620854   1.134   1.558   3.476 -1.4269 -2.2013  0.2111
   55MOL   H22720855   1.068   1.671   3.271 -0.8987 -0.1403 -2.9248
   55MOL   H22820856   1.136   1.574   3.046 -0.9020  0.4142  0.4305
   55MOL   H22920857   1.277   1.374   3.038 -1.7430  0.1627 -0.7036
   55MOL   C23020858   1.345   1.211   3.256  0.4370 -0.0101 -0.2095
   55MOL   C23120859   1.288   1.083   3.283 -0.6728  0.4454 -0.4814
   55MOL   O23220860   1.315   1.116   3.151 -0.1639  0.3165  0.3718
   55MOL   C23320861   1.145   1.063   3.318  1.0250 -0.3675  0.2969
   55MOL   O23420862   1.123   0.919   3.301  0.1841 -0.1735 -0.3596
   55MOL   C23520863   1.170   0.832   3.388  0.2558 -0.3873  0.1219
   55MOL   C23620864   1.200   0.867   3.526  0.3054 -0.1388 -0.1976
   55MOL   C23720865   1.257   0.775   3.611 -0.0912 -0.4505 -0.2352
   55MOL   C23820866   1.268   0.643   3.570  0.3829 -0.2210 -0.1943
   55MOL   C23920867   1.245   0.602   3.433  0.0508  0.4539 -0.7518
   55MOL   C24020868   1.199   0.701   3.337 -0.4127 -0.2074 -0.5301
   55MOL   H24120869   1.450   1.222   3.281  0.7347 -1.3753 -0.8089
   55MOL   H24220870   1.358   1.009   3.321  0.3796  1.0567 -1.2219
   55MOL   H24320871   1.085   1.133   3.259  0.6743  1.0994  2.3417
   55MOL   H24420872   1.121   1.093   3.420 -0.6766  1.2667 -0.5378
   55MOL   H24520873   1.179   0.963   3.569 -0.0833 -0.5049  0.4400
   55MOL   H24620874   1.271   0.819   3.709 -1.4363  1.1366 -0.7466
   55MOL   H24720875   1.306   0.570   3.640  0.4327  0.7855  0.8390
   55MOL   H24820876   1.264   0.504   3.391 -1.6637  0.5510 -1.8151
   55MOL   C24920877   1.175   0.675   3.193  0.4874 -0.0218  0.4140
   55MOL   C25020878   1.282   0.692   3.088 -0.7931  0.1582 -0.0702
   55MOL   O25120879   1.244   0.563   3.133  0.0578 -0.0268  0.5018
   55MOL   C25220880   1.419   0.751   3.125 -0.0566 -0.2567 -0.8500
   55MOL   O25320881   1.526   0.691   3.040  0.0413  0.2110 -0.9011
   55MOL   C25420882   1.655   0.738   3.065 -0.4230  0.0077  0.1448
   55MOL   C25520883   1.704   0.802   3.184 -0.0336 -0.6458  0.1474
   55MOL   C25620884   1.840   0.840   3.191 -0.1964 -0.0080 -0.6682
   55MOL   C25720885   1.928   0.823   3.085 -0.1011 -1.1290  0.7735
   55MOL   C25820886   1.878   0.768   2.962 -0.1380 -0.4344  0.7641
   55MOL   C25920887   1.746   0.717   2.954 -0.2178 -0.2386  0.4728
   55MOL   H26020888   1.068   0.690   3.177  0.3917 -0.0548  0.9848
   55MOL   H26120889   1.236   0.720   2.994 -0.9983 -0.3228 -0.1155
   55MOL   H26220890   1.437   0.745   3.233  0.7358  1.3792 -0.8823
   55MOL   H26320891   1.414   0.859   3.111 -0.4292 -0.3409 -1.3499
   55MOL   H26420892   1.637   0.825   3.265 -0.6563 -0.3626 -0.4377
   55MOL   H26520893   1.874   0.880   3.286 -0.0949  1.5914 -1.3730
   55MOL   H26620894   2.025   0.868   3.099 -1.6596  2.5118  0.5485
   55MOL   H26720895   1.943   0.755   2.877 -0.1511 -0.8757  0.8177
   55MOL   C26820896   1.698   0.655   2.821  0.5251 -0.3259  0.1050
   55MOL   C26920897   1.605   0.718   2.716 -0.7362  0.1328 -0.1347
   55MOL   O27020898   1.744   0.716   2.701 -1.0688 -0.0591  0.4341
   55MOL   C27120899   1.533   0.843   2.741  0.3464 -0.5239  0.0575
   55MOL   O27220900   1.513   0.918   2.624  0.3615 -0.4086  0.5213
   55MOL   C27320901   1.454   1.043   2.637  0.3353 -0.0529  0.0966
   55MOL   C27420902   1.384   1.087   2.751  0.4548 -0.0837  0.3953
   55MOL   C27520903   1.312   1.208   2.748 -0.3625  0.2195  0.1456
   55MOL   C27620904   1.315   1.290   2.632  0.4980 -0.3628 -0.2967
   55MOL   C27720905   1.380   1.250   2.516  0.1983 -0.9227 -0.5018
   55MOL   C27820906   1.442   1.126   2.519  0.5884 -0.0606 -0.0005
   55MOL   H27920907   1.709   0.547   2.826 -0.7050 -0.4795 -0.3720
   55MOL   H28020908   1.559   0.649   2.646  0.5236 -2.2070  1.2875
   55MOL   H28120909   1.593   0.906   2.807  0.9866 -0.6652 -0.3933
   55MOL   H28220910   1.435   0.819   2.783 -0.5394  2.8384  0.1218
   55MOL   H28320911   1.381   1.047   2.851  0.1783 -0.4468  0.2406
   55MOL   H28420912   1.257   1.250   2.831 -1.9859  1.1638 -1.3706
   55MOL   H28520913   1.259   1.382   2.626 -0.5506 -0.8884  1.2256
   55MOL   H28620914   1.355   1.307   2.428 -2.0933 -2.2867 -0.7531
   55MOL   C28720915   1.496   1.075   2.387  0.3340 -0.3917 -0.0297
   55MOL   C28820916   1.415   1.030   2.268  0.5312  0.0270 -0.1655
   55MOL   O28920917   1.465   1.167   2.278  0.6283 -0.0245 -0.1753
   55MOL   C29020918   1.266   1.020   2.273  0.3741 -0.4255 -0.4416
   55MOL   O29120919   1.225   0.911   2.351  0.0861 -0.0285 -0.7364
   55MOL   C29220920   1.165   0.803   2.302 -0.2359  0.5150 -0.6883
   55MOL   C29320921   1.102   0.797   2.173 -0.2120  0.2362  0.4837
   55MOL   C29420922   1.058   0.674   2.120 -0.6149  0.1638 -0.3991
   55MOL   C29520923   1.073   0.559   2.198 -0.2982  0.2201 -0.0973
   55MOL   C29620924   1.122   0.560   2.332  0.0423 -0.1529  0.3213
   55MOL   C29720925   1.164   0.688   2.384 -0.9165 -0.8405 -0.5022
   55MOL   H29820926   1.593   1.027   2.390  0.4513 -0.1628 -0.1775
   55MOL   H29920927   1.471   0.967   2.199 -1.7191 -1.1623 -1.0020
   55MOL   H30020928   1.235   1.017   2.168  0.9981 -0.2874 -0.6333
   55MOL   H30120929   1.227   1.113   2.316  1.1900 -0.3262  0.0887
   55MOL   H30220930   1.099   0.882   2.107  2.6650 -0.3853 -0.5035
   55MOL   H30320931   1.010   0.666   2.023 -1.1409 -0.1951 -0.1101
   55MOL   H30420932   1.046   0.457   2.174  1.8284 -0.4040  0.0578
   55MOL   H30520933   1.132   0.472   2.394 -0.6441 -0.1420  0.4579
   55MOL   C30620934   1.222   0.697   2.529 -0.1545  0.0680 -0.3064
   55MOL   C30720935   1.154   0.766   2.652 -0.6265 -0.2525  0.1019
   55MOL   O30820936   1.131   0.630   2.620  0.4557  0.5306 -0.4646
   55MOL   C30920937   1.039   0.868   2.625  0.1571  0.7344 -0.8755
   55MOL   O31020938   1.031   0.959   2.729 -0.1846 -0.2152 -0.2902
   55MOL   C31120939   0.975   0.914   2.846  0.3388 -0.1943  0.2721
   55MOL   C31220940   0.922   0.782   2.866  0.0913 -0.1068 -0.5524
   55MOL   C31320941   0.854   0.752   2.982  0.1353  0.3935  0.1588
   55MOL   C31420942   0.849   0.844   3.089  0.8639 -0.7438 -0.1749
   55MOL   C31520943   0.911   0.970   3.075  0.1384 -0.0304 -0.0556
   55MOL   C31620944   0.973   1.011   2.954  0.2312  0.1557  0.6314
   55MOL   H31720945   1.327   0.670   2.535  0.0249  1.0658  1.0865
   55MOL   H31820946   1.210   0.775   2.745  0.1011  1.5423 -0.4958
   55MOL   H31920947   0.944   0.819   2.606 -0.6514  1.5526  0.9344
   55MOL   H32020948   1.066   0.923   2.535  2.1672 -0.2762 -0.9304
   55MOL   H32120949   0.907   0.704   2.792  2.7503  1.1651 -2.4999
   55MOL   H32220950   0.797   0.660   2.993 -1.2136  1.2093  0.1486
   55MOL   H32320951   0.803   0.829   3.186  1.4611  1.0896  0.4117
   55MOL   H32420952   0.908   1.028   3.167 -1.2774 -0.6966  0.3298
   55MOL   C32520953   1.027   1.148   2.944  0.4405  0.3273  0.4620
   55MOL   C32620954   0.979   1.253   2.839 -0.3811  0.1371  0.1530
   55MOL   O32720955   0.927   1.247   2.973  0.0382  0.4401  0.2880
   55MOL   C32820956   0.876   1.226   2.733  0.1423  0.5077  0.2329
   55MOL   O32920957   0.809   1.341   2.689 -0.2293 -0.2163 -0.4321
   55MOL   C33020958   0.715   1.408   2.766 -0.0002 -0.3475  0.5586
   55MOL   C33120959   0.638   1.347   2.871 -0.9190 -0.2704  0.4312
   55MOL   C33220960   0.552   1.423   2.947  0.1080 -0.4412 -0.0090
   55MOL   C33320961   0.533   1.561   2.930 -0.3945  0.1065  0.2254
   55MOL   C33420962   0.605   1.620   2.819 -0.4290 -0.3263 -0.3145
   55MOL   C33520963   0.691   1.549   2.735  0.1973 -0.3686  0.0866
   55MOL   H33620964   1.114   1.166   3.005 -0.3781 -0.7299  1.9588
   55MOL   H33720965   1.032   1.347   2.826  3.1104 -1.9247 -1.1533
   55MOL   H33820966   0.809   1.150   2.774  0.9457  0.2398  1.0679
   55MOL   H33920967   0.922   1.181   2.645  0.2805 -0.0228  0.5703
   55MOL   H34020968   0.662   1.249   2.909 -2.5019 -0.0519  2.0695
   55MOL   H34120969   0.504   1.364   3.025 -0.0551 -0.7206 -0.3168
   55MOL   H34220970   0.480   1.616   3.005  0.8626  0.6081  0.7602
   55MOL   H34320971   0.590   1.725   2.803  0.1970 -0.5555 -2.5333
   55MOL   C34420972   0.746   1.610   2.611 -0.0471  0.0648  0.1126
   55MOL   C34520973   0.672   1.600   2.483 -0.3568  0.3447  0.1189
   55MOL   O34620974   0.682   1.720   2.555  0.0479 -0.1579 -0.5836
   55MOL   C34720975   0.528   1.550   2.480  0.2376 -0.3478 -0.2382
   55MOL   O34820976   0.498   1.475   2.364 -0.4747 -0.1702  0.3886
   55MOL   C34920977   0.522   1.341   2.367 -1.3900 -0.3413 -0.4981
   55MOL   C35020978   0.566   1.268   2.480  0.7613 -0.1250 -0.5844
   55MOL   C35120979   0.590   1.125   2.468  0.5717  0.2677 -0.8023
   55MOL   C35220980   0.568   1.062   2.342 -0.6901 -0.4485 -0.0703
   55MOL   C35320981   0.519   1.139   2.235 -0.3125  0.5941  0.1467
   55MOL   C35420982   0.497   1.278   2.243  0.0106  0.3028  0.6285
   55MOL   H35520983   0.853   1.626   2.624  0.2349  0.2544 -2.2528
   55MOL   H35620984   0.727   1.583   2.390 -0.9650 -1.1440  0.0180
   55MOL   H35720985   0.456   1.632   2.484  1.8540  1.1901 -1.6805
   55MOL   H35820986   0.499   1.504   2.575 -0.1546 -0.6991 -0.5267
   55MOL   H35920987   0.569   1.318   2.576 -1.3353 -0.0204 -0.5385
   55MOL   H36020988   0.621   1.072   2.557  0.3207  2.4546  0.6519
   55MOL   H36120989   0.586   0.956   2.334  1.6544 -0.1258  0.5318
   55MOL   H36220990   0.490   1.087   2.144 -2.0620  0.0162  1.0043
   55MOL   C36320991   0.452   1.364   2.129  0.2312 -0.2473 -0.3761
   55MOL   C36420992   0.543   1.443   2.044  0.4599  0.3125 -0.6425
   55MOL   O36520993   0.499   1.317   1.999 -0.3804 -0.2490 -0.1454
   55MOL   C36620994   0.691   1.458   2.070  0.4588 -0.1943 -0.1348
   55MOL   O36720995   0.752   1.549   1.986 -0.0442 -0.2506  0.1692
   55MOL   C36820996   0.733   1.683   2.008 -0.2607  0.1099 -0.1950
   55MOL   C36920997   0.682   1.736   2.130  0.2876  0.2856  0.1808
   55MOL   C37020998   0.680   1.877   2.146  0.3584  0.2172  0.5039
   55MOL   C37120999   0.716   1.963   2.042 -0.2540  0.3176  0.3131
   55MOL   C37221000   0.753   1.909   1.918  0.7056 -0.0979  0.1201
   55MOL   C37321001   0.771   1.770   1.902 -1.2039  0.1723  0.2882
   55MOL   H37421002   0.349   1.399   2.135  0.1939 -0.3782 -0.2537
   55MOL   H37521003   0.483   1.513   1.986 -0.9975  1.0391  1.6680
   55MOL   H37621004   0.725   1.357   2.044  0.9393 -0.0239 -0.1776
   55MOL   H37721005   0.716   1.477   2.175  2.3227  1.1880 -0.8070
   55MOL   H37821006   0.657   1.674   2.215  4.0032  0.7363  1.7118
   55MOL   H37921007   0.658   1.930   2.238 -0.5118 -0.5686  0.7554
   55MOL   H38021008   0.703   2.069   2.057 -2.5796 -0.1843  2.0917
   55MOL   H38121009   0.776   1.970   1.832  1.4396  1.0744  1.1279
   55MOL   H38221010   0.794   1.737   1.802  0.7525 -0.0204  0.7915
   56MOL     C121011   4.227   6.221   6.575 -0.7210 -0.4331  0.0140
   56MOL     C221012   4.365   6.199   6.652  0.1418  0.6561  0.3364
   56MOL     O321013   4.283   6.091   6.598 -0.0704 -0.4264  0.1604
   56MOL     C421014   4.370   6.220   6.806  0.5062 -0.1915 -0.5003
   56MOL     O521015   4.459   6.127   6.871 -0.1419  0.0151  0.0403
   56MOL     C621016   4.415   5.996   6.894 -0.0236  0.3993  0.8453
   56MOL     C721017   4.286   5.950   6.860 -0.6539  0.8723  0.2449
   56MOL     C821018   4.250   5.810   6.886  0.2988  0.5395 -0.1267
   56MOL     C921019   4.346   5.720   6.944  0.3810 -0.4711  0.0738
   56MOL    C1021020   4.473   5.772   6.971  0.3131 -0.3360 -0.8379
   56MOL    C1121021   4.509   5.905   6.949 -0.5081  0.3761 -0.2497
   56MOL    H1221022   4.239   6.253   6.472  0.1294 -1.0164 -0.0781
   56MOL    H1321023   4.458   6.230   6.604  0.5947 -1.0617  0.0905
   56MOL    H1421024   4.267   6.232   6.838  0.4314 -0.2472 -0.7189
   56MOL    H1521025   4.411   6.317   6.835  1.8428 -1.0392  0.4866
   56MOL    H1621026   4.210   6.007   6.807  0.3977  0.4094 -1.8347
   56MOL    H1721027   4.147   5.775   6.882  0.5094  0.0596 -2.1038
   56MOL    H1821028   4.316   5.618   6.964 -0.4367 -0.1654  0.4037
   56MOL    H1921029   4.548   5.703   7.008  0.8902  1.1496  0.8328
   56MOL    H2021030   4.149   6.257   6.642 -0.4575 -0.1958  0.1952
   56MOL    C2121031   4.655   5.938   6.971 -0.0166  0.3394  0.4801
   56MOL    C2221032   4.710   6.028   7.080 -0.0621  0.3781 -0.3355
   56MOL    O2321033   4.710   5.886   7.095  0.1999  0.1632  0.1492
   56MOL    C2421034   4.615   6.096   7.172  0.2619 -0.2361  0.3129
   56MOL    O2521035   4.695   6.182   7.260  0.4623  0.2130 -0.0715
   56MOL    C2621036   4.627   6.244   7.364  0.5815  0.5464 -0.0004
   56MOL    C2721037   4.486   6.245   7.384  0.2960 -0.0766  0.6552
   56MOL    C2821038   4.424   6.322   7.487 -0.2020 -0.1067 -0.2639
   56MOL    C2921039   4.507   6.391   7.581  0.1872  0.2105 -0.4025
   56MOL    C3021040   4.645   6.397   7.557  0.0279  0.5185  0.5775
   56MOL    C3121041   4.707   6.320   7.454  0.0199 -0.2584  0.1913
   56MOL    H3221042   4.715   5.918   6.882 -0.1726  3.0566 -0.2794
   56MOL    H3321043   4.811   6.069   7.074 -0.7401  2.5422  2.3823
   56MOL    H3421044   4.562   6.017   7.225 -0.4178 -1.0492 -1.5259
   56MOL    H3521045   4.548   6.154   7.108  0.5791  2.3857  2.2811
   56MOL    H3621046   4.418   6.188   7.323  1.4424  0.3491 -1.0696
   56MOL    H3721047   4.316   6.317   7.495 -0.1666 -3.1500 -1.0289
   56MOL    H3821048   4.457   6.446   7.659 -1.9375  0.2285 -1.7372
   56MOL    H3921049   4.702   6.452   7.631  1.1952  0.1518 -0.0516
   56MOL    C4021050   4.854   6.293   7.445 -0.5478 -0.6198  0.0627
   56MOL    C4121051   4.950   6.365   7.358 -0.1909 -0.0021 -0.0343
   56MOL    O4221052   4.940   6.400   7.497 -0.2078  0.2654  0.0071
   56MOL    C4321053   4.936   6.481   7.265  0.1049  0.6839 -0.2761
   56MOL    O4421054   5.057   6.493   7.188 -0.0411  0.2513  0.0645
   56MOL    C4521055   5.054   6.572   7.070  0.3473 -0.1322 -0.4654
   56MOL    C4621056   4.939   6.653   7.032 -0.6872 -0.5059 -0.5885
   56MOL    C4721057   4.933   6.742   6.921 -0.5446  0.7966  0.1804
   56MOL    C4821058   5.047   6.749   6.839  0.1121 -1.0222  0.8396
   56MOL    C4921059   5.160   6.668   6.875  0.0075 -0.5189 -0.3489
   56MOL    C5021060   5.166   6.584   6.984  0.4871  0.4574 -0.6450
   56MOL    H5121061   4.873   6.193   7.485  0.2777 -0.2564  0.5879
   56MOL    H5221062   5.019   6.286   7.326  0.5912  0.5162  0.3444
   56MOL    H5321063   4.903   6.572   7.316 -0.6149  0.3093 -0.0731
   56MOL    H5421064   4.866   6.453   7.187  0.9208 -2.0291 -0.0620
   56MOL    H5521065   4.846   6.651   7.088 -1.9386  2.8750 -2.3803
   56MOL    H5621066   4.851   6.804   6.890  0.3131  2.1134  0.5056
   56MOL    H5721067   5.054   6.805   6.747  0.4012  0.4585  1.7561
   56MOL    H5821068   5.241   6.677   6.804 -0.5656  1.0035 -0.8336
   56MOL    C5921069   5.284   6.498   7.017  0.2731 -0.2676 -0.1558
   56MOL    C6021070   5.287   6.353   6.986 -0.3294 -0.1449 -0.1578
   56MOL    O6121071   5.343   6.446   6.894  0.0095  0.1536 -0.6404
   56MOL    C6221072   5.164   6.276   6.941  0.4997 -0.4736  0.3960
   56MOL    O6321073   5.187   6.142   6.931  0.1598  0.0205  0.2683
   56MOL    C6421074   5.098   6.068   6.861 -0.3648  0.1247 -0.3396
   56MOL    C6521075   4.967   6.118   6.827  0.3449  0.4771 -0.3219
   56MOL    C6621076   4.878   6.044   6.746 -0.8182 -0.0887 -0.0019
   56MOL    C6721077   4.911   5.911   6.723 -0.0678  0.2040  0.3997
   56MOL    C6821078   5.037   5.856   6.765  0.1602 -0.2368 -0.2857
   56MOL    C6921079   5.136   5.932   6.835  0.1229 -0.0632  0.5939
   56MOL    H7021080   5.355   6.553   7.078  0.0095  0.6598 -0.6746
   56MOL    H7121081   5.359   6.288   7.037  0.3448  0.0381 -0.8739
   56MOL    H7221082   5.138   6.314   6.843  0.0939  0.4784  0.8606
   56MOL    H7321083   5.089   6.296   7.018 -0.5291  0.2196 -0.7768
   56MOL    H7421084   4.938   6.219   6.853  0.8890 -0.1178  2.9123
   56MOL    H7521085   4.784   6.087   6.714 -1.5480 -1.2686  0.5139
   56MOL    H7621086   4.845   5.848   6.666 -0.2800 -0.5971  1.5082
   56MOL    H7721087   5.052   5.751   6.742 -1.8539  0.1257 -3.4549
   56MOL    C7821088   5.261   5.866   6.882 -0.3767  0.4711 -0.2078
   56MOL    C7921089   5.292   5.825   7.017  0.2173  0.2016 -0.5927
   56MOL    O8021090   5.255   5.727   6.915  0.8060  0.0184  0.3779
   56MOL    C8121091   5.194   5.849   7.131  0.0622  0.0472  0.4667
   56MOL    O8221092   5.193   5.734   7.219 -0.5285  0.4926 -0.1512
   56MOL    C8321093   5.129   5.758   7.343  0.2907  0.8317  0.4478
   56MOL    C8421094   5.045   5.869   7.362  0.7254  0.0003  0.6053
   56MOL    C8521095   4.974   5.884   7.483 -0.2687 -0.3162 -0.0731
   56MOL    C8621096   4.979   5.785   7.579 -0.1924 -0.0052 -0.3644
   56MOL    C8721097   5.059   5.675   7.555 -0.5688 -0.2560  0.0470
   56MOL    C8821098   5.137   5.657   7.438 -0.4456 -0.0035  0.5239
   56MOL    H8921099   5.340   5.897   6.814  0.9038  2.2225  2.0160
   56MOL    H9021100   5.398   5.816   7.042  0.2069 -0.4255 -0.7647
   56MOL    H9121101   5.095   5.869   7.091 -0.0878 -1.6067 -0.0667
   56MOL    H9221102   5.227   5.939   7.182 -0.4080  0.7493 -0.4435
   56MOL    H9321103   5.015   5.939   7.285  0.1443 -0.0402  0.7869
   56MOL    H9421104   4.906   5.966   7.500  1.4283  1.0901 -0.0274
   56MOL    H9521105   4.927   5.792   7.673 -1.5779  2.1345 -1.2500
   56MOL    H9621106   5.072   5.608   7.639 -0.2177  0.8687  0.8963
   56MOL    C9721107   5.222   5.538   7.410  0.2325 -0.1271 -0.2511
   56MOL    C9821108   5.347   5.506   7.492 -0.1859  0.0194  0.3944
   56MOL    O9921109   5.211   5.439   7.517 -0.1320 -0.6101 -0.5456
   56MOL   C10021110   5.401   5.608   7.600  1.2407  0.2637 -0.6653
   56MOL   O10121111   5.457   5.518   7.697  0.5082 -0.5646  0.1774
   56MOL   C10221112   5.499   5.579   7.810  0.2149  0.7536 -0.5091
   56MOL   C10321113   5.517   5.716   7.830  0.0439  0.5692  0.4035
   56MOL   C10421114   5.541   5.769   7.958  0.3345  0.3945 -0.0273
   56MOL   C10521115   5.563   5.686   8.076  0.2183  0.5953  0.5923
   56MOL   C10621116   5.555   5.548   8.048 -0.8178  0.2135 -0.0753
   56MOL   C10721117   5.509   5.495   7.926 -0.1568  0.2779 -0.6450
   56MOL   H10821118   5.216   5.504   7.306 -0.5467  0.9401 -0.5734
   56MOL   H10921119   5.415   5.442   7.436 -2.1374 -0.0353 -1.9682
   56MOL   H11021120   5.321   5.669   7.641 -0.2519 -2.0320 -0.0690
   56MOL   H11121121   5.484   5.661   7.555  0.9947  2.0034  0.8581
   56MOL   H11221122   5.487   5.783   7.751 -2.3089 -2.6528 -1.5591
   56MOL   H11321123   5.544   5.876   7.972 -1.4699  0.2795  1.4777
   56MOL   H11421124   5.571   5.735   0.002 -2.1162 -1.8327  2.0834
   56MOL   H11521125   5.583   5.484   8.130  1.3785  4.4581  2.6880
   56MOL   C11621126   5.470   5.349   7.911  0.0424 -0.4274 -0.2935
   56MOL   C11721127   5.537   5.248   7.814 -0.1882 -0.4321  0.4063
   56MOL   O11821128   5.578   5.266   7.953 -0.4354 -1.0200 -0.1252
   56MOL   C11921129   5.627   5.295   7.701 -0.3299 -0.3906 -0.4420
   56MOL   O12021130   5.683   5.184   7.628  0.0825 -0.2326 -0.3122
   56MOL   C12121131   5.792   5.109   7.678  0.3316  0.1812  0.1650
   56MOL   C12221132   5.851   5.140   7.804  0.7714 -0.3569 -0.2792
   56MOL   C12321133   5.960   5.063   7.850 -0.1423 -0.2595 -1.1097
   56MOL   C12421134   6.003   4.948   7.779  0.0253  0.4740  0.1572
   56MOL   C12521135   5.953   4.930   7.642  0.0158 -0.4560  0.0611
   56MOL   C12621136   5.846   5.010   7.596  0.2599  0.4767  0.4091
   56MOL   H12721137   5.376   5.333   7.963 -1.1145  1.2400 -1.8360
   56MOL   H12821138   5.481   5.156   7.799  0.3781 -0.9972  1.6227
   56MOL   H12921139   5.688   5.381   7.729 -0.9548 -0.1671  0.2120
   56MOL   H13021140   5.552   5.321   7.626 -1.7387 -0.1063  1.0596
   56MOL   H13121141   5.814   5.226   7.858 -0.2820 -0.7251 -0.4028
   56MOL   H13221142   6.010   5.079   7.944  0.3532 -0.4776 -1.3323
   56MOL   H13321143   6.080   4.889   7.826 -0.7260  0.3228  1.2108
   56MOL   H13421144   5.981   4.845   7.581 -1.8309 -1.3757  0.4583
   56MOL   C13521145   5.782   4.982   7.460 -0.4731 -0.7566 -0.2470
   56MOL   C13621146   5.855   5.018   7.335  0.2446 -0.1766  0.0164
   56MOL   O13721147   5.844   4.879   7.380  0.2805  0.3664 -0.2143
   56MOL   C13821148   5.999   5.063   7.334 -0.3870 -0.3588  0.1079
   56MOL   O13921149   6.010   5.198   7.286 -0.9065  0.2551 -0.3422
   56MOL   C14021150   5.976   5.300   7.367  0.2751 -0.3782 -0.2796
   56MOL   C14121151   6.017   5.303   7.500 -0.4566  0.3095  0.0034
   56MOL   C14221152   5.972   5.402   7.590 -0.1552 -0.0356  0.7096
   56MOL   C14321153   5.881   5.498   7.547  0.0816 -0.3624  0.3187
   56MOL   C14421154   5.845   5.507   7.409  0.2727 -0.4292 -0.1024
   56MOL   C14521155   5.893   5.406   7.330  0.4842 -0.4937  0.3313
   56MOL   H14621156   5.673   4.990   7.462 -0.4562 -0.3215 -0.9672
   56MOL   H14721157   5.792   5.053   7.253 -0.5276  2.1084  1.5448
   56MOL   H14821158   6.051   5.009   7.256 -1.8850 -2.0235  0.2185
   56MOL   H14921159   6.055   5.045   7.426  0.5790 -1.4543 -0.6776
   56MOL   H15021160   6.073   5.226   7.552 -1.9607 -1.8631 -1.4700
   56MOL   H15121161   6.007   5.409   7.691  0.9469 -3.0093  0.5614
   56MOL   H15221162   5.852   5.587   7.600  0.4025 -0.4225  0.5899
   56MOL   H15321163   5.792   5.596   7.376 -0.8971 -0.7242  0.9417
   56MOL   C15421164   5.854   5.402   7.182 -0.6576 -0.7664 -0.1289
   56MOL   C15521165   5.713   5.374   7.136  0.3634 -0.2098  0.3822
   56MOL   O15621166   5.763   5.506   7.148  0.0407 -0.1844 -0.3321
   56MOL   C15721167   5.608   5.332   7.235 -0.1076 -0.3426  0.0467
   56MOL   O15821168   5.492   5.319   7.157 -0.2210 -0.1072 -0.8015
   56MOL   C15921169   5.380   5.252   7.193  0.2345 -0.3098  0.0767
   56MOL   C16021170   5.388   5.169   7.305  0.1825 -0.4033 -0.0028
   56MOL   C16121171   5.265   5.107   7.347 -0.7498 -0.1392  0.3859
   56MOL   C16221172   5.150   5.115   7.265 -0.1648 -0.2794  0.0571
   56MOL   C16321173   5.147   5.188   7.147  0.6541  0.0051  0.4238
   56MOL   C16421174   5.262   5.262   7.114 -0.2817  0.2985  0.6872
   56MOL   H16521175   5.932   5.376   7.111  0.4996  1.2757  0.3619
   56MOL   H16621176   5.701   5.334   7.036 -4.0960 -0.9803  1.1362
   56MOL   H16721177   5.594   5.395   7.323  3.1611  0.1572  0.2633
   56MOL   H16821178   5.641   5.235   7.274  0.5785  0.4140  1.3675
   56MOL   H16921179   5.472   5.164   7.373 -0.5158  0.0668  0.9122
   56MOL   H17021180   5.264   5.056   7.443 -0.1931 -0.0065  0.4621
   56MOL   H17121181   5.054   5.080   7.303  0.0456 -0.9414 -0.0212
   56MOL   H17221182   5.055   5.199   7.093  1.2881 -0.8493 -0.8511
   56MOL   C17321183   5.257   5.358   7.000 -0.4467 -0.1555 -1.0420
   56MOL   C17421184   5.342   5.356   6.870  0.2054 -0.1857  0.0937
   56MOL   O17521185   5.213   5.295   6.875 -0.0704  0.2714  1.0137
   56MOL   C17621186   5.466   5.267   6.850  0.7505  0.2052  0.2259
   56MOL   O17721187   5.464   5.179   6.736 -0.0555  0.4882  0.0168
   56MOL   C17821188   5.480   5.235   6.610 -0.5017  1.3031 -0.2929
   56MOL   C17921189   5.554   5.352   6.588 -0.2253 -0.1388  0.3606
   56MOL   C18021190   5.581   5.397   6.457 -0.1875  0.0356 -0.5436
   56MOL   C18121191   5.534   5.318   6.353 -0.6909  0.2213  0.5018
   56MOL   C18221192   5.472   5.194   6.377 -0.5192  0.0873 -0.1919
   56MOL   C18321193   5.438   5.153   6.509 -0.8289  0.5820 -0.2470
   56MOL   H18421194   5.207   5.450   7.030  0.6687  0.2249 -0.3366
   56MOL   H18521195   5.343   5.448   6.812 -1.9640  1.2081  2.1561
   56MOL   H18621196   5.466   5.202   6.937 -1.3002 -1.6116 -1.0740
   56MOL   H18721197   5.553   5.332   6.853  0.6757  0.2292  2.4394
   56MOL   H18821198   5.573   5.427   6.663  1.2962 -0.2093  0.0545
   56MOL   H18921199   5.633   5.489   6.434  0.4813  0.1987  1.5333
   56MOL   H19021200   5.545   5.353   6.252  2.2384 -1.2517  0.2436
   56MOL   H19121201   5.436   5.128   6.300 -1.1842  1.1174 -0.7870
   56MOL   C19221202   5.354   5.034   6.539 -0.9140 -0.1673 -0.0179
   56MOL   C19321203   5.209   5.040   6.575 -0.1862  0.9752 -0.2156
   56MOL   O19421204   5.260   4.992   6.447 -0.3897  0.0798  0.2726
   56MOL   C19521205   5.144   5.177   6.570  0.1414 -0.3193  0.4705
   56MOL   O19621206   5.013   5.196   6.626  0.3048  0.1350  0.6968
   56MOL   C19721207   4.910   5.151   6.549  0.0226 -0.3551 -0.1619
   56MOL   C19821208   4.921   5.089   6.421  0.4913  0.3602 -0.4697
   56MOL   C19921209   4.803   5.050   6.359  0.0994 -0.8505  0.3702
   56MOL   C20021210   4.672   5.072   6.406  0.2396  0.4937  0.7194
   56MOL   C20121211   4.665   5.137   6.528 -0.0887  0.0219 -0.7326
   56MOL   C20221212   4.780   5.177   6.600  0.1900 -0.6977  0.1524
   56MOL   H20321213   5.413   4.953   6.580  0.6500  0.2395 -1.4252
   56MOL   H20421214   5.159   4.967   6.638  1.0040  0.1917 -0.1539
   56MOL   H20521215   5.165   5.215   6.470  1.9156 -0.1892  0.8766
   56MOL   H20621216   5.205   5.252   6.620 -2.6659  3.6167 -1.7369
   56MOL   H20721217   5.011   5.072   6.364  0.9240  3.4667 -0.7947
   56MOL   H20821218   4.821   5.011   6.260  0.0784  1.8822 -0.7647
   56MOL   H20921219   4.578   5.047   6.359  1.5080 -3.0014 -0.0713
   56MOL   H21021220   4.565   5.137   6.569 -0.3023  0.2173 -1.2422
   56MOL   C21121221   4.772   5.230   6.738 -0.4743 -0.1416  0.7028
   56MOL   C21221222   4.718   5.365   6.767  0.5608  0.0526  0.2967
   56MOL   O21321223   4.630   5.243   6.769 -0.1482 -0.6334 -0.1719
   56MOL   C21421224   4.672   5.471   6.665 -0.2479  0.3095  0.3955
   56MOL   O21521225   4.792   5.493   6.574 -0.3849  0.4426  0.0776
   56MOL   C21621226   4.794   5.618   6.511  0.5148 -0.8367 -0.1924
   56MOL   C21721227   4.674   5.701   6.493  0.2395 -0.2031  0.2465
   56MOL   C21821228   4.683   5.829   6.434  0.3616  0.8960  0.3550
   56MOL   C21921229   4.808   5.874   6.383 -0.1883 -0.1210 -0.0282
   56MOL   C22021230   4.921   5.792   6.390  0.2946 -0.6584 -0.4567
   56MOL   C22121231   4.920   5.669   6.461  0.2185 -0.4926 -0.1726
   56MOL   H22221232   4.822   5.164   6.810 -1.1885  0.6134  1.9149
   56MOL   H22321233   4.740   5.405   6.866 -1.1945  0.2442  0.6199
   56MOL   H22421234   4.645   5.554   6.729 -1.8071 -0.2188  0.4325
   56MOL   H22521235   4.575   5.450   6.621 -1.1520  0.8699  2.0936
   56MOL   H22621236   4.578   5.668   6.530  0.0564 -0.3889 -0.3937
   56MOL   H22721237   4.595   5.892   6.425 -1.2999 -1.0118  2.4845
   56MOL   H22821238   4.812   5.969   6.332  0.2343  0.4650  1.0965
   56MOL   H22921239   5.004   5.841   6.341 -0.4309  0.8569 -0.2005
   56MOL   C23021240   5.045   5.597   6.481  0.0006 -0.1542 -0.6123
   56MOL   C23121241   5.104   5.500   6.384  0.0301  0.8900 -0.0112
   56MOL   O23221242   5.148   5.639   6.392 -0.1318  0.4820 -0.0173
   56MOL   C23321243   5.014   5.449   6.271  0.3674 -0.6036 -0.6776
   56MOL   O23421244   5.096   5.392   6.162 -0.2822 -0.1231 -0.5627
   56MOL   C23521245   5.057   5.411   6.033 -0.0513  0.1365 -0.1832
   56MOL   C23621246   4.947   5.330   5.987  0.6773 -0.7686  0.1775
   56MOL   C23721247   4.889   5.358   5.863 -0.8033  0.5566  0.4855
   56MOL   C23821248   4.938   5.461   5.782 -0.2409  0.6021 -0.0866
   56MOL   C23921249   5.045   5.543   5.824 -0.7589  0.5645  0.0990
   56MOL   C24021250   5.095   5.523   5.955  0.2118 -0.3845  0.0029
   56MOL   H24121251   5.075   5.586   6.585  1.6279  2.0773 -0.8104
   56MOL   H24221252   5.188   5.440   6.416  0.8590  1.6835 -0.6804
   56MOL   H24321253   4.973   5.543   6.232  1.9248  0.3339 -0.0949
   56MOL   H24421254   4.946   5.385   6.327 -0.9224  1.8311  0.6254
   56MOL   H24521255   4.899   5.249   6.039 -0.6260  0.2374  0.5843
   56MOL   H24621256   4.806   5.297   5.828 -0.8275  1.2465 -0.6955
   56MOL   H24721257   4.880   5.479   5.693 -2.2075 -1.0706  0.7984
   56MOL   H24821258   5.079   5.624   5.762  0.3919  0.3730  0.4661
   56MOL   C24921259   5.194   5.625   6.009 -0.8822  0.1242 -0.3896
   56MOL   C25021260   5.338   5.600   6.027 -0.0803 -0.1216  0.7552
   56MOL   O25121261   5.285   5.661   5.912  0.1011  0.3805 -0.2425
   56MOL   C25221262   5.403   5.472   6.001  0.2887  0.0097  0.1706
   56MOL   O25321263   5.538   5.504   5.979 -0.0100 -0.1092 -0.1697
   56MOL   C25421264   5.627   5.400   5.989 -0.1626  0.7422  0.6872
   56MOL   C25521265   5.586   5.263   6.006  0.3890  0.0690  0.6062
   56MOL   C25621266   5.681   5.157   6.012 -0.1638 -0.2776 -0.5401
   56MOL   C25721267   5.818   5.187   6.015 -0.3352 -0.0468 -0.5048
   56MOL   C25821268   5.864   5.322   6.013 -0.4703 -0.1518 -0.2661
   56MOL   C25921269   5.766   5.424   5.985 -0.2736  0.2055  0.3046
   56MOL   H26021270   5.142   5.710   6.052 -0.7647  0.8765 -1.7269
   56MOL   H26121271   5.376   5.666   6.105 -0.5747  1.6032 -0.4423
   56MOL   H26221272   5.345   5.425   5.922  1.5249  2.0999 -2.0688
   56MOL   H26321273   5.387   5.412   6.091 -1.6017 -1.5606 -1.1548
   56MOL   H26421274   5.483   5.232   5.995  0.4589  0.5039 -1.5246
   56MOL   H26521275   5.654   5.054   6.029 -0.0880 -0.0226  1.3167
   56MOL   H26621276   5.882   5.102   6.027 -0.4259 -0.0763 -0.2083
   56MOL   H26721277   5.968   5.350   6.001 -0.5767 -0.4471 -2.0380
   56MOL   C26821278   5.823   5.560   5.943 -0.5468  0.3685 -0.8102
   56MOL   C26921279   5.806   5.675   6.037  0.5546 -0.2329 -0.1434
   56MOL   O27021280   5.922   5.591   6.040 -0.1709 -0.0355  0.5019
   56MOL   C27121281   5.721   5.673   6.166  0.5086 -0.0419  0.4699
   56MOL   O27221282   5.767   5.773   6.250 -0.1448 -0.5798 -0.1580
   56MOL   C27321283   5.713   5.763   6.376 -0.0143  0.1841 -0.3641
   56MOL   C27421284   5.575   5.754   6.404  0.6005 -0.1611  0.5377
   56MOL   C27521285   5.516   5.761   6.532 -0.3369 -0.9578 -0.5184
   56MOL   C27621286   5.603   5.758   6.645  0.3649  0.5564 -0.1606
   56MOL   C27721287   5.746   5.771   6.620 -0.3823  0.3289  0.3623
   56MOL   C27821288   5.802   5.782   6.490  0.7799  0.7379  0.5722
   56MOL   H27921289   5.857   5.567   5.840 -2.2362 -0.5972 -1.4611
   56MOL   H28021290   5.812   5.777   5.998  0.1321  0.0958  0.6321
   56MOL   H28121291   5.728   5.575   6.212  2.3104  0.9557  2.4239
   56MOL   H28221292   5.617   5.699   6.144  0.4920 -0.2980  0.2471
   56MOL   H28321293   5.499   5.750   6.328 -0.4275 -2.3419  1.6396
   56MOL   H28421294   5.409   5.763   6.545 -0.0014  0.5017  2.6878
   56MOL   H28521295   5.559   5.749   6.743 -0.4194 -0.2798 -0.5824
   56MOL   H28621296   5.810   5.785   6.706 -1.7415  0.5535  1.3527
   56MOL   C28721297   5.953   5.797   6.472 -0.5655 -0.2175 -0.2659
   56MOL   C28821298   6.014   5.922   6.414  0.3654  0.1704  0.1757
   56MOL   O28921299   6.008   5.896   6.558 -0.1603 -0.2497 -0.2667
   56MOL   C29021300   5.927   6.034   6.360  0.6511 -0.9079  0.7338
   56MOL   O29121301   5.950   6.167   6.403  0.0177 -0.0579  0.2491
   56MOL   C29221302   6.073   6.218   6.382  0.2504  0.3870  0.5668
   56MOL   C29321303   6.168   6.153   6.294  0.3755  0.1582 -0.1030
   56MOL   C29421304   6.295   6.210   6.274  0.7954 -0.5765 -0.0656
   56MOL   C29521305   6.326   6.335   6.331 -0.1421  0.0417  0.0816
   56MOL   C29621306   6.243   6.397   6.419 -0.6877  0.4662 -0.0240
   56MOL   C29721307   6.111   6.344   6.438  0.1860  0.8198 -0.1489
   56MOL   H29821308   6.003   5.702   6.460 -0.6264 -0.6502  2.5816
   56MOL   H29921309   6.110   5.912   6.365  0.1964  0.3270 -0.1865
   56MOL   H30021310   5.828   6.008   6.398  1.1211 -0.5820  2.1903
   56MOL   H30121311   5.939   6.031   6.251 -1.4902 -0.2646  0.4526
   56MOL   H30221312   6.144   6.067   6.233  1.1183  0.2481 -0.5238
   56MOL   H30321313   6.363   6.163   6.205 -0.5982  0.2671 -2.0905
   56MOL   H30421314   6.419   6.384   6.308  0.4860 -0.6640  1.1177
   56MOL   H30521315   6.269   6.493   6.462  2.4110 -0.0247 -0.6745
   56MOL   C30621316   6.009   6.422   6.520  0.4299 -0.1017  0.1224
   56MOL   C30721317   5.946   6.376   6.647 -0.7522 -0.7593  0.1040
   56MOL   O30821318   6.052   6.476   6.638  0.5759 -0.3187  0.4536
   56MOL   C30921319   5.980   6.255   6.729 -0.3910 -0.1829 -0.3789
   56MOL   O31021320   5.873   6.211   6.811 -0.0246  0.6280  0.3537
   56MOL   C31121321   5.879   6.086   6.863  0.2285 -0.8921 -0.1982
   56MOL   C31221322   5.986   5.997   6.851 -0.4205  0.7466 -0.6016
   56MOL   C31321323   5.978   5.877   6.919  0.1671 -0.3755  0.4236
   56MOL   C31421324   5.863   5.834   6.989 -0.0112  0.1771  0.8552
   56MOL   C31521325   5.752   5.919   6.987  0.5034  0.2977 -0.2417
   56MOL   C31621326   5.760   6.042   6.921 -0.0405  0.1363 -0.1887
   56MOL   H31721327   5.943   6.484   6.459  1.7651  1.1198 -0.1006
   56MOL   H31821328   5.848   6.421   6.660  0.4258  2.7994 -2.4531
   56MOL   H31921329   6.078   6.253   6.775  0.6713  1.5928 -2.4594
   56MOL   H32021330   5.992   6.175   6.656 -0.8780  0.1637 -0.8488
   56MOL   H32121331   6.074   6.011   6.791 -0.0090  0.7642 -0.0060
   56MOL   H32221332   6.064   5.812   6.927 -0.6133 -1.7198 -1.7108
   56MOL   H32321333   5.854   5.743   7.046  3.7589 -1.1023 -0.4394
   56MOL   H32421334   5.659   5.894   7.035  0.8846  1.5218  1.1592
   56MOL   C32521335   5.635   6.132   6.918  0.0102  0.1555  0.0979
   56MOL   C32621336   5.561   6.181   6.791 -0.2714  0.1351  0.0402
   56MOL   O32721337   5.516   6.064   6.872  0.5533 -0.4476 -0.3780
   56MOL   C32821338   5.600   6.153   6.645 -0.1045  1.2423 -0.0652
   56MOL   O32921339   5.485   6.122   6.569  0.1743 -0.0390  0.0167
   56MOL   C33021340   5.500   6.119   6.430 -0.2351  0.4171  0.6318
   56MOL   C33121341   5.606   6.176   6.358 -0.2258  0.1810 -0.0367
   56MOL   C33221342   5.603   6.176   6.223  0.2901 -0.5589  0.1850
   56MOL   C33321343   5.501   6.108   6.152 -0.5436 -0.2956  0.4857
   56MOL   C33421344   5.397   6.043   6.225  0.1742  0.4334 -0.6791
   56MOL   C33521345   5.393   6.068   6.365  0.4667 -0.6355  0.2666
   56MOL   H33621346   5.630   6.191   7.010  0.2180 -1.8159  1.4103
   56MOL   H33721347   5.509   6.276   6.807 -2.2794 -0.8138 -0.6657
   56MOL   H33821348   5.669   6.070   6.632  0.7106  1.7479  0.9614
   56MOL   H33921349   5.645   6.243   6.603 -2.4111  2.7148  0.5253
   56MOL   H34021350   5.690   6.231   6.399  2.8730 -2.9508 -1.9310
   56MOL   H34121351   5.682   6.227   6.171 -1.7315 -0.1221 -2.5563
   56MOL   H34221352   5.501   6.093   6.045 -0.2807 -0.7444  0.5483
   56MOL   H34321353   5.312   5.995   6.178 -0.3285  0.8520 -0.2016
   56MOL   C34421354   5.266   6.024   6.443  0.5350 -0.0390  0.4725
   56MOL   C34521355   5.171   6.114   6.517 -0.3854 -0.3751  0.5521
   56MOL   O34621356   5.146   6.066   6.384 -0.1369  0.4463 -0.0944
   56MOL   C34721357   5.211   6.256   6.540 -0.0418  0.6516  0.0157
   56MOL   O34821358   5.089   6.325   6.520  0.3530 -0.3756 -0.0099
   56MOL   C34921359   5.092   6.460   6.493 -0.1118 -0.5136 -0.4184
   56MOL   C35021360   5.210   6.534   6.488  0.8541 -0.2714  0.1697
   56MOL   C35121361   5.202   6.676   6.474 -0.7911 -0.3490  0.4504
   56MOL   C35221362   5.079   6.734   6.449 -0.0724 -0.7805  0.0525
   56MOL   C35321363   4.961   6.656   6.450 -0.1407  0.0023  0.1158
   56MOL   C35421364   4.970   6.523   6.473  0.4410  0.1519 -0.4493
   56MOL   H35521365   5.274   5.919   6.473  2.2733  0.4414  1.8346
   56MOL   H35621366   5.096   6.082   6.589  0.0198 -0.5895  0.8812
   56MOL   H35721367   5.282   6.296   6.468  0.5917 -0.6586 -0.1130
   56MOL   H35821368   5.250   6.255   6.641  2.5869 -2.4428 -0.9271
   56MOL   H35921369   5.306   6.489   6.505  2.0429  2.5873  1.4418
   56MOL   H36021370   5.296   6.729   6.475 -1.2580  0.5061 -0.5650
   56MOL   H36121371   5.080   6.837   6.417 -1.0715 -0.6326  0.4723
   56MOL   H36221372   4.870   6.711   6.437 -0.6069 -0.8758 -0.4432
   56MOL   C36321373   4.841   6.440   6.486 -0.2296 -0.4132 -0.7168
   56MOL   C36421374   4.777   6.413   6.614 -0.0478  0.2731 -0.1426
   56MOL   O36521375   4.726   6.514   6.527 -0.0956 -0.0549  0.4424
   56MOL   C36621376   4.833   6.473   6.745 -0.0066 -0.0457 -0.5196
   56MOL   O36721377   4.759   6.423   6.858 -0.3729  0.0836  0.4508
   56MOL   C36821378   4.655   6.493   6.916 -0.3676 -0.5461 -0.4383
   56MOL   C36921379   4.600   6.600   6.843  0.4621 -0.7331 -0.5445
   56MOL   C37021380   4.492   6.671   6.900  0.2415  0.1073  0.4713
   56MOL   C37121381   4.437   6.628   7.024  0.5424 -0.0342 -0.1392
   56MOL   C37221382   4.495   6.526   7.093 -0.6594  0.2928 -0.0616
   56MOL   C37321383   4.601   6.449   7.039  0.1099 -0.2246 -0.1309
   56MOL   H37421384   4.828   6.366   6.407  2.0434 -0.6466 -0.9064
   56MOL   H37521385   4.694   6.343   6.627  0.7659 -0.9774 -1.4863
   56MOL   H37621386   4.843   6.581   6.740  1.4416 -0.1952 -1.1927
   56MOL   H37721387   4.933   6.433   6.762  0.1330  1.4545  2.6154
   56MOL   H37821388   4.636   6.625   6.744  0.8349 -0.3582 -0.3150
   56MOL   H37921389   4.441   6.748   6.845 -0.2035  0.7848  1.7974
   56MOL   H38021390   4.353   6.679   7.070  0.8532 -0.7709  1.2766
   56MOL   H38121391   4.466   6.498   7.193 -3.0666  0.5815 -0.6439
   56MOL   H38221392   4.643   6.364   7.091  0.4854 -0.7000 -1.1947
   57MOL     C121393   6.702   3.438   4.016  0.0615  0.3211 -0.6203
   57MOL     C221394   6.712   3.465   3.871  0.3938 -0.4670 -0.1212
   57MOL     O321395   6.728   3.329   3.926  0.5827  0.3403  0.1148
   57MOL     C421396   6.833   3.523   3.801 -0.4959 -0.3210 -0.6859
   57MOL     O521397   6.962   3.482   3.862 -0.3098  0.4295 -0.4731
   57MOL     C621398   7.081   3.537   3.811  0.0265  0.5597 -0.1007
   57MOL     C721399   7.090   3.628   3.708 -0.3006  0.2194 -0.5678
   57MOL     C821400   7.212   3.680   3.671 -0.8448  0.0591  0.0464
   57MOL     C921401   7.334   3.642   3.734 -0.0852 -0.8435  0.1269
   57MOL    C1021402   7.325   3.549   3.841 -0.1268 -0.2826 -0.2591
   57MOL    C1121403   7.201   3.501   3.884 -0.0513  0.0173  0.5439
   57MOL    H1221404   6.604   3.430   4.062  0.5922  0.6193  0.5709
   57MOL    H1321405   6.617   3.473   3.820  0.2241 -0.2027  0.2340
   57MOL    H1421406   6.833   3.632   3.805 -2.4582 -0.3249 -0.3909
   57MOL    H1521407   6.837   3.484   3.700  0.3615  1.0415 -1.1899
   57MOL    H1621408   6.998   3.652   3.656  0.3977  0.9423 -1.4841
   57MOL    H1721409   7.217   3.743   3.583  2.6731 -2.2855 -1.5535
   57MOL    H1821410   7.433   3.674   3.706 -0.5848  0.6492  0.0058
   57MOL    H1921411   7.420   3.524   3.886  1.0896  1.1016 -1.9556
   57MOL    H2021412   6.783   3.452   4.087 -0.0513  2.3130 -0.8445
   57MOL    C2121413   7.193   3.408   3.999 -0.1611  0.8273  0.0636
   57MOL    C2221414   7.255   3.269   3.995  0.3156  0.3745 -0.3769
   57MOL    O2321415   7.325   3.386   4.043  0.4372  0.3096 -0.1784
   57MOL    C2421416   7.310   3.212   3.866  0.4419 -0.1578 -0.4072
   57MOL    O2521417   7.397   3.106   3.886  0.4220 -0.5575  0.4219
   57MOL    C2621418   7.531   3.127   3.908  0.5488  0.5420 -0.6597
   57MOL    C2721419   7.594   3.250   3.911  1.5069  0.0786 -0.4297
   57MOL    C2821420   7.733   3.264   3.927  0.1728 -0.0996 -0.0662
   57MOL    C2921421   7.816   3.155   3.952  0.1002 -0.4004  0.2210
   57MOL    C3021422   7.755   3.029   3.958 -0.3494  0.1960 -0.6666
   57MOL    C3121423   7.618   3.010   3.936  1.2407 -0.1095  0.2319
   57MOL    H3221424   7.123   3.435   4.078  0.1500 -1.2351  1.0934
   57MOL    H3321425   7.240   3.193   4.072  1.3908 -0.3918 -0.9119
   57MOL    H3421426   7.340   3.289   3.795  0.3961  2.2496  2.1360
   57MOL    H3521427   7.233   3.155   3.813  0.3264 -1.0647  0.6960
   57MOL    H3621428   7.543   3.341   3.886 -0.2389 -0.3802  1.3541
   57MOL    H3721429   7.780   3.360   3.909 -1.9063  0.9118 -0.3719
   57MOL    H3821430   7.923   3.169   3.966  0.0063  0.7768 -0.2435
   57MOL    H3921431   7.822   2.946   3.970 -0.5693 -0.2405 -2.2624
   57MOL    C4021432   7.553   2.877   3.938 -0.4387  0.8132  0.1191
   57MOL    C4121433   7.511   2.803   3.810 -0.5284  0.1261 -0.5858
   57MOL    O4221434   7.635   2.773   3.869 -0.7656 -0.1336  0.1855
   57MOL    C4321435   7.519   2.867   3.670  0.0708 -0.9225  0.1847
   57MOL    O4421436   7.516   2.771   3.577 -0.3875 -0.1894  1.4501
   57MOL    C4521437   7.510   2.801   3.441  0.7260  0.8773  0.2793
   57MOL    C4621438   7.536   2.936   3.400  0.1687  0.7887 -0.6012
   57MOL    C4721439   7.543   2.963   3.261  0.2196 -0.2139 -0.3162
   57MOL    C4821440   7.515   2.862   3.169 -0.2777  0.9328  0.1772
   57MOL    C4921441   7.482   2.734   3.205  0.3031  0.4519 -0.2189
   57MOL    C5021442   7.482   2.697   3.343 -0.1123  0.2318 -0.5457
   57MOL    H5121443   7.532   2.841   4.039  1.6095 -2.6181 -0.5986
   57MOL    H5221444   7.435   2.726   3.822 -1.5522  1.5036  2.0953
   57MOL    H5321445   7.619   2.911   3.675 -0.3633  0.0688  0.1638
   57MOL    H5421446   7.444   2.946   3.667  0.4325 -0.6260 -1.3156
   57MOL    H5521447   7.539   3.025   3.459 -0.4067  0.5856 -0.2664
   57MOL    H5621448   7.551   3.064   3.223 -1.9478  0.2481  0.3520
   57MOL    H5721449   7.516   2.886   3.064 -1.9395 -0.1978 -0.1085
   57MOL    H5821450   7.455   2.669   3.123  1.9005  0.5318 -0.8266
   57MOL    C5921451   7.443   2.557   3.384 -0.6831  0.3639 -0.5185
   57MOL    C6021452   7.318   2.543   3.464  1.5296  0.6888  0.9043
   57MOL    O6121453   7.323   2.506   3.324 -0.4450  0.0990  0.6152
   57MOL    C6221454   7.222   2.653   3.493 -1.1509 -0.4556  0.2136
   57MOL    O6321455   7.090   2.601   3.525 -0.5073 -0.3901  0.2639
   57MOL    C6421456   7.003   2.565   3.426  0.2418 -0.4862 -0.1150
   57MOL    C6521457   7.038   2.578   3.290  0.1007 -0.3728  0.0199
   57MOL    C6621458   6.942   2.534   3.195 -0.6148 -0.9761  0.2867
   57MOL    C6721459   6.818   2.474   3.227  0.1262 -0.1585 -0.0460
   57MOL    C6821460   6.789   2.456   3.364  0.0871  0.4884 -0.0411
   57MOL    C6921461   6.878   2.500   3.466 -0.5994  0.1473  0.1966
   57MOL    H7021462   7.518   2.480   3.401 -2.0264 -0.8320  0.1076
   57MOL    H7121463   7.311   2.458   3.533  2.5248 -0.4037 -0.3162
   57MOL    H7221464   7.223   2.726   3.412 -0.0019 -2.4043 -1.5803
   57MOL    H7321465   7.264   2.705   3.579 -0.3636  2.4214 -1.8370
   57MOL    H7421466   7.126   2.628   3.252  0.1938 -0.0235  0.6885
   57MOL    H7521467   6.951   2.564   3.092 -1.1038 -1.2269  0.1660
   57MOL    H7621468   6.747   2.436   3.155 -2.3246  2.5635  0.8642
   57MOL    H7721469   6.701   2.397   3.381  0.6242 -0.5655 -0.8630
   57MOL    C7821470   6.849   2.475   3.615 -0.2659 -0.2911  0.0787
   57MOL    C7921471   6.796   2.583   3.704 -0.2716  0.3863  0.3207
   57MOL    O8021472   6.708   2.500   3.629 -0.1349  0.0264  0.2560
   57MOL    C8121473   6.798   2.730   3.662  0.7002  0.2655 -0.0697
   57MOL    O8221474   6.739   2.807   3.761  0.3312  0.4124 -0.8405
   57MOL    C8321475   6.827   2.857   3.857 -0.5090 -0.7332  0.1459
   57MOL    C8421476   6.966   2.827   3.872  0.1327  0.8292  0.6406
   57MOL    C8521477   7.045   2.897   3.963  0.0741  0.1083  0.6120
   57MOL    C8621478   6.996   2.996   4.053 -0.0330 -0.0493 -0.2474
   57MOL    C8721479   6.854   3.017   4.049 -0.4412  0.2514 -0.5506
   57MOL    C8821480   6.777   2.958   3.945 -0.7842 -0.1770  0.5210
   57MOL    H8921481   6.869   2.373   3.647 -0.6461 -1.1055 -2.1895
   57MOL    H9021482   6.812   2.561   3.809  0.2155 -0.1191  0.1459
   57MOL    H9121483   6.735   2.745   3.575 -1.7973  1.5597  1.9033
   57MOL    H9221484   6.893   2.763   3.618  0.7975 -0.8604 -0.7484
   57MOL    H9321485   7.019   2.750   3.818  0.3426  1.7800 -0.5280
   57MOL    H9421486   7.151   2.877   3.973  0.1103 -0.4733 -0.8749
   57MOL    H9521487   7.058   3.040   4.130  0.5342 -1.6644  0.2229
   57MOL    H9621488   6.799   3.086   4.111 -0.6046 -1.0019  0.7256
   57MOL    C9721489   6.642   3.015   3.926 -0.2023  0.0541 -0.5089
   57MOL    C9821490   6.527   2.947   3.990  0.4359  0.0277 -0.5835
   57MOL    O9921491   6.573   3.068   4.046 -0.3836  0.4148  0.2533
   57MOL   C10021492   6.551   2.822   4.083  0.5951 -0.6674 -0.2918
   57MOL   O10121493   6.425   2.799   4.146 -0.2558  0.1689  0.0063
   57MOL   C10221494   6.442   2.760   4.280  0.4274 -0.2449  0.6721
   57MOL   C10321495   6.445   2.625   4.315  0.3747 -0.0637 -0.4779
   57MOL   C10421496   6.444   2.591   4.449  0.0568 -0.0039 -0.2240
   57MOL   C10521497   6.454   2.685   4.550 -0.2339  0.0058 -0.3923
   57MOL   C10621498   6.473   2.818   4.514  0.0569 -0.0856 -0.1041
   57MOL   C10721499   6.459   2.861   4.382 -0.1958  0.2656  0.4959
   57MOL   H10821500   6.627   3.092   3.850 -1.9427 -0.4468 -0.7136
   57MOL   H10921501   6.432   2.953   3.936 -0.2777  0.0704  0.6527
   57MOL   H11021502   6.635   2.849   4.147  0.8447 -0.9611 -0.4963
   57MOL   H11121503   6.590   2.739   4.024  0.0724  0.2036 -1.8972
   57MOL   H11221504   6.450   2.549   4.239  2.2704 -0.7152  0.2833
   57MOL   H11321505   6.436   2.487   4.479 -1.4225  0.7540  2.1511
   57MOL   H11421506   6.455   2.656   4.654 -0.3136  1.4799  0.0225
   57MOL   H11521507   6.484   2.893   4.591 -1.5075  0.7121 -0.6148
   57MOL   C11621508   6.469   2.998   4.335  0.3720 -0.6017  0.2800
   57MOL   C11721509   6.347   3.073   4.279 -0.0934 -0.0439 -0.2410
   57MOL   O11821510   6.392   3.090   4.419 -0.3646  0.9508  0.5244
   57MOL   C11921511   6.211   3.009   4.269  0.0368 -0.2208 -0.0718
   57MOL   O12021512   6.144   3.031   4.145 -0.2378  0.5226 -0.1787
   57MOL   C12121513   6.009   3.012   4.138  0.6457  0.0184 -0.4903
   57MOL   C12221514   5.913   3.007   4.247  0.1079  0.5110 -0.2569
   57MOL   C12321515   5.776   3.013   4.219  0.5416  0.2515  0.0490
   57MOL   C12421516   5.720   3.021   4.088  0.1714 -0.2122  0.6998
   57MOL   C12521517   5.814   3.005   3.977  0.0259  0.0134  0.0321
   57MOL   C12621518   5.953   3.012   4.004  0.0876  0.4971 -0.5780
   57MOL   H12721519   6.567   3.038   4.310  0.3103 -1.5667 -1.5430
   57MOL   H12821520   6.372   3.149   4.205 -0.7580  0.7095  0.3106
   57MOL   H12921521   6.156   3.043   4.356  0.4630 -0.3692  0.2587
   57MOL   H13021522   6.230   2.903   4.285  0.0310 -0.4716 -1.6403
   57MOL   H13121523   5.942   3.013   4.351 -1.3848 -1.8868  0.3267
   57MOL   H13221524   5.705   3.018   4.301 -2.0863 -0.2026 -2.1269
   57MOL   H13321525   5.613   3.027   4.082  0.2587  2.1710  0.9071
   57MOL   H13421526   5.784   3.019   3.875  3.2354  2.7438 -0.6192
   57MOL   C13521527   6.050   3.017   3.890 -0.2866 -0.1004  0.0407
   57MOL   C13621528   6.105   2.894   3.811  0.0244 -0.8801  0.4987
   57MOL   O13721529   5.995   2.971   3.770 -0.3448 -0.0491 -0.0946
   57MOL   C13821530   6.053   2.752   3.850 -0.0529  0.5110  0.1567
   57MOL   O13921531   6.048   2.668   3.735 -0.3039 -0.0559 -0.0111
   57MOL   C14021532   6.165   2.601   3.703  0.3573 -0.1640 -0.5457
   57MOL   C14121533   6.292   2.620   3.767  0.3117  0.0810 -0.4144
   57MOL   C14221534   6.405   2.550   3.729  0.3502  0.0111 -0.0152
   57MOL   C14321535   6.393   2.456   3.627 -0.2109 -0.2507  0.4349
   57MOL   C14421536   6.268   2.429   3.567 -0.3473  0.3587 -0.3423
   57MOL   C14521537   6.157   2.503   3.601  0.3575 -0.1327 -0.2439
   57MOL   H14621538   6.104   3.111   3.878 -2.1380  0.8482 -1.1763
   57MOL   H14721539   6.194   2.901   3.748 -1.3193  0.1491 -1.3374
   57MOL   H14821540   5.948   2.756   3.877  0.0663 -2.4557  1.2745
   57MOL   H14921541   6.107   2.720   3.939 -0.0310  2.0307  0.7112
   57MOL   H15021542   6.306   2.701   3.838  0.1928 -0.4067  0.1704
   57MOL   H15121543   6.505   2.572   3.762  0.7522 -2.2751  0.3427
   57MOL   H15221544   6.480   2.396   3.604 -0.2422 -0.1359  0.0053
   57MOL   H15321545   6.273   2.369   3.478  3.0269  0.4910 -0.3140
   57MOL   C15421546   6.021   2.483   3.537  0.6456  0.0107  0.0620
   57MOL   C15521547   5.952   2.590   3.444  0.4104  0.8548  0.9576
   57MOL   O15621548   6.027   2.482   3.391 -0.1216 -0.2158 -0.2164
   57MOL   C15721549   6.005   2.722   3.399  0.2680 -0.1311 -0.0515
   57MOL   O15821550   5.924   2.779   3.295 -0.0018 -0.8755  0.1306
   57MOL   C15921551   5.970   2.776   3.164  0.6359 -0.5466  0.1850
   57MOL   C16021552   6.066   2.679   3.124  0.9037 -0.2024 -0.2476
   57MOL   C16121553   6.118   2.679   2.996  0.2823  0.7379 -0.3227
   57MOL   C16221554   6.070   2.772   2.903  0.7692 -0.8844  0.3099
   57MOL   C16321555   5.967   2.867   2.938  0.0571 -0.3333  0.7270
   57MOL   C16421556   5.917   2.869   3.070  0.0344  0.3897 -0.4151
   57MOL   H16521557   5.963   2.400   3.579 -1.4332 -0.3187 -3.2558
   57MOL   H16621558   5.844   2.576   3.432  0.2848  0.7756  2.0798
   57MOL   H16721559   6.114   2.725   3.393  0.2272 -1.0416 -1.3615
   57MOL   H16821560   5.984   2.776   3.491 -0.0614 -0.4348  0.0534
   57MOL   H16921561   6.106   2.597   3.182 -2.2137 -1.7502 -0.1739
   57MOL   H17021562   6.188   2.604   2.961  1.2288  0.9849  1.0063
   57MOL   H17121563   6.107   2.780   2.802  1.1178 -2.9174  0.2618
   57MOL   H17221564   5.923   2.946   2.879  2.3906  0.4666 -0.0188
   57MOL   C17321565   5.808   2.966   3.102 -0.4093 -0.3818  0.0523
   57MOL   C17421566   5.831   3.068   3.208 -0.1359 -0.7952  0.4562
   57MOL   O17521567   5.833   3.100   3.070 -0.7319 -0.8313 -0.4645
   57MOL   C17621568   5.958   3.097   3.288 -0.4119  0.7436 -0.0137
   57MOL   O17721569   5.944   3.231   3.332  0.3223  0.1052  0.2127
   57MOL   C17821570   5.967   3.329   3.235  0.0949  0.1077  0.2405
   57MOL   C17921571   6.067   3.322   3.138 -0.5384  0.3519  0.5432
   57MOL   C18021572   6.077   3.429   3.042  0.7742  0.2839  0.6150
   57MOL   C18121573   5.989   3.547   3.050  0.1725 -0.2137 -0.0915
   57MOL   C18221574   5.892   3.552   3.154  0.3474 -0.0072 -0.4645
   57MOL   C18321575   5.886   3.447   3.251  0.0169 -0.7219  0.2537
   57MOL   H18421576   5.707   2.935   3.076 -0.4573 -0.6100  0.5209
   57MOL   H18521577   5.746   3.110   3.261  1.1454  0.1685  1.7896
   57MOL   H18621578   6.046   3.067   3.232 -1.7632 -3.1505 -0.1904
   57MOL   H18721579   5.959   3.035   3.378  0.0977 -0.2974 -0.7331
   57MOL   H18821580   6.131   3.235   3.131  0.3272  1.0570 -0.4363
   57MOL   H18921581   6.148   3.412   2.962  1.3715 -0.1265  1.2289
   57MOL   H19021582   6.000   3.629   2.980 -1.7779  0.5358  0.4366
   57MOL   H19121583   5.815   3.625   3.169 -0.0474 -0.1754 -1.5808
   57MOL   C19221584   5.778   3.443   3.352 -0.4529 -0.2839 -0.2434
   57MOL   C19321585   5.794   3.459   3.502 -0.4062 -0.6454  0.4483
   57MOL   O19421586   5.763   3.573   3.420 -0.8247 -0.4956 -0.0422
   57MOL   C19521587   5.938   3.454   3.552  0.5886 -0.1539  0.2090
   57MOL   O19621588   5.927   3.482   3.691 -0.6995  0.4760  0.0383
   57MOL   C19721589   6.034   3.455   3.769 -0.5283  0.0733 -0.3696
   57MOL   C19821590   6.165   3.497   3.743 -0.5072 -0.5435  0.1729
   57MOL   C19921591   6.275   3.455   3.826  0.7802  0.0129  0.3171
   57MOL   C20021592   6.248   3.389   3.949  0.7196 -0.6416  0.0468
   57MOL   C20121593   6.117   3.350   3.973 -0.0511 -0.9112 -0.7379
   57MOL   C20221594   6.009   3.392   3.897  0.4672 -0.6736  0.9713
   57MOL   H20321595   5.684   3.401   3.317 -1.1652  2.7624 -2.2628
   57MOL   H20421596   5.711   3.418   3.558  0.5795 -0.1095  2.3410
   57MOL   H20521597   5.987   3.543   3.511 -1.1726  0.8602  0.2669
   57MOL   H20621598   5.990   3.361   3.530 -1.2847 -1.3240  0.6500
   57MOL   H20721599   6.179   3.555   3.654 -2.6583 -0.3326 -0.0552
   57MOL   H20821600   6.370   3.499   3.797  0.8261  0.0055  0.4561
   57MOL   H20921601   6.309   3.384   4.038  0.5359  0.2158  0.2312
   57MOL   H21021602   6.107   3.285   4.058 -0.0307  0.2581  0.1675
   57MOL   C21121603   5.871   3.346   3.933  0.3369  0.0223 -0.7186
   57MOL   C21221604   5.793   3.362   4.066  0.0051  0.1539  0.6082
   57MOL   O21321605   5.784   3.453   3.958  0.2772 -0.4508 -0.2551
   57MOL   C21421606   5.881   3.394   4.187  0.1362 -0.0910 -0.2259
   57MOL   O21521607   5.818   3.408   4.308  0.2028  0.2138  0.0932
   57MOL   C21621608   5.759   3.524   4.339 -0.2896  0.4573 -1.1890
   57MOL   C21721609   5.766   3.639   4.260  0.2247 -0.2571  0.2026
   57MOL   C21821610   5.708   3.757   4.299 -0.0106  1.1536 -0.3244
   57MOL   C21921611   5.647   3.764   4.425  0.1686 -0.7136  0.7630
   57MOL   C22021612   5.641   3.653   4.507 -0.1606  0.5015  0.9275
   57MOL   C22121613   5.681   3.525   4.460  0.5073 -0.8518 -0.2326
   57MOL   H22221614   5.826   3.279   3.860  1.3321  0.1564 -1.4679
   57MOL   H22321615   5.706   3.299   4.083  1.0892 -1.2850  0.9370
   57MOL   H22421616   5.945   3.475   4.153  1.9530 -2.4102 -2.4747
   57MOL   H22521617   5.958   3.322   4.216  1.1603  2.2544  3.1213
   57MOL   H22621618   5.819   3.650   4.166  0.1467 -1.1862  0.0480
   57MOL   H22721619   5.728   3.842   4.235 -0.2198  2.1292  0.8779
   57MOL   H22821620   5.591   3.849   4.460 -0.8056 -0.4213 -1.4817
   57MOL   H22921621   5.584   3.674   4.596 -2.2706  1.5687 -0.6331
   57MOL   C23021622   5.658   3.402   4.540  0.3861  0.1549 -0.0927
   57MOL   C23121623   5.523   3.340   4.562  0.1370  0.1334  0.5313
   57MOL   O23221624   5.613   3.291   4.461 -0.0598  0.0735 -0.2116
   57MOL   C23321625   5.392   3.394   4.503  0.2177 -0.4731 -0.1397
   57MOL   O23421626   5.277   3.330   4.554  0.0510 -0.0258  0.3322
   57MOL   C23521627   5.247   3.196   4.521  0.1381 -0.0700 -0.5412
   57MOL   C23621628   5.324   3.119   4.435 -0.1930  0.1738  0.4445
   57MOL   C23721629   5.267   2.998   4.385 -0.3160  0.1742 -0.4773
   57MOL   C23821630   5.147   2.950   4.430  0.0104  0.7001  0.4876
   57MOL   C23921631   5.074   3.024   4.523 -0.0824  0.4437 -0.6591
   57MOL   C24021632   5.126   3.146   4.568 -0.8267  0.2701  0.6252
   57MOL   H24121633   5.736   3.381   4.612  0.4229 -0.2813 -0.2617
   57MOL   H24221634   5.498   3.273   4.643 -0.7258  0.3451  0.4460
   57MOL   H24321635   5.396   3.398   4.394  1.5864  0.1341 -0.0884
   57MOL   H24421636   5.371   3.494   4.543  2.4140  0.6339 -1.6366
   57MOL   H24521637   5.411   3.159   4.386 -0.3889 -1.6215 -1.4013
   57MOL   H24621638   5.313   2.947   4.302 -0.8815  1.4739 -1.6238
   57MOL   H24721639   5.111   2.856   4.391  0.4657  0.2803  1.0754
   57MOL   H24821640   4.978   2.994   4.562 -0.4414  0.4554 -1.5359
   57MOL   C24921641   5.046   3.226   4.664 -0.2572 -0.2345 -0.1161
   57MOL   C25021642   4.964   3.354   4.646 -0.3303 -0.4055 -0.1335
   57MOL   O25121643   4.907   3.226   4.626  0.0998 -0.0824 -0.0076
   57MOL   C25221644   4.953   3.426   4.513 -0.3948  0.7787  0.3306
   57MOL   O25321645   4.935   3.563   4.528  0.3750  0.0460 -0.5551
   57MOL   C25421646   4.949   3.645   4.417 -0.7957 -0.1339 -0.0074
   57MOL   C25521647   4.954   3.610   4.278 -0.3297  0.2271  0.6115
   57MOL   C25621648   4.967   3.704   4.169 -0.5281 -0.4127 -0.3445
   57MOL   C25721649   4.959   3.844   4.198 -0.3567  0.4294 -0.0165
   57MOL   C25821650   4.948   3.878   4.335 -0.8713 -0.3068  0.6523
   57MOL   C25921651   4.941   3.788   4.439  0.2196  0.2876  0.1909
   57MOL   H26021652   5.054   3.180   4.762  1.5766  1.5000  0.5725
   57MOL   H26121653   4.925   3.398   4.737  0.2858  1.6138 -0.8266
   57MOL   H26221654   4.873   3.385   4.451  0.0162  0.5799 -0.0754
   57MOL   H26321655   5.047   3.407   4.461 -1.8101 -0.6245 -1.8358
   57MOL   H26421656   4.967   3.506   4.252  0.7317  0.6813 -0.7054
   57MOL   H26521657   5.003   3.666   4.074  0.5194 -1.7379  0.5696
   57MOL   H26621658   4.972   3.916   4.119  1.1431 -0.2514 -0.4153
   57MOL   H26721659   4.931   3.983   4.355 -0.0587 -0.4485  2.0867
   57MOL   C26821660   4.954   3.830   4.578  0.0049 -0.0171  0.3175
   57MOL   C26921661   5.085   3.803   4.651 -0.1843 -0.2683  0.3087
   57MOL   O27021662   5.053   3.928   4.593  0.0300  0.2870  0.2071
   57MOL   C27121663   5.212   3.735   4.601 -0.2775 -0.1383 -0.2919
   57MOL   O27221664   5.321   3.754   4.691  0.1523  0.2012 -0.2126
   57MOL   C27321665   5.323   3.696   4.814 -0.8857 -0.3104  0.0292
   57MOL   C27421666   5.244   3.588   4.850  0.2316 -0.7866  0.5018
   57MOL   C27521667   5.259   3.525   4.979  0.2800 -0.5286 -0.3500
   57MOL   C27621668   5.362   3.565   5.064 -0.6719 -0.2914 -0.6807
   57MOL   C27721669   5.440   3.679   5.030  0.2551  0.1018 -0.3073
   57MOL   C27821670   5.424   3.740   4.902 -0.0485  0.1890 -0.6015
   57MOL   H27921671   4.859   3.859   4.622 -0.0832 -2.3188  1.7227
   57MOL   H28021672   5.066   3.797   4.758 -0.5839  1.4533  0.3445
   57MOL   H28121673   5.239   3.789   4.511  0.4374 -0.8807 -0.5302
   57MOL   H28221674   5.195   3.630   4.577  2.9519 -0.5681 -0.8252
   57MOL   H28321675   5.159   3.561   4.789  0.8894 -1.4829 -0.0965
   57MOL   H28421676   5.192   3.447   5.011  0.5902 -1.2424 -1.3919
   57MOL   H28521677   5.374   3.505   5.153 -1.0982 -0.1869 -0.5545
   57MOL   H28621678   5.511   3.715   5.102 -0.6494 -1.0203  1.1669
   57MOL   C28721679   5.518   3.850   4.868  0.0253  0.2813 -0.1721
   57MOL   C28821680   5.481   4.001   4.856  0.1717 -1.0683 -0.1183
   57MOL   O28921681   5.523   3.945   4.975  0.6137 -0.9539 -0.3271
   57MOL   C29021682   5.334   4.045   4.843  0.8065  0.6480  0.2334
   57MOL   O29121683   5.318   4.185   4.842 -0.2439  0.2232 -0.0604
   57MOL   C29221684   5.353   4.254   4.957  0.3366 -0.0940 -0.1678
   57MOL   C29321685   5.360   4.190   5.085  0.1258 -0.3300  0.4975
   57MOL   C29421686   5.385   4.266   5.197  0.1764 -0.3116  0.1958
   57MOL   C29521687   5.393   4.407   5.196 -0.3261  0.4369 -0.8229
   57MOL   C29621688   5.388   4.470   5.073  0.0680  0.5002 -0.7243
   57MOL   C29721689   5.375   4.391   4.951  1.2613 -0.7568 -0.1006
   57MOL   H29821690   5.616   3.807   4.846 -0.6371 -0.2833 -2.1275
   57MOL   H29921691   5.552   4.072   4.814 -0.9561  1.3703  1.9714
   57MOL   H30021692   5.263   3.996   4.910  1.8903 -1.1322  0.1177
   57MOL   H30121693   5.300   4.006   4.747  2.7519  0.0600 -0.2447
   57MOL   H30221694   5.338   4.085   5.101  0.9158 -0.5933 -0.0952
   57MOL   H30321695   5.399   4.211   5.290 -0.4709 -1.2078 -0.2235
   57MOL   H30421696   5.406   4.463   5.287  0.7534 -0.7201 -0.2540
   57MOL   H30521697   5.390   4.578   5.069 -0.3654  0.5787  0.8134
   57MOL   C30621698   5.369   4.461   4.818  0.4490  0.4707 -0.0401
   57MOL   C30721699   5.276   4.574   4.781  0.1605 -0.3391 -0.1585
   57MOL   O30821700   5.412   4.600   4.832  0.2456  1.2242 -0.2377
   57MOL   C30921701   5.150   4.596   4.869  0.4299 -0.4989  0.1481
   57MOL   O31021702   5.053   4.512   4.810  0.2355 -0.9225 -0.0886
   57MOL   C31121703   4.924   4.517   4.847  0.5328 -0.2934  0.6133
   57MOL   C31221704   4.866   4.619   4.922 -0.3082  0.1633  0.9750
   57MOL   C31321705   4.732   4.618   4.959  0.6653  0.5061 -0.0054
   57MOL   C31421706   4.653   4.511   4.913 -0.4302 -0.9293  0.4431
   57MOL   C31521707   4.709   4.397   4.858  0.2906  0.2604  0.8449
   57MOL   C31621708   4.846   4.404   4.818 -0.1698  0.4970 -0.7691
   57MOL   H31721709   5.427   4.398   4.751  0.8348  1.7412 -0.9235
   57MOL   H31821710   5.258   4.605   4.678 -0.3616 -3.1260 -0.9622
   57MOL   H31921711   5.129   4.703   4.870  2.2760 -0.1141 -0.4383
   57MOL   H32021712   5.163   4.574   4.975 -0.2030 -0.6113  0.2059
   57MOL   H32121713   4.929   4.706   4.933  2.1625 -1.4363  0.0256
   57MOL   H32221714   4.693   4.706   5.009  1.2305  0.9993 -0.4171
   57MOL   H32321715   4.548   4.514   4.940  0.0299 -1.8965  2.4582
   57MOL   H32421716   4.646   4.317   4.822  0.2772  0.9563 -0.7463
   57MOL   C32521717   4.909   4.293   4.745 -0.2603  0.1079 -0.7381
   57MOL   C32621718   4.950   4.171   4.818 -0.4537  0.0527 -0.7762
   57MOL   O32721719   4.827   4.172   4.742 -0.2063  0.3220  0.3773
   57MOL   C32821720   4.928   4.163   4.965 -0.2791  0.1734  0.2984
   57MOL   O32921721   4.991   4.047   5.015 -0.2666 -0.2598  0.0484
   57MOL   C33021722   4.939   3.921   4.991  0.8542 -0.1827  0.2989
   57MOL   C33121723   4.820   3.891   4.916  0.6630  0.3851 -0.5431
   57MOL   C33221724   4.780   3.756   4.891  0.5715 -0.8529  0.6047
   57MOL   C33321725   4.856   3.650   4.937 -0.5857  0.0371 -0.1611
   57MOL   C33421726   4.970   3.677   5.016 -0.2464  0.3739 -0.3269
   57MOL   C33521727   5.011   3.809   5.044  0.5265 -0.0192  0.0495
   57MOL   H33621728   4.967   4.322   4.658 -0.5734  1.6876 -0.4400
   57MOL   H33721729   5.037   4.117   4.781  1.4791  1.9890  0.7945
   57MOL   H33821730   4.821   4.168   4.989 -0.5669 -2.6304 -0.2173
   57MOL   H33921731   4.980   4.245   5.013 -1.4346  2.2448 -1.8603
   57MOL   H34021732   4.763   3.960   4.856  0.8399  0.8620 -0.1687
   57MOL   H34121733   4.692   3.731   4.834 -0.3539  0.8943  1.2095
   57MOL   H34221734   4.822   3.548   4.928 -0.0449  0.0276 -2.3854
   57MOL   H34321735   5.029   3.596   5.056 -0.1991  0.3372 -0.4715
   57MOL   C34421736   5.135   3.828   5.127 -0.0403 -0.5076  0.2949
   57MOL   C34521737   5.149   3.867   5.272 -0.6011 -0.6757  0.5098
   57MOL   O34621738   5.155   3.731   5.231 -0.1891  0.1444 -0.7646
   57MOL   C34721739   5.028   3.917   5.342  0.1005 -0.1828  0.0706
   57MOL   O34821740   5.033   3.896   5.482 -0.1779  0.3485  0.3834
   57MOL   C34921741   5.124   3.962   5.564 -0.6927 -0.8303 -0.0470
   57MOL   C35021742   5.172   4.087   5.533 -0.1257 -0.5520  0.6695
   57MOL   C35121743   5.270   4.149   5.615 -0.1672  0.5308 -0.2590
   57MOL   C35221744   5.308   4.083   5.731 -0.5356 -0.2795 -0.4995
   57MOL   C35321745   5.254   3.960   5.769  0.1409  0.0491 -0.6561
   57MOL   C35421746   5.165   3.891   5.681 -0.3720  0.7340  0.3081
   57MOL   H35521747   5.220   3.826   5.059 -1.2090 -1.2888 -1.1809
   57MOL   H35621748   5.240   3.912   5.310 -0.3517 -0.6142 -0.1483
   57MOL   H35721749   4.941   3.860   5.311 -0.3171  0.8041 -0.6142
   57MOL   H35821750   5.011   4.021   5.313  0.3915  0.1318  0.9994
   57MOL   H35921751   5.128   4.141   5.451  1.3061 -1.0933 -0.4890
   57MOL   H36021752   5.306   4.248   5.592 -0.6078  0.6995 -0.2420
   57MOL   H36121753   5.377   4.134   5.796  2.2390 -0.8289 -2.8917
   57MOL   H36221754   5.303   3.899   5.844 -0.9158  0.0734  0.0750
   57MOL   C36321755   5.129   3.748   5.701  0.2054 -0.0274 -0.3604
   57MOL   C36421756   5.208   3.632   5.651 -0.7949  0.0949 -0.1395
   57MOL   O36521757   5.226   3.683   5.784 -0.6454 -0.6730  0.2471
   57MOL   C36621758   5.340   3.644   5.565  0.4827  0.5940 -0.6160
   57MOL   O36721759   5.368   3.530   5.494  0.0042 -0.0402  0.1818
   57MOL   C36821760   5.417   3.417   5.569 -0.0361 -0.3509  0.7270
   57MOL   C36921761   5.442   3.426   5.705  0.0348 -1.3269 -0.9602
   57MOL   C37021762   5.479   3.307   5.769  0.2804  0.3870 -0.2435
   57MOL   C37121763   5.503   3.188   5.703 -0.1806  0.7693 -0.6209
   57MOL   C37221764   5.499   3.187   5.566  0.3500 -0.0615  0.5223
   57MOL   C37321765   5.452   3.300   5.495 -0.0074 -0.1227 -0.3729
   57MOL   H37421766   5.034   3.747   5.756  0.1713 -1.9696 -0.3959
   57MOL   H37521767   5.159   3.535   5.659 -0.5335 -0.0467 -0.2648
   57MOL   H37621768   5.422   3.684   5.625 -0.5343  0.0143  1.2023
   57MOL   H37721769   5.315   3.723   5.495 -2.7682  0.0229 -0.1927
   57MOL   H37821770   5.423   3.513   5.767  0.7740 -0.1661 -2.3140
   57MOL   H37921771   5.494   3.298   5.876  2.2937 -1.9434 -0.6589
   57MOL   H38021772   5.525   3.102   5.766 -1.2249  0.9701  0.0351
   57MOL   H38121773   5.532   3.100   5.510 -0.6369 -0.7363  0.9844
   57MOL   H38221774   5.445   3.292   5.388  1.4850 -2.3973 -0.3539
   58MOL     C121775   1.741   4.826   1.772 -0.7732 -0.7135 -0.7858
   58MOL     C221776   1.700   4.949   1.837  0.4983 -0.5437 -0.5059
   58MOL     O321777   1.831   4.938   1.772  0.0129 -0.2558 -0.2589
   58MOL     C421778   1.697   4.977   1.985  0.2189  0.6401  0.1841
   58MOL     O521779   1.739   4.870   2.073 -0.4548  0.3445  0.4499
   58MOL     C621780   1.647   4.774   2.110  0.0028  0.7917  0.4497
   58MOL     C721781   1.512   4.781   2.069 -0.6925  0.4488 -0.1423
   58MOL     C821782   1.414   4.709   2.143  0.6213  0.6163  0.9195
   58MOL     C921783   1.454   4.615   2.236  0.0444  0.3640  0.3273
   58MOL    C1021784   1.588   4.606   2.272  0.0135 -0.1404 -0.8314
   58MOL    C1121785   1.685   4.686   2.216  0.0160 -0.2189  0.0573
   58MOL    H1221786   1.682   4.807   1.682  0.1719 -1.3819 -1.2750
   58MOL    H1321787   1.646   5.026   1.783  0.7237 -0.4853 -0.6505
   58MOL    H1421788   1.602   5.025   2.008 -0.1892 -0.2920  0.4446
   58MOL    H1521789   1.762   5.059   2.015 -0.4995  0.7262  1.5284
   58MOL    H1621790   1.487   4.849   1.989  2.4630 -0.0296 -1.6043
   58MOL    H1721791   1.307   4.713   2.125  0.6958 -3.0870 -0.9928
   58MOL    H1821792   1.384   4.546   2.281 -1.2133  0.3080 -1.6872
   58MOL    H1921793   1.620   4.530   2.342 -0.6208 -0.2650 -0.6662
   58MOL    H2021794   1.765   4.749   1.844  0.6391  0.2409 -0.2018
   58MOL    C2121795   1.829   4.679   2.266 -0.4808 -0.6043 -0.1847
   58MOL    C2221796   1.891   4.738   2.389 -0.5028  0.4488  0.3136
   58MOL    O2321797   1.843   4.603   2.385 -0.1764  1.0941  0.6657
   58MOL    C2421798   1.820   4.823   2.501  0.1900  0.3218 -0.2953
   58MOL    O2521799   1.898   4.906   2.590 -0.0783  0.2128 -0.2571
   58MOL    C2621800   2.003   4.860   2.667 -0.1001  0.2310 -0.1882
   58MOL    C2721801   2.005   4.729   2.716  0.5883  0.2075  0.0792
   58MOL    C2821802   2.112   4.682   2.795  0.2617 -0.0556  0.1158
   58MOL    C2921803   2.223   4.761   2.814 -0.4813  0.1022 -0.5228
   58MOL    C3021804   2.228   4.888   2.762  0.3799 -0.1968  0.3562
   58MOL    C3121805   2.117   4.937   2.680 -0.2065 -0.4441 -0.3658
   58MOL    H3221806   1.905   4.660   2.190 -0.8173  1.6128 -1.1115
   58MOL    H3321807   1.999   4.752   2.378 -0.6781 -0.4138 -2.7661
   58MOL    H3421808   1.770   4.743   2.556  1.7524 -1.2667 -1.1380
   58MOL    H3521809   1.750   4.892   2.454 -1.9785 -1.5731  0.0579
   58MOL    H3621810   1.923   4.660   2.700 -0.4309  1.4900 -0.3486
   58MOL    H3721811   2.112   4.587   2.847  0.7122  0.2099  0.6053
   58MOL    H3821812   2.296   4.718   2.880  0.8341 -0.3314 -2.2435
   58MOL    H3921813   2.311   4.955   2.778  0.9483 -0.5220 -1.1041
   58MOL    C4021814   2.125   5.075   2.613 -0.8211  0.4761 -0.3839
   58MOL    C4121815   2.037   5.186   2.652 -0.6274 -0.0436 -0.4849
   58MOL    O4221816   2.179   5.173   2.699  0.0943  0.3881 -0.0366
   58MOL    C4321817   1.940   5.170   2.772  0.0854 -0.0633  0.3370
   58MOL    O4421818   1.972   5.268   2.879  0.1076 -0.5763 -0.4195
   58MOL    C4521819   1.928   5.403   2.878  0.0455 -0.0155  0.5039
   58MOL    C4621820   1.843   5.449   2.777 -0.2317 -0.2380  0.4627
   58MOL    C4721821   1.829   5.589   2.766  0.3181  0.3720  0.2457
   58MOL    C4821822   1.899   5.675   2.849 -0.2396 -0.2982 -0.0032
   58MOL    C4921823   1.980   5.633   2.959  0.4380  0.1583  0.0712
   58MOL    C5021824   1.997   5.494   2.971  0.4565 -0.4167  0.8301
   58MOL    H5121825   2.185   5.077   2.522 -1.6996  1.4274 -0.9533
   58MOL    H5221826   2.017   5.266   2.581 -1.0246  0.0347 -0.2842
   58MOL    H5321827   1.941   5.075   2.824 -2.3962 -0.3291 -0.0526
   58MOL    H5421828   1.837   5.172   2.735 -0.7761 -0.0980  2.6008
   58MOL    H5521829   1.815   5.382   2.697  2.8073 -0.2822 -0.6288
   58MOL    H5621830   1.771   5.628   2.684 -0.1793 -1.5450 -0.3373
   58MOL    H5721831   1.876   5.779   2.831 -0.8501 -0.5441 -0.6582
   58MOL    H5821832   2.033   5.705   3.018 -0.3955  1.0785 -0.2801
   58MOL    C5921833   2.097   5.439   3.069 -0.6931  0.3464 -0.1784
   58MOL    C6021834   2.240   5.474   3.072 -0.1820  0.1063  0.3500
   58MOL    O6121835   2.148   5.535   3.164  0.1042 -0.2643 -0.0768
   58MOL    C6221836   2.325   5.574   2.986  0.3655  0.3918 -0.3779
   58MOL    O6321837   2.431   5.631   3.070  0.7960 -0.7352 -0.0512
   58MOL    C6421838   2.521   5.710   3.008  0.1527  0.3662  0.1430
   58MOL    C6521839   2.540   5.711   2.867  0.3106  0.4858 -0.8323
   58MOL    C6621840   2.613   5.808   2.798  0.0320  0.2363 -0.5025
   58MOL    C6721841   2.686   5.899   2.876 -0.1108 -0.4593 -0.0359
   58MOL    C6821842   2.680   5.892   3.018  0.3789  0.3202  0.5141
   58MOL    C6921843   2.596   5.801   3.087 -0.0359 -0.6791 -0.2642
   58MOL    H7021844   2.060   5.358   3.132 -1.2900  0.6059 -0.1885
   58MOL    H7121845   2.299   5.396   3.121 -0.4523  0.2087  0.8362
   58MOL    H7221846   2.253   5.641   2.939 -0.7723 -1.4514 -1.3546
   58MOL    H7321847   2.360   5.509   2.905  0.7023 -2.2035  1.7798
   58MOL    H7421848   2.493   5.639   2.802  1.5283 -2.0152  0.9470
   58MOL    H7521849   2.611   5.803   2.690 -1.5458 -0.9501 -0.4284
   58MOL    H7621850   2.749   5.977   2.836 -0.3270 -0.6132 -0.6673
   58MOL    H7721851   2.729   5.967   3.079 -0.8042  0.5423  1.1925
   58MOL    C7821852   2.575   5.819   3.235  0.0136 -0.5607  0.0660
   58MOL    C7921853   2.612   5.731   3.348  0.2761  0.2112  0.4502
   58MOL    O8021854   2.697   5.832   3.304 -0.3076 -0.2441  0.5128
   58MOL    C8121855   2.669   5.591   3.330  0.1970 -0.0340  0.1710
   58MOL    O8221856   2.758   5.564   3.433 -0.1511 -0.1722 -0.6749
   58MOL    C8321857   2.864   5.489   3.408 -0.1474 -0.0056 -0.4630
   58MOL    C8421858   2.852   5.356   3.350  0.0914 -0.5675  0.0107
   58MOL    C8521859   2.968   5.281   3.334 -0.2555  0.3016  0.5571
   58MOL    C8621860   3.092   5.326   3.378 -0.5083  0.6154  0.3406
   58MOL    C8721861   3.099   5.451   3.442  0.0338 -0.7808 -0.1502
   58MOL    C8821862   2.988   5.534   3.462 -0.5900  0.6475  0.6080
   58MOL    H8921863   2.505   5.900   3.255  0.8971  0.0728  0.6041
   58MOL    H9021864   2.550   5.748   3.435 -2.2189 -0.5270 -1.1318
   58MOL    H9121865   2.717   5.574   3.233 -0.0510  2.2072 -0.3839
   58MOL    H9221866   2.591   5.515   3.329  0.5265 -0.3829 -1.6055
   58MOL    H9321867   2.755   5.316   3.325 -0.6436  1.3821 -0.3145
   58MOL    H9421868   2.957   5.180   3.297 -2.1687  0.9497 -0.7037
   58MOL    H9521869   3.186   5.274   3.371 -1.2191 -0.7135  0.2610
   58MOL    H9621870   3.191   5.486   3.487 -0.7644 -1.1867  1.8492
   58MOL    C9721871   3.010   5.674   3.514 -0.3515  0.2341 -0.0349
   58MOL    C9821872   2.965   5.721   3.655 -0.0100 -0.1955  0.5101
   58MOL    O9921873   3.103   5.677   3.628 -0.0945  0.3234  0.7070
   58MOL   C10021874   2.916   5.631   3.764 -0.5264  0.2868 -0.1169
   58MOL   O10121875   2.773   5.602   3.769 -0.1998 -0.7610  0.2009
   58MOL   C10221876   2.691   5.713   3.782 -0.3551 -0.1769 -0.0291
   58MOL   C10321877   2.738   5.839   3.828  0.7247 -0.8004 -0.4569
   58MOL   C10421878   2.644   5.950   3.830  0.1509 -0.7435  0.3312
   58MOL   C10521879   2.511   5.936   3.793 -0.2304 -0.5592  0.2133
   58MOL   C10621880   2.473   5.816   3.745  0.3177  0.3161 -0.7380
   58MOL   C10721881   2.558   5.700   3.744 -0.4233  0.4898 -0.5269
   58MOL   H10821882   3.026   5.747   3.436  0.5354  1.2909  1.1148
   58MOL   H10921883   2.958   5.828   3.674 -0.4649 -0.0374 -0.4854
   58MOL   H11021884   2.955   5.653   3.863  1.1665 -0.5950 -0.5770
   58MOL   H11121885   2.959   5.534   3.740 -1.5003  0.2748 -1.8823
   58MOL   H11221886   2.838   5.858   3.862  0.8045 -2.0411  0.0289
   58MOL   H11321887   2.688   6.044   3.862  0.0551 -1.5481  2.9456
   58MOL   H11421888   2.439   6.016   3.801  0.6117  0.3643 -1.1786
   58MOL   H11521889   2.377   5.789   3.704  1.5865 -1.9928 -2.2789
   58MOL   C11621890   2.506   5.564   3.709 -0.2693  0.3337 -0.4714
   58MOL   C11721891   2.476   5.440   3.802 -0.3518  0.3820 -0.5856
   58MOL   O11821892   2.385   5.537   3.781  0.3490 -0.1801  0.2972
   58MOL   C11921893   2.514   5.433   3.955 -0.4505  0.0383 -0.0583
   58MOL   O12021894   2.414   5.365   4.034  0.2748  0.1869 -0.1545
   58MOL   C12121895   2.437   5.331   4.163  0.3499  0.2468 -0.2274
   58MOL   C12221896   2.566   5.337   4.221  0.9085 -0.1472  0.0872
   58MOL   C12321897   2.584   5.316   4.361 -0.4332  0.2786  0.4341
   58MOL   C12421898   2.474   5.283   4.442 -0.1272  0.0353 -0.5423
   58MOL   C12521899   2.347   5.281   4.386  0.0629 -0.0263  1.1148
   58MOL   C12621900   2.329   5.308   4.249  0.0270 -0.1875  0.3356
   58MOL   H12721901   2.506   5.545   3.601  0.0502 -1.3574 -0.1938
   58MOL   H12821902   2.448   5.348   3.753  0.0474 -0.1444  0.1676
   58MOL   H12921903   2.514   5.537   3.986  2.0459 -0.3286  1.2975
   58MOL   H13021904   2.615   5.390   3.955 -0.8144 -0.8351 -0.4901
   58MOL   H13121905   2.652   5.364   4.161  0.9602 -1.7434 -0.5795
   58MOL   H13221906   2.686   5.321   4.395 -1.1561 -2.1422  3.1000
   58MOL   H13321907   2.478   5.275   4.550  0.9724  3.3585 -0.2866
   58MOL   H13421908   2.271   5.255   4.457 -0.0853  3.1972  2.2333
   58MOL   C13521909   2.198   5.290   4.187  0.6105 -0.1005 -0.1560
   58MOL   C13621910   2.131   5.162   4.153 -0.7735  0.2578 -0.2202
   58MOL   O13721911   2.105   5.228   4.280 -0.3989 -0.4917 -0.0243
   58MOL   C13821912   2.204   5.036   4.164  0.0351  0.4909 -0.1484
   58MOL   O13921913   2.131   4.927   4.119 -0.0023 -1.0879 -0.1343
   58MOL   C14021914   2.015   4.889   4.184  0.5173  0.7747  0.4541
   58MOL   C14121915   1.987   4.914   4.318 -0.6919 -0.4088  0.2071
   58MOL   C14221916   1.863   4.887   4.378 -0.6850 -0.7893  0.3548
   58MOL   C14321917   1.767   4.818   4.302  0.5433  0.1091 -0.1581
   58MOL   C14421918   1.793   4.785   4.168 -0.8102 -0.2193  0.0029
   58MOL   C14521919   1.914   4.820   4.108  0.1754 -0.4525  0.4298
   58MOL   H14621920   2.170   5.370   4.119 -2.8105 -0.3158  0.9047
   58MOL   H14721921   2.034   5.154   4.103 -1.0137 -1.3686  0.4661
   58MOL   H14821922   2.235   5.021   4.267 -2.7441 -3.2587  0.2846
   58MOL   H14921923   2.292   5.042   4.101 -0.9709  2.3068 -1.4326
   58MOL   H15021924   2.050   4.981   4.375 -0.5327 -0.2898 -0.1062
   58MOL   H15121925   1.826   4.915   4.476 -2.4546 -2.6661  0.2560
   58MOL   H15221926   1.668   4.787   4.333 -0.5812  2.8032 -0.8828
   58MOL   H15321927   1.709   4.744   4.115  0.0369 -0.9295 -0.7942
   58MOL   C15421928   1.914   4.791   3.956  0.7570  0.3495  0.8521
   58MOL   C15521929   1.806   4.849   3.866 -0.0141 -0.2360 -0.0408
   58MOL   O15621930   1.938   4.906   3.872 -0.0382 -0.0478  0.3284
   58MOL   C15721931   1.694   4.945   3.907  0.0998  0.2910 -0.2570
   58MOL   O15821932   1.649   4.991   3.784  0.4172 -0.2068 -0.1922
   58MOL   C15921933   1.548   4.920   3.720 -0.3587  0.2621 -0.5078
   58MOL   C16021934   1.482   4.807   3.775 -0.4689  0.2871 -0.3080
   58MOL   C16121935   1.380   4.739   3.708 -0.0950  0.3942 -0.5083
   58MOL   C16221936   1.345   4.785   3.583  0.0344  0.1310 -0.3685
   58MOL   C16321937   1.412   4.895   3.523  1.4084  0.2214 -0.0347
   58MOL   C16421938   1.506   4.969   3.594  0.5274 -0.0844  0.8842
   58MOL   H16521939   1.956   4.695   3.926 -1.1161 -0.2299  0.0089
   58MOL   H16621940   1.776   4.785   3.783  1.0498 -1.3525  0.4235
   58MOL   H16721941   1.736   5.026   3.966  0.5112  0.1506 -0.3567
   58MOL   H16821942   1.620   4.904   3.975  0.5229  1.8500  1.1649
   58MOL   H16921943   1.515   4.764   3.868 -1.7271 -0.9271 -0.4168
   58MOL   H17021944   1.328   4.661   3.761 -0.2563  0.6755 -0.2542
   58MOL   H17121945   1.261   4.732   3.540  0.7123 -1.4411  0.2137
   58MOL   H17221946   1.385   4.933   3.425  1.0040  1.1646  0.4408
   58MOL   C17321947   1.535   5.103   3.542  0.5228  0.1011  0.1702
   58MOL   C17421948   1.659   5.160   3.485 -0.1352 -0.4390  0.0240
   58MOL   O17521949   1.559   5.101   3.402 -0.4281 -0.6908  1.1104
   58MOL   C17621950   1.792   5.085   3.487  0.1200  0.3806  0.5191
   58MOL   O17721951   1.867   5.137   3.595 -0.7679  0.2979  0.1626
   58MOL   C17821952   1.942   5.252   3.580  0.2931  0.0049  0.1134
   58MOL   C17921953   1.925   5.336   3.465  0.4271  0.4005  0.5526
   58MOL   C18021954   2.001   5.455   3.457 -0.4171 -0.4945 -0.2451
   58MOL   C18121955   2.079   5.497   3.566  0.5479 -0.6572 -0.1493
   58MOL   C18221956   2.101   5.412   3.676 -0.1580  0.8900  0.2783
   58MOL   C18321957   2.037   5.287   3.680 -0.8445 -0.6450  0.0162
   58MOL   H18421958   1.460   5.174   3.577  0.3400 -1.0534  2.1938
   58MOL   H18521959   1.661   5.268   3.474  0.5848 -0.4619 -0.0724
   58MOL   H18621960   1.830   5.090   3.385  1.1290 -0.6478  0.8380
   58MOL   H18721961   1.761   4.981   3.495 -0.5264  0.6952  2.3388
   58MOL   H18821962   1.858   5.312   3.384 -0.6245  3.8030  0.3228
   58MOL   H18921963   1.990   5.522   3.373 -0.6879  1.4810  1.3261
   58MOL   H19021964   2.118   5.597   3.567  1.8200 -1.1513  0.6069
   58MOL   H19121965   2.176   5.434   3.751  2.2588 -3.6739 -0.5770
   58MOL   C19221966   2.065   5.192   3.798  0.5220  0.4842 -0.0586
   58MOL   C19321967   2.176   5.091   3.802  0.5299  0.6270 -0.4449
   58MOL   O19421968   2.183   5.224   3.865 -0.2847  0.6471  0.6432
   58MOL   C19521969   2.268   5.069   3.683 -0.3256 -0.1805 -0.1524
   58MOL   O19621970   2.317   4.933   3.686  0.1396 -0.0777  0.2051
   58MOL   C19721971   2.234   4.830   3.652  0.5882 -0.3723  0.1292
   58MOL   C19821972   2.094   4.846   3.608  0.0121 -0.4534  0.2826
   58MOL   C19921973   2.018   4.728   3.588  0.1844 -0.1984  0.0155
   58MOL   C20021974   2.077   4.600   3.588 -0.5366 -0.2835 -0.2976
   58MOL   C20121975   2.212   4.585   3.634  0.1085 -0.2577  0.1534
   58MOL   C20221976   2.290   4.696   3.671  1.2140 -0.6226 -0.8310
   58MOL   H20321977   1.976   5.174   3.857  1.5351 -0.0026  1.3566
   58MOL   H20421978   2.151   5.001   3.859 -0.9795  0.9392 -0.5719
   58MOL   H20521979   2.345   5.146   3.686  0.0311 -0.4788 -1.4029
   58MOL   H20621980   2.215   5.088   3.589  0.9951 -0.0291 -0.8744
   58MOL   H20721981   2.045   4.939   3.580 -2.8586 -2.0018  0.0362
   58MOL   H20821982   1.916   4.752   3.561 -0.0070  1.1924  1.8740
   58MOL   H20921983   2.026   4.508   3.564  0.0099 -0.6600 -0.0412
   58MOL   H21021984   2.255   4.486   3.631  1.4196  0.3450 -2.1793
   58MOL   C21121985   2.434   4.689   3.720 -0.0715  0.4563 -0.5682
   58MOL   C21221986   2.472   4.723   3.861 -0.1594  0.1159  0.1109
   58MOL   O21321987   2.460   4.594   3.816  0.1182 -0.3620  0.0424
   58MOL   C21421988   2.371   4.760   3.968 -0.4309 -0.0433  0.8095
   58MOL   O21521989   2.416   4.737   4.100  1.0252 -0.4747  0.2528
   58MOL   C21621990   2.421   4.609   4.151  0.0717 -0.2527 -0.3534
   58MOL   C21721991   2.327   4.513   4.115 -0.6852 -0.7481 -0.0122
   58MOL   C21821992   2.324   4.389   4.182  0.5071 -0.2941  0.1029
   58MOL   C21921993   2.417   4.366   4.289  0.2072  0.7078  0.4117
   58MOL   C22021994   2.525   4.454   4.306  0.9454  0.6386  0.1367
   58MOL   C22121995   2.517   4.586   4.248 -0.8338  0.6000  0.6778
   58MOL   H22221996   2.514   4.700   3.647  0.8742 -3.1610 -0.1466
   58MOL   H22321997   2.574   4.758   3.877  0.3706 -1.1910 -0.2921
   58MOL   H22421998   2.272   4.717   3.951  0.2097 -1.0099 -0.6205
   58MOL   H22521999   2.349   4.865   3.950  2.8472  0.3487 -1.2767
   58MOL   H22622000   2.242   4.537   4.053  0.2633 -0.2185 -1.1022
   58MOL   H22722001   2.248   4.315   4.161  0.8488 -0.5677 -0.1620
   58MOL   H22822002   2.406   4.273   4.344 -0.6278  0.3099 -0.4094
   58MOL   H22922003   2.610   4.423   4.366  0.2538  0.0713  0.8375
   58MOL   C23022004   2.630   4.680   4.270 -0.1054  0.7510  0.2345
   58MOL   C23122005   2.622   4.807   4.353  0.2976  1.1142 -0.3753
   58MOL   O23222006   2.680   4.679   4.404  0.5462 -0.2402  0.5251
   58MOL   C23322007   2.480   4.851   4.399 -0.8627  0.3512  1.2877
   58MOL   O23422008   2.498   4.885   4.535  0.5364 -0.4103  0.2625
   58MOL   C23522009   2.404   4.962   4.597  0.0512  0.0665 -0.7263
   58MOL   C23622010   2.272   4.969   4.548 -0.6606  0.8151  0.0565
   58MOL   C23722011   2.187   5.059   4.616  0.2080  0.4395 -0.5651
   58MOL   C23822012   2.233   5.134   4.729  0.5346 -0.1654  0.1123
   58MOL   C23922013   2.358   5.112   4.780  0.0712 -0.6233 -0.0684
   58MOL   C24022014   2.445   5.026   4.714 -0.8403  0.0338 -0.3495
   58MOL   H24122015   2.698   4.676   4.185  0.0225  0.1501  0.3634
   58MOL   H24222016   2.699   4.884   4.363  1.6915 -0.2251 -0.5388
   58MOL   H24322017   2.408   4.774   4.375 -2.3236  1.9942  0.2656
   58MOL   H24422018   2.461   4.944   4.346  0.6057  0.5304  1.0534
   58MOL   H24522019   2.240   4.907   4.466  1.0581 -0.1709  0.0975
   58MOL   H24622020   2.089   5.082   4.576  0.1959 -1.6240 -1.8303
   58MOL   H24722021   2.162   5.206   4.767 -1.8644 -1.5396 -1.6428
   58MOL   H24822022   2.393   5.181   4.856  1.6500 -1.3568 -0.1157
   58MOL   C24922023   2.572   4.984   4.786 -0.2618  0.2393 -0.3569
   58MOL   C25022024   2.716   5.007   4.736  0.0817 -0.2584  0.4097
   58MOL   O25122025   2.652   5.092   4.831  0.8959 -0.1561 -0.1943
   58MOL   C25222026   2.754   5.074   4.607  0.5478  0.2477 -0.4616
   58MOL   O25322027   2.825   4.987   4.531 -0.1416  0.1965  0.2471
   58MOL   C25422028   2.939   5.029   4.467 -0.5879  0.0095 -0.5332
   58MOL   C25522029   2.970   5.161   4.429 -0.8086  0.1056  0.2220
   58MOL   C25622030   3.090   5.196   4.367 -0.5832  0.6215 -0.1574
   58MOL   C25722031   3.190   5.102   4.345 -0.8702  0.0933  0.1809
   58MOL   C25822032   3.160   4.967   4.384 -0.1050  0.0433  0.1540
   58MOL   C25922033   3.036   4.928   4.435  0.0923 -0.1053 -0.0783
   58MOL   H26022034   2.558   4.899   4.853 -1.0053 -0.8985 -1.9327
   58MOL   H26122035   2.793   4.939   4.773  1.2346  1.3570  1.0640
   58MOL   H26222036   2.818   5.157   4.638  1.5233 -0.3854 -0.7544
   58MOL   H26322037   2.664   5.104   4.554  0.2286  1.4463  0.7518
   58MOL   H26422038   2.900   5.238   4.455 -3.0639 -0.6526 -3.1920
   58MOL   H26522039   3.115   5.299   4.346 -1.8218  0.9517 -0.0549
   58MOL   H26622040   3.286   5.126   4.302 -1.6453 -1.1205 -2.3955
   58MOL   H26722041   3.228   4.884   4.371 -0.2512 -0.4071  2.1177
   58MOL   C26822042   2.996   4.776   4.465  0.3545 -0.4160  0.4732
   58MOL   C26922043   3.018   4.661   4.366 -0.0829 -0.2234 -0.1553
   58MOL   O27022044   3.111   4.687   4.475 -0.0875 -0.3520  0.5733
   58MOL   C27122045   3.069   4.679   4.227 -0.3262 -0.8954 -0.3110
   58MOL   O27222046   3.073   4.549   4.162 -0.1906 -0.2590  0.2665
   58MOL   C27322047   3.143   4.446   4.228  0.6240  0.2099  0.0145
   58MOL   C27422048   3.244   4.469   4.329  0.0507  0.3743 -0.0299
   58MOL   C27522049   3.301   4.366   4.400  0.4153  0.6972  0.6541
   58MOL   C27622050   3.267   4.231   4.368  0.5731  0.1104 -0.6096
   58MOL   C27722051   3.166   4.202   4.268 -0.7074 -0.0486  0.0106
   58MOL   C27822052   3.109   4.315   4.196 -0.2791 -0.3710 -0.8071
   58MOL   H27922053   2.932   4.771   4.553 -1.0760  0.8931 -0.4763
   58MOL   H28022054   2.961   4.570   4.383 -2.1137  1.1086  0.2216
   58MOL   H28122055   3.172   4.714   4.228 -0.5332 -0.2920  0.3755
   58MOL   H28222056   3.012   4.753   4.171  2.4883 -0.3446 -2.5379
   58MOL   H28322057   3.267   4.567   4.367  1.8943 -0.5209  1.2760
   58MOL   H28422058   3.370   4.381   4.482  0.9470 -1.0692  0.5537
   58MOL   H28522059   3.321   4.150   4.414  2.4169 -0.1425 -3.1546
   58MOL   H28622060   3.139   4.102   4.237  1.2753  0.1695 -2.5773
   58MOL   C28722061   3.027   4.291   4.077  0.3031  0.3749 -0.9473
   58MOL   C28822062   3.088   4.296   3.938  0.3149 -0.2066  0.5231
   58MOL   O28922063   3.065   4.172   4.005  0.4945  0.6497 -0.1671
   58MOL   C29022064   3.235   4.326   3.902  0.4414  0.0909 -0.5549
   58MOL   O29122065   3.299   4.246   3.803 -0.4827  0.4165  0.2406
   58MOL   C29222066   3.249   4.237   3.674  0.5316 -0.1408  0.4033
   58MOL   C29322067   3.186   4.349   3.615 -0.1009 -0.0788 -0.1030
   58MOL   C29422068   3.142   4.335   3.478  0.2663 -0.2836  0.4912
   58MOL   C29522069   3.174   4.226   3.402 -0.2206 -0.5123 -0.1505
   58MOL   C29622070   3.239   4.119   3.466  0.1423  0.1951  0.1278
   58MOL   C29722071   3.272   4.118   3.602  0.5196  0.0789  0.3029
   58MOL   H29822072   2.920   4.310   4.080 -0.4068 -3.1503 -1.5185
   58MOL   H29922073   3.027   4.298   3.848 -0.8171 -0.2239  1.2924
   58MOL   H30022074   3.300   4.329   3.990  2.8453  2.5025 -2.3233
   58MOL   H30122075   3.253   4.427   3.864  2.3023  0.4942  1.3006
   58MOL   H30222076   3.159   4.443   3.661 -0.1014 -0.4666  0.6952
   58MOL   H30322077   3.091   4.418   3.432  2.3357  0.7558  0.0170
   58MOL   H30422078   3.156   4.210   3.297 -1.2828  0.1514 -0.0794
   58MOL   H30522079   3.263   4.037   3.399  0.1024 -1.1036  1.6815
   58MOL   C30622080   3.307   3.985   3.666 -0.1286  0.5375  0.6528
   58MOL   C30722081   3.199   3.900   3.734  0.2859  0.7467 -0.5879
   58MOL   O30822082   3.248   3.869   3.605  0.3081 -0.2635  0.0267
   58MOL   C30922083   3.046   3.926   3.742  0.3398  0.0604 -0.1798
   58MOL   O31022084   2.993   3.965   3.615 -0.1474 -0.5000 -0.1959
   58MOL   C31122085   2.859   3.949   3.592 -0.1133 -0.5719 -0.1170
   58MOL   C31222086   2.768   3.934   3.699 -0.0063 -0.4547 -0.0235
   58MOL   C31322087   2.628   3.934   3.667  0.2807 -0.1574 -0.8305
   58MOL   C31422088   2.578   3.943   3.539  0.0710  0.2959  0.1812
   58MOL   C31522089   2.672   3.963   3.431  0.2432  0.5626 -0.3125
   58MOL   C31622090   2.812   3.963   3.460  0.2417  0.0499  0.0497
   58MOL   H31722091   3.412   3.964   3.689 -0.2961 -1.6042 -0.4517
   58MOL   H31822092   3.230   3.825   3.807 -1.1058  1.1776  0.4459
   58MOL   H31922093   3.027   4.000   3.819  0.1516 -1.5717  1.3629
   58MOL   H32022094   2.999   3.835   3.779  1.3310  0.8243  3.1067
   58MOL   H32122095   2.797   3.936   3.803 -0.2016  0.8052  0.0124
   58MOL   H32222096   2.560   3.938   3.751  1.3021  0.4771 -0.0158
   58MOL   H32322097   2.472   3.929   3.523  0.2513 -0.6645 -0.1648
   58MOL   H32422098   2.649   3.967   3.326 -2.0920 -1.0223  0.0883
   58MOL   C32522099   2.912   3.973   3.357 -0.0714 -0.3130 -0.0586
   58MOL   C32622100   2.996   3.858   3.312  0.0059  0.2469 -0.2928
   58MOL   O32722101   2.875   3.898   3.242 -1.2318  0.0368  0.1895
   58MOL   C32822102   2.989   3.728   3.391 -0.4371 -0.3708 -0.3120
   58MOL   O32922103   3.070   3.616   3.348  0.3249  0.6796 -0.3338
   58MOL   C33022104   3.038   3.545   3.233 -0.6850  0.7089 -0.1299
   58MOL   C33122105   2.915   3.560   3.163  0.5229  1.2742 -0.0551
   58MOL   C33222106   2.890   3.481   3.048  0.2222 -0.0001 -0.2855
   58MOL   C33322107   2.993   3.392   2.999 -0.0737 -0.0890  0.2075
   58MOL   C33422108   3.110   3.368   3.075 -0.5496  0.0990 -0.2038
   58MOL   C33522109   3.137   3.452   3.188 -0.2743  0.6531 -0.7017
   58MOL   H33622110   2.946   4.076   3.351 -0.4704 -0.1471  0.4696
   58MOL   H33722111   3.091   3.887   3.268  0.3123  1.3766  1.0723
   58MOL   H33822112   2.887   3.695   3.406 -0.1391 -1.4071 -0.4920
   58MOL   H33922113   3.028   3.750   3.490  1.7219  0.9771 -1.4223
   58MOL   H34022114   2.841   3.632   3.192 -2.0498 -1.4246  0.2557
   58MOL   H34122115   2.802   3.490   2.986  0.8487 -1.4576 -1.4341
   58MOL   H34222116   2.986   3.337   2.907  0.2024 -0.4206  0.3852
   58MOL   H34322117   3.173   3.285   3.046 -0.0082  1.0508 -1.7942
   58MOL   C34422118   3.269   3.444   3.250 -0.3356  0.8041  0.0645
   58MOL   C34522119   3.345   3.321   3.311  1.0382  0.2459  0.4871
   58MOL   O34622120   3.364   3.373   3.176  0.4039  0.2369 -0.0354
   58MOL   C34722121   3.278   3.180   3.312  0.2837 -0.0244 -0.3166
   58MOL   O34822122   3.367   3.080   3.274 -0.0163 -0.3393 -0.3051
   58MOL   C34922123   3.457   3.036   3.370  0.2249 -0.1917  0.1743
   58MOL   C35022124   3.450   3.069   3.507  0.7458  0.3710  0.6648
   58MOL   C35122125   3.548   3.010   3.590  0.2879  0.3750  1.0923
   58MOL   C35222126   3.657   2.932   3.538 -0.4965  1.1418  0.2223
   58MOL   C35322127   3.655   2.894   3.403 -0.1753  0.3184 -0.7614
   58MOL   C35422128   3.553   2.939   3.325 -0.0444  0.3782 -0.2113
   58MOL   H35522129   3.304   3.547   3.252  1.6559  0.1500  0.7885
   58MOL   H35622130   3.413   3.344   3.392  0.2510  2.7581  0.4711
   58MOL   H35722131   3.183   3.185   3.260  0.2283 -2.1098 -0.4845
   58MOL   H35822132   3.230   3.160   3.408  1.0066  2.2551  0.5579
   58MOL   H35922133   3.371   3.133   3.544 -0.3237 -0.1471 -0.6785
   58MOL   H36022134   3.544   3.039   3.694  0.9410 -2.1328  1.8363
   58MOL   H36122135   3.727   2.894   3.611  0.5125  1.1322 -0.7412
   58MOL   H36222136   3.726   2.824   3.362  0.1133  0.1374  0.0453
   58MOL   C36322137   3.545   2.898   3.180  0.3648 -0.1671 -0.0605
   58MOL   C36422138   3.575   2.985   3.055 -0.3706  0.0673  0.3277
   58MOL   O36522139   3.677   2.908   3.120 -0.1364  0.5077 -0.1149
   58MOL   C36622140   3.582   3.131   3.044  0.5720 -0.1771 -1.1096
   58MOL   O36722141   3.638   3.155   2.923  0.3654  0.3804 -0.1464
   58MOL   C36822142   3.657   3.280   2.876  0.5795  0.0091 -0.0151
   58MOL   C36922143   3.691   3.292   2.739  0.1382 -0.2836  0.2804
   58MOL   C37022144   3.712   3.416   2.672 -0.4604 -0.7631 -0.7227
   58MOL   C37122145   3.727   3.529   2.758  0.6078 -0.1894 -0.8329
   58MOL   C37222146   3.697   3.518   2.894  0.3678  0.1322 -0.1098
   58MOL   C37322147   3.664   3.395   2.955  0.0441  0.2129 -0.0070
   58MOL   H37422148   3.513   2.794   3.170 -2.6750  0.8622 -1.4550
   58MOL   H37522149   3.539   2.929   2.969  0.9770 -2.5761  1.4422
   58MOL   H37622150   3.646   3.172   3.123 -1.6832  1.4435 -0.0662
   58MOL   H37722151   3.481   3.170   3.053  0.1285 -1.8756  1.9339
   58MOL   H37822152   3.703   3.201   2.682  1.2786 -0.0836  0.1864
   58MOL   H37922153   3.738   3.425   2.568 -3.5317 -1.5536 -1.6106
   58MOL   H38022154   3.750   3.626   2.716 -0.9831  1.2941  1.5733
   58MOL   H38122155   3.703   3.605   2.957 -0.2548  0.4107 -0.4256
   58MOL   H38222156   3.652   3.393   3.062 -1.2642  2.4113 -0.0733
   59MOL     C122157   1.012   0.725   1.188 -0.6719  1.0189 -0.7684
   59MOL     C222158   0.952   0.773   1.319  0.3846 -0.4359 -0.2069
   59MOL     O322159   0.894   0.668   1.252  0.0930  0.0209 -0.1813
   59MOL     C422160   0.867   0.888   1.345 -0.0990  0.5745 -0.2681
   59MOL     O522161   0.796   0.863   1.470 -0.1033  0.4520 -0.5794
   59MOL     C622162   0.744   0.972   1.540 -0.0270  0.0519 -0.2048
   59MOL     C722163   0.711   1.099   1.470 -0.6497 -0.7152  0.6223
   59MOL     C822164   0.650   1.201   1.539  0.1134 -0.0627  0.1557
   59MOL     C922165   0.615   1.188   1.673 -0.2040 -0.7112  0.2146
   59MOL    C1022166   0.651   1.074   1.743  0.3405 -0.3843 -0.4990
   59MOL    C1122167   0.713   0.964   1.678 -0.2140 -0.0126 -0.2446
   59MOL    H1222168   1.112   0.686   1.208 -1.6232 -1.3652 -0.5243
   59MOL    H1322169   1.012   0.739   1.404  0.4474 -0.0806 -0.1082
   59MOL    H1422170   0.790   0.881   1.268  1.3334 -2.9708 -1.4911
   59MOL    H1522171   0.933   0.975   1.351 -2.1218  2.1169 -0.0453
   59MOL    H1622172   0.723   1.111   1.363  0.6176  0.7811  0.9116
   59MOL    H1722173   0.621   1.288   1.483  0.8406  0.9525  1.3342
   59MOL    H1822174   0.548   1.262   1.714  0.7576 -0.3469  1.1564
   59MOL    H1922175   0.626   1.069   1.848 -2.0999  1.0202 -0.9551
   59MOL    H2022176   0.997   0.782   1.096  1.8495  1.0370 -1.2199
   59MOL    C2122177   0.750   0.835   1.745  0.3715 -0.4351  0.5492
   59MOL    C2222178   0.893   0.790   1.762  0.2443 -0.3092 -0.4318
   59MOL    O2322179   0.813   0.840   1.866 -0.2596 -0.0700 -0.1632
   59MOL    C2422180   1.011   0.875   1.735 -0.4404  0.5308  0.2280
   59MOL    O2522181   1.118   0.864   1.833 -0.8491 -0.1254  0.0129
   59MOL    C2622182   1.244   0.911   1.800  0.1165 -0.0583 -0.2915
   59MOL    C2722183   1.266   1.015   1.702 -0.0948  0.4171 -0.8229
   59MOL    C2822184   1.395   1.076   1.683  0.3587 -0.2297  0.9703
   59MOL    C2922185   1.507   1.026   1.751 -0.2277  0.1415  0.0843
   59MOL    C3022186   1.488   0.915   1.841 -0.2441  0.4293  0.0246
   59MOL    C3122187   1.360   0.866   1.867 -0.0331  0.3326 -0.3564
   59MOL    H3222188   0.666   0.766   1.748  1.4599 -1.8251 -0.5160
   59MOL    H3322189   0.912   0.683   1.769 -1.1318 -0.4516  1.5650
   59MOL    H3422190   0.980   0.979   1.738 -1.6268  0.2895 -2.2872
   59MOL    H3522191   1.049   0.864   1.633  3.9772  0.1569  1.7660
   59MOL    H3622192   1.176   1.065   1.670  0.6664  2.6250  0.3940
   59MOL    H3722193   1.398   1.163   1.618 -1.0740  0.9665  2.4648
   59MOL    H3822194   1.607   1.065   1.736  0.1039 -0.0831  1.6103
   59MOL    H3922195   1.578   0.876   1.887 -1.8673 -2.4491  0.8361
   59MOL    C4022196   1.352   0.760   1.967  0.4695 -0.0582  0.3981
   59MOL    C4122197   1.343   0.611   1.928 -0.1764 -0.7880 -0.1100
   59MOL    O4222198   1.464   0.671   1.964 -0.5483 -0.4540  0.1179
   59MOL    C4322199   1.329   0.565   1.780  1.2093  0.3506 -0.2048
   59MOL    O4422200   1.363   0.430   1.780 -0.8828  0.2082 -0.0316
   59MOL    C4522201   1.494   0.394   1.735  0.3741 -0.8099  0.1806
   59MOL    C4622202   1.597   0.487   1.714  0.2916  0.0767 -0.3723
   59MOL    C4722203   1.724   0.436   1.679 -0.6716  0.4952  0.5903
   59MOL    C4822204   1.754   0.297   1.663  0.0013 -0.5010 -0.7017
   59MOL    C4922205   1.642   0.209   1.681  0.1336 -0.7529 -0.1198
   59MOL    C5022206   1.519   0.257   1.716  1.1080 -0.3120  0.1918
   59MOL    H5122207   1.330   0.806   2.063 -0.2328 -0.7252  0.5660
   59MOL    H5222208   1.292   0.545   1.997  1.5452 -0.7776  1.1959
   59MOL    H5322209   1.387   0.631   1.716  0.7970  0.3159 -0.6142
   59MOL    H5422210   1.223   0.570   1.754  1.1266  0.5772  0.1626
   59MOL    H5522211   1.593   0.594   1.728  2.9252  0.1810 -0.2165
   59MOL    H5622212   1.814   0.496   1.669  0.6449 -1.2977  1.2789
   59MOL    H5722213   1.857   0.268   1.650  0.8522  1.1808  1.9059
   59MOL    H5822214   1.639   0.102   1.672 -0.2815 -0.8608  1.1537
   59MOL    C5922215   1.403   0.162   1.714  0.2260 -0.1751  0.0513
   59MOL    C6022216   1.312   0.153   1.590  0.1412  0.2535 -0.6929
   59MOL    O6122217   1.421   0.061   1.614 -0.0574 -0.6555 -0.0405
   59MOL    C6222218   1.341   0.237   1.469  0.3121  0.0320 -0.1358
   59MOL    O6322219   1.279   0.171   1.365 -0.0754 -0.2778  0.7461
   59MOL    C6422220   1.247   0.245   1.248 -0.7423 -0.5252 -0.0440
   59MOL    C6522221   1.300   0.370   1.219 -0.3265 -0.1259 -0.3841
   59MOL    C6622222   1.267   0.446   1.107 -0.2703 -0.3169 -0.2115
   59MOL    C6722223   1.169   0.400   1.018 -0.1740  0.0671  0.2265
   59MOL    C6822224   1.116   0.271   1.040 -0.2096  0.5717  0.4056
   59MOL    C6922225   1.151   0.194   1.155 -0.3169  0.0691  0.3325
   59MOL    H7022226   1.371   0.124   1.810 -3.0812 -0.6444 -1.1559
   59MOL    H7122227   1.217   0.101   1.596 -0.1339  0.9477  1.4083
   59MOL    H7222228   1.447   0.249   1.449  0.1781 -0.9241 -1.5231
   59MOL    H7322229   1.294   0.336   1.479  1.4652  0.5612  0.0932
   59MOL    H7422230   1.354   0.416   1.300 -2.9421 -1.3527  2.1517
   59MOL    H7522231   1.287   0.552   1.101  0.4844 -0.4971 -0.8939
   59MOL    H7622232   1.154   0.465   0.933 -1.4147 -0.6395 -0.1024
   59MOL    H7722233   1.048   0.222   0.972  0.4436  0.9806 -0.5460
   59MOL    C7822234   1.095   0.058   1.173 -0.5562  0.2275  0.4962
   59MOL    C7922235   0.975   0.031   1.255 -0.2938  0.3873 -0.0614
   59MOL    O8022236   0.965   0.047   1.111 -0.2478  0.0936 -0.3068
   59MOL    C8122237   0.926   0.149   1.336  0.4563 -0.2080 -0.2845
   59MOL    O8222238   0.792   0.124   1.377  0.3827 -0.1660 -0.5371
   59MOL    C8322239   0.720   0.233   1.409 -0.1613  0.4093  0.2077
   59MOL    C8422240   0.780   0.359   1.430  0.2498 -0.6116  0.1066
   59MOL    C8522241   0.703   0.475   1.439 -0.0773 -0.0330 -0.9471
   59MOL    C8622242   0.566   0.464   1.443  0.6249 -0.0479 -0.6030
   59MOL    C8722243   0.506   0.340   1.438 -0.2043  0.8268 -0.2587
   59MOL    C8822244   0.582   0.222   1.415  0.4286 -0.3318 -0.2697
   59MOL    H8922245   1.163   8.146   1.153 -1.2343  0.0416 -1.0972
   59MOL    H9022246   0.950   8.100   1.287 -0.0066 -0.4855 -2.4691
   59MOL    H9122247   0.943   0.239   1.277  1.4103  0.4763  1.0134
   59MOL    H9222248   0.988   0.166   1.424 -0.6365 -0.4139  0.5435
   59MOL    H9322249   0.886   0.372   1.443  0.4661 -2.2990  0.1387
   59MOL    H9422250   0.755   0.570   1.442  1.7773 -1.0179 -0.8915
   59MOL    H9522251   0.501   0.549   1.455  0.4909 -0.1784 -0.4011
   59MOL    H9622252   0.403   0.320   1.465  0.3949 -0.6121  1.0301
   59MOL    C9722253   0.515   0.086   1.394 -0.5416 -0.5518  0.6128
   59MOL    C9822254   0.541   8.136   1.480 -0.5911  0.4581  0.7532
   59MOL    O9922255   0.417   0.042   1.494  0.4647  0.1510 -0.1316
   59MOL   C10022256   0.629   8.153   1.595  0.0384  0.4819  0.4204
   59MOL   O10122257   0.576   8.061   1.704 -0.3172  0.4152 -0.2520
   59MOL   C10222258   0.664   8.038   1.810  0.5039 -0.7987 -0.2007
   59MOL   C10322259   0.803   8.082   1.823 -0.1557  0.1571  0.0277
   59MOL   C10422260   0.899   8.035   1.920  0.5671 -0.6959  0.5902
   59MOL   C10522261   0.837   7.966   2.029 -0.2680  0.3133  0.4949
   59MOL   C10622262   0.701   7.929   2.021  0.4813  1.1643 -0.4194
   59MOL   C10722263   0.611   7.966   1.919  0.4263  0.7841  0.0597
   59MOL   H10822264   0.486   0.082   1.289  1.7982  0.2658 -0.0879
   59MOL   H10922265   0.526   8.036   1.440 -0.5749  0.8802 -0.3221
   59MOL   H11022266   0.631   0.082   1.640  1.5202 -0.6780  3.0141
   59MOL   H11122267   0.730   8.116   1.574 -0.3977 -0.2199 -0.5256
   59MOL   H11222268   0.857   8.137   1.748 -0.5617 -0.0387 -0.4127
   59MOL   H11322269   1.004   8.063   1.921  0.2813  0.4315  0.2937
   59MOL   H11422270   0.904   7.939   2.109  0.8096 -0.7409 -0.7435
   59MOL   H11522271   0.658   7.871   2.101  0.5199  0.4545 -0.9068
   59MOL   C11622272   0.468   7.917   1.926  0.1587 -0.5979 -0.6681
   59MOL   C11722273   0.407   7.811   1.833  0.6063  0.0932 -0.2209
   59MOL   O11822274   0.470   7.778   1.954 -0.3525  0.1348  0.1321
   59MOL   C11922275   0.480   7.777   1.710 -0.7127 -0.1529 -0.0240
   59MOL   O12022276   0.435   7.663   1.641  0.6248 -1.0175 -0.0551
   59MOL   C12122277   0.321   7.674   1.566 -0.0849 -0.1772 -0.2950
   59MOL   C12222278   0.248   7.797   1.548  0.1772 -0.0726  0.6344
   59MOL   C12322279   0.144   7.804   1.450  1.1222  0.5442 -0.7256
   59MOL   C12422280   0.105   7.686   1.388 -0.6782 -0.4100 -0.6339
   59MOL   C12522281   0.173   7.569   1.415  0.6236 -0.0660 -0.8052
   59MOL   C12622282   0.278   7.556   1.507  0.7856  0.0326  0.0955
   59MOL   H12722283   0.413   7.971   2.003  0.5936  0.2051 -0.9141
   59MOL   H12822284   0.300   7.792   1.837  0.4039  0.7001 -2.4200
   59MOL   H12922285   0.584   7.755   1.735 -0.9675 -0.6968  0.5750
   59MOL   H13022286   0.482   7.857   1.636 -0.1069  1.2348  1.4550
   59MOL   H13122287   0.272   7.891   1.595 -0.1195  1.1139 -1.4888
   59MOL   H13222288   0.100   7.900   1.428  0.2324  0.1682 -0.5935
   59MOL   H13322289   0.023   7.689   1.319  0.2525  1.2116 -1.6864
   59MOL   H13422290   0.150   7.481   1.357 -0.9309 -0.7443  0.7759
   59MOL   C13522291   0.352   7.430   1.526 -0.2502 -0.0837 -0.5349
   59MOL   C13622292   0.342   7.340   1.647  0.7600 -0.0159 -0.1991
   59MOL   O13722293   0.260   7.321   1.540  0.2086  0.1274  0.1661
   59MOL   C13822294   0.274   7.388   1.773 -0.6929 -0.1071  0.6900
   59MOL   O13922295   0.320   7.312   1.887 -0.2648  0.2156  0.1019
   59MOL   C14022296   0.288   7.355   2.014  0.0440  0.3704 -0.0490
   59MOL   C14122297   0.204   7.468   2.041 -0.1472  0.3815  0.4738
   59MOL   C14222298   0.187   7.520   2.171  0.3695  0.0993  0.5700
   59MOL   C14322299   0.232   7.437   2.278 -0.1285 -0.5970 -0.0933
   59MOL   C14422300   0.311   7.323   2.252 -0.4318 -0.4166  0.2994
   59MOL   C14522301   0.347   7.284   2.117  0.5758  0.4899  1.2394
   59MOL   H14622302   0.420   7.412   1.443  0.7087 -0.8578  0.4021
   59MOL   H14722303   0.427   7.274   1.661 -0.2682 -1.2907  0.1677
   59MOL   H14822304   0.166   7.392   1.759 -0.7612  0.2497  1.2880
   59MOL   H14922305   0.315   7.488   1.790  3.6203 -1.5770 -0.4638
   59MOL   H15022306   0.148   7.519   1.964  0.8646 -0.9221 -1.1849
   59MOL   H15122307   0.132   7.612   2.186  1.0169  0.5223  0.3637
   59MOL   H15222308   0.216   7.464   2.381 -1.0989  0.7896 -0.5903
   59MOL   H15322309   0.336   7.256   2.333 -0.1569  1.7081  1.9908
   59MOL   C15422310   0.423   7.162   2.092 -0.5815  0.4185  0.9688
   59MOL   C15522311   0.567   7.156   2.042  0.2001 -0.5522  0.0048
   59MOL   O15622312   0.536   7.134   2.179 -0.0760  0.2234 -0.3816
   59MOL   C15722313   0.655   7.274   2.023 -0.3638 -0.2813  0.8091
   59MOL   O15822314   0.790   7.238   2.040  0.3982  0.2716  0.4661
   59MOL   C15922315   0.877   7.342   2.056  0.2155 -0.7689  0.3104
   59MOL   C16022316   0.843   7.475   2.029  0.5196  0.4249 -0.0801
   59MOL   C16122317   0.944   7.571   2.051 -0.2611 -0.4847 -0.2134
   59MOL   C16222318   1.074   7.534   2.081  0.0848 -0.2247 -0.0716
   59MOL   C16322319   1.107   7.402   2.097  0.0740  0.2977 -0.2819
   59MOL   C16422320   1.008   7.304   2.085 -0.0936 -0.1870  0.3049
   59MOL   H16522321   0.357   7.078   2.073  1.7813 -1.0314 -1.1414
   59MOL   H16622322   0.595   7.065   1.989  4.7611 -0.3881  1.8806
   59MOL   H16722323   0.640   7.347   2.102  0.3983 -0.0020  0.7016
   59MOL   H16822324   0.635   7.321   1.927 -1.7719  1.3065  1.8539
   59MOL   H16922325   0.751   7.518   1.990  0.1419  1.2012  1.6423
   59MOL   H17022326   0.936   7.678   2.038 -0.5448 -0.5133 -0.2604
   59MOL   H17122327   1.148   7.611   2.097  1.0412 -0.5742 -2.6703
   59MOL   H17222328   1.209   7.375   2.121  1.1307  3.8449 -0.5782
   59MOL   C17322329   1.037   7.156   2.120 -0.1502 -0.5775 -0.5996
   59MOL   C17422330   1.059   7.049   2.016 -0.0844 -0.3192  0.9947
   59MOL   O17522331   1.166   7.109   2.086  0.2956 -0.0458 -0.4692
   59MOL   C17622332   1.062   7.072   1.864  0.1910  0.3725 -0.7686
   59MOL   O17722333   1.112   6.962   1.781 -0.1786  0.2215 -0.0208
   59MOL   C17822334   1.250   6.962   1.752  0.0334  0.3251 -0.6008
   59MOL   C17922335   1.349   7.056   1.808  0.1539  0.0114  0.3204
   59MOL   C18022336   1.490   7.037   1.797  0.2276  0.4027  0.5320
   59MOL   C18122337   1.535   6.931   1.716 -0.2418 -0.4064 -0.1566
   59MOL   C18222338   1.441   6.840   1.654  0.5657  0.3939  0.7268
   59MOL   C18322339   1.299   6.854   1.671  0.1071 -0.5221 -0.3024
   59MOL   H18422340   0.995   7.111   2.210  1.4810 -1.7368 -0.3984
   59MOL   H18522341   1.040   6.945   2.040  1.2443 -0.9626 -0.5598
   59MOL   H18622342   1.097   7.174   1.852 -0.2727  0.6095 -0.1382
   59MOL   H18722343   0.958   7.073   1.831 -0.0684  2.8061  0.0481
   59MOL   H18822344   1.316   7.139   1.869 -0.6712 -0.3365  0.3457
   59MOL   H18922345   1.557   7.098   1.857  1.4029 -1.3803  1.0786
   59MOL   H19022346   1.642   6.935   1.701 -0.2101 -0.9193 -0.1036
   59MOL   H19122347   1.480   6.765   1.587 -0.7150  0.5584 -0.2148
   59MOL   C19222348   1.201   6.754   1.613 -0.1015 -0.1889 -0.8217
   59MOL   C19322349   1.143   6.772   1.479 -0.1657  0.6506  0.3708
   59MOL   O19422350   1.251   6.674   1.505  1.0567 -0.0601 -0.0017
   59MOL   C19522351   1.178   6.889   1.387 -0.8359  0.1829 -0.2256
   59MOL   O19622352   1.141   6.864   1.251  0.4928  0.0206  0.2285
   59MOL   C19722353   1.014   6.901   1.216  0.3266 -0.3807 -0.5581
   59MOL   C19822354   0.909   6.919   1.314 -0.0202 -1.2329 -0.1696
   59MOL   C19922355   0.778   6.953   1.271 -0.1054 -0.1132  0.4958
   59MOL   C20022356   0.745   6.967   1.137 -0.0298 -0.0387  0.0768
   59MOL   C20122357   0.846   6.939   1.046  0.1587  0.5741  0.0068
   59MOL   C20222358   0.978   6.905   1.080 -0.4344  0.2866 -0.0421
   59MOL   H20322359   1.133   6.712   1.686  1.3044  0.3575  0.8499
   59MOL   H20422360   1.044   6.730   1.461  0.3002 -1.0283  1.5637
   59MOL   H20522361   1.284   6.907   1.406 -1.4670  1.9367  1.7925
   59MOL   H20622362   1.130   6.980   1.421 -0.6319  0.5432 -0.8838
   59MOL   H20722363   0.930   6.931   1.419  2.1289 -0.3479 -0.6756
   59MOL   H20822364   0.703   6.970   1.347 -0.0628  2.7135 -0.0340
   59MOL   H20922365   0.646   6.972   1.093 -0.0612 -4.0743 -0.4507
   59MOL   H21022366   0.815   6.934   0.943 -1.0354  0.6192  0.3608
   59MOL   C21122367   1.083   6.869   0.977  0.0574 -0.2503 -0.4624
   59MOL   C21222368   1.153   6.738   0.972  0.1361  0.2580  0.6479
   59MOL   O21322369   1.047   6.771   0.882 -0.3032  0.7271  0.3839
   59MOL   C21422370   1.128   6.618   1.056 -1.0120  0.5174  0.2370
   59MOL   O21522371   1.158   6.496   0.982 -0.8540  0.3807 -0.1807
   59MOL   C21622372   1.092   6.380   0.999 -0.0398 -0.1912 -0.6197
   59MOL   C21722373   0.992   6.365   1.096  0.6757  0.5384 -0.2802
   59MOL   C21822374   0.930   6.237   1.110  0.0901 -0.5054  0.2772
   59MOL   C21922375   0.969   6.130   1.024 -0.0097 -0.1091  0.8794
   59MOL   C22022376   1.069   6.145   0.927 -0.3399 -0.2562 -0.3524
   59MOL   C22122377   1.120   6.274   0.912  0.1289  0.1975 -0.4291
   59MOL   H22222378   1.124   6.961   0.937  0.1535 -0.0191  0.1787
   59MOL   H22322379   1.245   6.734   0.915 -1.6140 -0.8384 -2.2297
   59MOL   H22422380   1.022   6.622   1.084 -1.1354 -1.3532  0.1287
   59MOL   H22522381   1.178   6.615   1.152  0.5472  0.9166 -0.5543
   59MOL   H22622382   0.967   6.440   1.169  0.7855  0.9877 -0.7039
   59MOL   H22722383   0.851   6.223   1.182  0.6143 -2.3715  0.5192
   59MOL   H22822384   0.920   6.035   1.042 -3.1928  1.2846 -0.1966
   59MOL   H22922385   1.085   6.065   0.856  2.1796  1.8860 -2.3150
   59MOL   C23022386   1.225   6.297   0.804 -0.4798  0.2419 -0.5463
   59MOL   C23122387   1.371   6.267   0.824 -0.7701  0.7766 -0.9889
   59MOL   O23222388   1.284   6.182   0.750 -0.2721 -0.0485 -0.2157
   59MOL   C23322389   1.432   6.212   0.957  0.1140 -0.1563 -0.1654
   59MOL   O23422390   1.549   6.137   0.921  0.2912 -0.1771  0.1626
   59MOL   C23522391   1.567   6.034   1.004 -0.5444  0.3662 -0.0636
   59MOL   C23622392   1.613   6.065   1.132  0.8990  0.1064 -0.4688
   59MOL   C23722393   1.616   5.967   1.228 -0.3612  1.2259 -0.0883
   59MOL   C23822394   1.593   5.830   1.199 -0.4612  1.0961 -0.3010
   59MOL   C23922395   1.567   5.793   1.063 -0.0640 -0.2372 -0.1878
   59MOL   C24022396   1.551   5.897   0.962 -0.0798  0.2777  0.1468
   59MOL   H24122397   1.179   6.361   0.729 -0.2189  1.1938  0.0972
   59MOL   H24222398   1.440   6.330   0.769 -0.8760  0.0491 -1.9632
   59MOL   H24322399   1.364   6.154   1.020 -0.4320  0.7455  0.0899
   59MOL   H24422400   1.458   6.299   1.017  0.5183  0.0953 -0.6961
   59MOL   H24522401   1.639   6.164   1.167 -1.1438  0.2528  0.7595
   59MOL   H24622402   1.660   5.981   1.326  0.1636 -1.3975  0.0760
   59MOL   H24722403   1.590   5.753   1.274 -0.0948  1.9468  0.5861
   59MOL   H24822404   1.557   5.693   1.023 -2.4605 -0.5335  1.0232
   59MOL   C24922405   1.490   5.854   0.834 -0.0774 -0.3670  1.1110
   59MOL   C25022406   1.556   5.900   0.707  0.7109 -0.6041  0.5480
   59MOL   O25122407   1.588   5.771   0.772  0.5380 -0.0800  0.1729
   59MOL   C25222408   1.676   5.991   0.687 -0.7666 -0.0708  0.5296
   59MOL   O25322409   1.763   5.947   0.590 -0.2844  0.3021 -0.4707
   59MOL   C25422410   1.756   5.999   0.457  0.3561  1.2765 -0.2599
   59MOL   C25522411   1.641   6.040   0.387  0.0169 -0.5240  0.0394
   59MOL   C25622412   1.654   6.078   0.253 -0.0569 -0.0243 -0.2037
   59MOL   C25722413   1.776   6.074   0.182  0.2085 -0.1931  0.5674
   59MOL   C25822414   1.890   6.035   0.254  1.1186  0.1394 -0.0058
   59MOL   C25922415   1.882   6.006   0.395  0.0748  0.0491  0.6901
   59MOL   H26022416   1.391   5.810   0.841 -1.0720  0.8810 -3.4631
   59MOL   H26122417   1.491   5.890   0.620  0.2672  0.9495  0.6841
   59MOL   H26222418   1.732   5.987   0.780 -1.7248 -2.6227  1.0404
   59MOL   H26322419   1.644   6.094   0.671  2.5984  0.8233 -0.9107
   59MOL   H26422420   1.550   6.025   0.443  1.5308 -1.9859  2.1771
   59MOL   H26522421   1.561   6.093   0.201 -1.4870 -1.2229  1.9234
   59MOL   H26622422   1.771   6.092   0.075  1.2781 -0.8280  0.3975
   59MOL   H26722423   1.986   6.041   0.206  1.4621  1.2500  0.8073
   59MOL   C26822424   1.997   5.967   0.477 -0.1564 -0.1436  0.5161
   59MOL   C26922425   2.087   5.845   0.455 -0.5248  0.0514  0.0148
   59MOL   O27022426   2.123   5.968   0.397 -0.2739  0.0806 -0.1837
   59MOL   C27122427   2.064   5.728   0.364  0.5348 -0.4821 -0.2519
   59MOL   O27222428   2.186   5.680   0.305  0.5305 -0.0119  0.2812
   59MOL   C27322429   2.287   5.657   0.386  0.1610 -0.2185 -0.2104
   59MOL   C27422430   2.262   5.590   0.511 -0.0820  0.3602  0.0483
   59MOL   C27522431   2.364   5.576   0.607 -0.5185  1.1007 -0.7251
   59MOL   C27622432   2.492   5.613   0.570  0.6508 -0.1304  0.5684
   59MOL   C27722433   2.516   5.663   0.440 -0.6092 -0.1610  0.7488
   59MOL   C27822434   2.414   5.687   0.348 -0.0274  0.1758  0.1673
   59MOL   H27922435   2.004   6.022   0.571  1.9483 -0.9407  0.8684
   59MOL   H28022436   2.157   5.821   0.534 -0.8230  2.5561  1.0778
   59MOL   H28122437   2.001   5.771   0.286  2.0298 -0.3180 -1.3865
   59MOL   H28222438   2.000   5.651   0.406 -0.8397  0.2538 -0.9571
   59MOL   H28322439   2.158   5.563   0.526 -0.7543  1.4643 -2.3980
   59MOL   H28422440   2.348   5.535   0.706  0.0802  0.3738 -0.9285
   59MOL   H28522441   2.577   5.602   0.636  0.3892  4.4844  1.8314
   59MOL   H28622442   2.615   5.696   0.410 -0.6651 -3.6122 -3.7441
   59MOL   C28722443   2.436   5.735   0.211  0.0581  0.1229 -1.0069
   59MOL   C28822444   2.453   5.887   0.170 -0.2010 -0.1544 -0.3288
   59MOL   O28922445   2.565   5.795   0.186  0.4696 -0.5661  0.3103
   59MOL   C29022446   2.439   6.005   0.270  0.2244  0.5238 -0.2408
   59MOL   O29122447   2.462   6.126   0.206  0.2364  0.4033 -0.2330
   59MOL   C29222448   2.370   6.187   0.121 -0.2105  0.2670  0.5313
   59MOL   C29322449   2.239   6.135   0.095 -0.2256 -0.6791 -0.6423
   59MOL   C29422450   2.145   6.199   0.015 -0.7450 -0.3838  0.1898
   59MOL   C29522451   2.179   6.321   8.130 -0.4077  0.5773 -0.3367
   59MOL   C29622452   2.312   6.368   8.153 -0.4264 -0.3757 -0.4888
   59MOL   C29722453   2.406   6.306   0.064  0.1315  0.1361 -0.3707
   59MOL   H29822454   2.409   5.662   0.135  0.6506 -0.3868 -0.7317
   59MOL   H29922455   2.447   5.910   0.064  0.0171  1.1428 -0.0680
   59MOL   H30022456   2.512   5.984   0.349  0.3988  1.2985 -0.1932
   59MOL   H30122457   2.337   5.998   0.308  0.0678 -0.4978 -0.8372
   59MOL   H30222458   2.221   6.041   0.145 -0.9853 -0.2161 -0.0319
   59MOL   H30322459   2.052   6.154   8.154 -1.0260 -0.7675  1.5482
   59MOL   H30422460   2.129   6.378   8.053 -0.6872 -2.6549 -2.6413
   59MOL   H30522461   2.347   6.458   8.104 -0.6947 -0.0626 -0.1188
   59MOL   C30622462   2.534   6.379   0.088 -0.4785  0.0382  0.2905
   59MOL   C30722463   2.666   6.334   0.029  0.3278  0.4210 -0.5862
   59MOL   O30822464   2.591   6.430   8.136  1.1025 -0.0407 -0.3126
   59MOL   C30922465   2.705   6.215   8.110 -0.7302 -0.1364  0.5747
   59MOL   O31022466   2.843   6.208   8.086 -0.1315 -0.0823 -0.0956
   59MOL   C31122467   2.884   6.237   7.958  0.5231  0.0439 -0.8107
   59MOL   C31222468   2.807   6.326   7.877  0.0638 -0.3470  0.1903
   59MOL   C31322469   2.850   6.347   7.744  0.1677  0.5257 -0.1664
   59MOL   C31422470   2.973   6.298   7.696 -0.8824 -0.0217  1.0564
   59MOL   C31522471   3.034   6.196   7.772 -0.4560  0.3069  0.1512
   59MOL   C31622472   2.999   6.170   7.905  0.2869 -0.5606  0.0431
   59MOL   H31722473   2.528   6.459   0.161  3.4296  2.8757 -2.2767
   59MOL   H31822474   2.745   6.377   0.089 -0.8214  0.5512  0.8626
   59MOL   H31922475   2.645   6.205   8.020 -1.6828 -1.6648  1.3698
   59MOL   H32022476   2.679   6.126   8.166 -0.0868 -1.1165 -0.6681
   59MOL   H32122477   2.718   6.376   7.912 -0.9028 -1.5584 -0.4935
   59MOL   H32222478   2.794   6.420   7.688 -0.2558  0.6289  0.3849
   59MOL   H32322479   2.993   6.318   7.592  0.7957 -2.5768  0.8188
   59MOL   H32422480   3.124   6.150   7.733 -0.7481 -1.1314  1.1399
   59MOL   C32522481   3.068   6.066   7.988 -0.4775  0.1641 -0.6356
   59MOL   C32622482   2.990   5.941   8.020 -0.1714  0.4960  0.1820
   59MOL   O32722483   3.103   5.946   7.923  0.0227  0.0014  0.0673
   59MOL   C32822484   2.857   5.897   7.965  0.0409  0.6380 -0.3175
   59MOL   O32922485   2.844   5.753   7.942 -0.1258 -0.0620  0.3660
   59MOL   C33022486   2.727   5.706   7.884 -0.3973 -0.2571 -0.4796
   59MOL   C33122487   2.632   5.789   7.825 -0.6051 -0.3897  0.5404
   59MOL   C33222488   2.515   5.732   7.770  0.1355 -0.2676 -0.1113
   59MOL   C33322489   2.491   5.597   7.783  0.3807  0.2969  0.0165
   59MOL   C33422490   2.587   5.516   7.846 -0.1496  0.0294  0.3448
   59MOL   C33522491   2.703   5.569   7.900 -0.2140 -0.5571  0.1825
   59MOL   H33622492   3.136   6.097   8.067 -1.6838 -0.8196  0.8239
   59MOL   H33722493   3.015   5.912   8.122 -0.1304 -0.6362 -0.1398
   59MOL   H33822494   2.843   5.959   7.876 -0.5109  0.9807  0.0031
   59MOL   H33922495   2.786   5.931   8.040  1.0417 -1.2985  1.5287
   59MOL   H34022496   2.653   5.889   7.792 -1.4317  0.0483  1.3176
   59MOL   H34122497   2.451   5.796   7.712  0.1177 -0.0258  0.1723
   59MOL   H34222498   2.402   5.557   7.737  0.5459 -0.5121  0.3869
   59MOL   H34322499   2.570   5.410   7.858  0.2005 -0.0084  0.5098
   59MOL   C34422500   2.792   5.480   7.983  0.1109  0.1273 -0.0140
   59MOL   C34522501   2.800   5.504   8.130  0.3787  0.6351  0.3087
   59MOL   O34622502   2.722   5.393   8.071  0.2767 -0.0068 -0.0140
   59MOL   C34722503   2.717   5.597   0.049 -0.5210 -0.3912 -0.2017
   59MOL   O34822504   2.720   5.539   0.178 -0.5509 -0.2348 -0.9540
   59MOL   C34922505   2.821   5.565   0.267  0.1337  0.2598  0.9031
   59MOL   C35022506   2.906   5.677   0.255  0.0693  0.2768 -0.0745
   59MOL   C35122507   2.994   5.701   0.360 -0.0462  0.8162  0.1132
   59MOL   C35222508   2.993   5.617   0.474 -0.0159 -1.3824 -0.2329
   59MOL   C35322509   2.920   5.502   0.478 -0.2345 -0.1808 -0.7100
   59MOL   C35422510   2.827   5.473   0.372 -0.1723 -0.1299 -0.4898
   59MOL   H35522511   2.871   5.435   7.924  0.3308 -1.3566  1.3713
   59MOL   H35622512   2.895   5.478   0.006 -0.0481  1.0342  1.4322
   59MOL   H35722513   2.613   5.598   0.019 -0.9321 -0.7026  1.1978
   59MOL   H35822514   2.758   5.698   0.050  0.6396 -0.8492  1.5034
   59MOL   H35922515   2.902   5.747   0.172  1.0966 -1.0786 -1.2940
   59MOL   H36022516   3.066   5.782   0.358  0.6579  0.1835 -0.2607
   59MOL   H36122517   3.048   5.643   0.563  1.2833 -3.1075 -0.5097
   59MOL   H36222518   2.923   5.436   0.564 -0.4288 -0.5119 -0.9576
   59MOL   C36322519   2.729   5.360   0.383 -0.3056 -0.9154  0.3244
   59MOL   C36422520   2.733   5.232   0.305 -0.0775 -0.1318  0.0569
   59MOL   O36522521   2.795   5.242   0.441  0.5609  0.0355 -0.1845
   59MOL   C36622522   2.842   5.201   0.202 -0.1699 -0.1424 -0.3168
   59MOL   O36722523   2.799   5.094   0.124  0.0995  0.4768 -0.0364
   59MOL   C36822524   2.862   5.078   0.003 -0.2758 -0.6801 -0.4549
   59MOL   C36922525   2.841   4.953   8.115  0.2640 -0.3563 -0.0312
   59MOL   C37022526   2.909   4.916   7.998 -0.7486  0.9387 -0.4625
   59MOL   C37122527   3.004   5.005   7.942  0.7637  0.0446 -0.0944
   59MOL   C37222528   3.032   5.128   8.004  0.0143  0.2668  0.0700
   59MOL   C37322529   2.960   5.166   8.120  0.0326 -0.3879  0.1360
   59MOL   H37422530   2.641   5.374   0.445 -0.4914  0.0367 -0.1393
   59MOL   H37522531   2.652   5.160   0.301 -1.3105  1.2150  0.3647
   59MOL   H37622532   2.945   5.197   0.239  0.1355  3.4711 -0.6652
   59MOL   H37722533   2.841   5.290   0.140  0.1351 -0.1067 -0.2734
   59MOL   H37822534   2.767   4.891   8.164  1.2781 -0.8885  0.8467
   59MOL   H37922535   2.899   4.816   7.957 -0.2058 -0.2762  2.2467
   59MOL   H38022536   3.065   4.976   7.858  0.8277 -1.0272  0.3103
   59MOL   H38122537   3.096   5.200   7.954  0.7992 -1.2862 -1.2312
   59MOL   H38222538   2.976   5.264   8.162  0.0975 -0.6167  0.6478
   60MOL     C122539   2.004   7.403   7.550  1.0969 -0.2247 -0.0398
   60MOL     C222540   1.967   7.554   7.550 -0.4524  0.1578  0.7973
   60MOL     O322541   2.091   7.513   7.508 -0.4546 -0.0387  0.7840
   60MOL     C422542   1.981   7.645   7.675 -0.2222 -0.2056 -0.0487
   60MOL     O522543   1.885   7.610   7.780 -0.7500  0.4450  1.0187
   60MOL     C622544   1.752   7.590   7.747  0.1011 -0.0299  0.7086
   60MOL     C722545   1.685   7.671   7.658 -0.5272 -0.0031 -0.5670
   60MOL     C822546   1.546   7.643   7.634 -0.4703 -0.3381  0.2083
   60MOL     C922547   1.482   7.535   7.706  0.8895  0.4931  0.4751
   60MOL    C1022548   1.553   7.457   7.794  0.2196 -0.3818  0.4531
   60MOL    C1122549   1.692   7.477   7.819 -0.1614 -0.1596  0.2274
   60MOL    H1222550   1.968   7.339   7.470 -2.2758  0.3435  0.9287
   60MOL    H1322551   1.887   7.578   7.480  1.9127  2.1001 -1.3609
   60MOL    H1422552   1.965   7.747   7.642 -1.2758 -0.1713  0.5242
   60MOL    H1522553   2.077   7.634   7.725 -1.9465 -0.7001  3.3260
   60MOL    H1622554   1.734   7.746   7.597  0.1083  0.0367 -0.0107
   60MOL    H1722555   1.495   7.700   7.557 -1.2561 -0.2951  0.7549
   60MOL    H1822556   1.377   7.510   7.701  1.0884 -0.2943  0.1610
   60MOL    H1922557   1.502   7.381   7.852  1.6809 -0.7649  1.2522
   60MOL    H2022558   2.008   7.367   7.653  0.4279  1.0088  0.4310
   60MOL    C2122559   1.766   7.386   7.909  0.1557 -0.9569  0.0532
   60MOL    C2222560   1.775   7.400   8.055  0.1195  0.4060  0.2776
   60MOL    O2322561   1.683   7.302   7.988  0.0373  0.4982 -0.7731
   60MOL    C2422562   1.709   7.511   8.128 -0.1860 -0.4607 -0.8571
   60MOL    O2522563   1.717   7.513   0.097 -0.6063 -0.6091 -0.0823
   60MOL    C2622564   1.840   7.529   0.158 -0.1134  0.5228 -0.8808
   60MOL    C2722565   1.960   7.565   0.092 -0.4198 -0.0105  0.5099
   60MOL    C2822566   2.076   7.580   0.166  0.0661 -0.0396 -0.1248
   60MOL    C2922567   2.089   7.540   0.301  0.0368 -0.2139 -0.4639
   60MOL    C3022568   1.971   7.485   0.366 -0.3291  0.5467  0.0403
   60MOL    C3122569   1.849   7.479   0.290  0.2797  0.2218  0.0159
   60MOL    H3222570   1.841   7.331   7.853 -0.9577 -1.1322 -1.2890
   60MOL    H3322571   1.872   7.361   8.085 -1.2875 -3.3546  0.1633
   60MOL    H3422572   1.601   7.509   8.116 -0.5944  1.0372  2.0611
   60MOL    H3522573   1.734   7.609   8.087 -0.4480  0.2315  0.6111
   60MOL    H3622574   1.958   7.592   8.158 -0.1147 -0.5096  0.3694
   60MOL    H3722575   2.163   7.612   0.111 -0.0897 -1.3913 -1.1915
   60MOL    H3822576   2.181   7.545   0.356 -0.4123 -0.6294  0.3252
   60MOL    H3922577   1.982   7.450   0.468  0.7050  2.2190  0.5288
   60MOL    C4022578   1.730   7.429   0.361 -0.6714 -0.5065 -0.0350
   60MOL    C4122579   1.641   7.313   0.332 -0.3207 -0.2530  0.7771
   60MOL    O4222580   1.750   7.297   0.420  0.3859 -0.0759  0.4969
   60MOL    C4322581   1.644   7.237   0.200  0.4059 -0.2999 -0.4910
   60MOL    O4422582   1.570   7.110   0.212 -0.3840 -0.2929  0.2678
   60MOL    C4522583   1.652   6.998   0.241  0.4084  0.1132  0.0099
   60MOL    C4622584   1.784   7.001   0.288 -0.4966 -0.1555 -0.7122
   60MOL    C4722585   1.849   6.882   0.304 -0.1806 -1.0499  0.2657
   60MOL    C4822586   1.799   6.756   0.280 -0.1294  0.1429 -0.3871
   60MOL    C4922587   1.666   6.748   0.239  0.1928  0.1486 -0.5453
   60MOL    C5022588   1.595   6.872   0.215 -0.1750  0.3305 -0.3000
   60MOL    H5122589   1.697   7.501   0.436 -2.0249 -0.8843 -0.2540
   60MOL    H5222590   1.548   7.330   0.386  0.1779 -2.1228  2.2516
   60MOL    H5322591   1.749   7.226   0.170  0.2487 -5.7777  0.5384
   60MOL    H5422592   1.598   7.302   0.125 -1.9142  0.4185  1.4805
   60MOL    H5522593   1.838   7.093   0.309 -1.0206  0.4821 -2.1293
   60MOL    H5622594   1.953   6.902   0.327  0.0334  1.0976 -2.2869
   60MOL    H5722595   1.860   6.667   0.277 -1.7360 -0.9795 -0.4677
   60MOL    H5822596   1.624   6.650   0.224 -0.6099  0.1072  1.7537
   60MOL    C5922597   1.464   6.854   0.151  0.4147 -0.2588  0.3515
   60MOL    C6022598   1.460   6.853   8.168 -0.0215 -0.3558 -0.1332
   60MOL    O6122599   1.446   6.729   0.079 -0.7542  0.2240  0.0464
   60MOL    C6222600   1.583   6.873   8.076  0.0022  0.3645 -0.5370
   60MOL    O6322601   1.555   6.804   7.956 -0.0307 -0.4570  0.3312
   60MOL    C6422602   1.470   6.862   7.864 -0.3503 -0.1078  0.5440
   60MOL    C6522603   1.398   6.984   7.874 -0.0510  0.0060 -0.0486
   60MOL    C6622604   1.317   7.028   7.768 -0.0147 -0.2476  0.4518
   60MOL    C6722605   1.315   6.963   7.649  0.2300 -0.3080  0.4143
   60MOL    C6822606   1.383   6.843   7.633 -0.3083  0.8613  0.6813
   60MOL    C6922607   1.461   6.793   7.735  0.4551  0.1217  0.7554
   60MOL    H7022608   1.385   6.880   0.221 -0.3239 -1.7290  0.0884
   60MOL    H7122609   1.362   6.877   8.127 -0.0389  1.0604  0.7247
   60MOL    H7222610   1.672   6.830   8.122  0.5296  2.2320  0.2401
   60MOL    H7322611   1.606   6.978   8.059  0.3013  0.0403 -2.2120
   60MOL    H7422612   1.413   7.050   7.958  0.2242  2.1303 -1.6963
   60MOL    H7522613   1.259   7.118   7.780  1.5921  0.6950  1.3445
   60MOL    H7622614   1.244   6.986   7.571  0.6475 -0.1520  0.0803
   60MOL    H7722615   1.375   6.792   7.538  1.9217 -0.5617  1.2221
   60MOL    C7822616   1.556   6.678   7.702 -0.1823  0.5809 -0.2329
   60MOL    C7922617   1.533   6.538   7.762  1.0088 -0.4475  0.7063
   60MOL    O8022618   1.503   6.568   7.623 -0.5297  0.4157  0.5557
   60MOL    C8122619   1.410   6.513   7.849  0.2443 -0.1480 -0.0773
   60MOL    O8222620   1.366   6.383   7.852  0.2835  0.2887  0.0868
   60MOL    C8322621   1.243   6.358   7.908  0.5145  0.1814  0.4474
   60MOL    C8422622   1.173   6.457   7.985 -0.2377 -0.4149  0.3928
   60MOL    C8522623   1.048   6.434   8.052 -0.9130  0.3375 -0.2813
   60MOL    C8622624   0.988   6.309   8.022  0.5443 -0.1514  0.3406
   60MOL    C8722625   1.052   6.213   7.946  0.1704  0.3027 -0.4028
   60MOL    C8822626   1.181   6.231   7.891  0.3829 -0.3001  1.2418
   60MOL    H8922627   1.652   6.719   7.669  0.2676 -0.0572  0.2899
   60MOL    H9022628   1.625   6.483   7.778  2.0888  1.2639  0.4909
   60MOL    H9122629   1.329   6.580   7.818 -0.4122 -0.6049  0.6304
   60MOL    H9222630   1.431   6.542   7.952 -1.3925 -1.8093  0.7582
   60MOL    H9322631   1.208   6.556   8.012  0.5441 -0.3018 -1.0143
   60MOL    H9422632   0.991   6.503   8.113 -1.6751 -0.2848 -0.2746
   60MOL    H9522633   0.888   6.285   8.055  0.7100 -0.0542  0.9189
   60MOL    H9622634   1.015   6.112   7.935  2.1162 -0.4733 -0.1060
   60MOL    C9722635   1.245   6.130   7.799 -0.4405 -0.2857 -0.0942
   60MOL    C9822636   1.330   6.013   7.853 -0.0567  0.1387  0.2901
   60MOL    O9922637   1.201   5.994   7.800  0.8299  0.2370  1.0829
   60MOL   C10022638   1.345   5.996   8.000  0.4013  0.0069 -0.7059
   60MOL   O10122639   1.373   5.864   8.039 -0.1410 -0.5304  0.1789
   60MOL   C10222640   1.406   5.833   0.004 -0.6044 -0.9912 -0.6429
   60MOL   C10322641   1.339   5.891   0.117  0.1987 -0.3123  0.4718
   60MOL   C10422642   1.362   5.848   0.247  0.3490  0.2568 -0.1455
   60MOL   C10522643   1.449   5.741   0.270 -0.2437 -0.1436 -0.1884
   60MOL   C10622644   1.519   5.686   0.156 -0.5489 -0.6002 -0.6591
   60MOL   C10722645   1.503   5.734   0.028  0.5969 -0.4491 -0.3366
   60MOL   H10822646   1.269   6.170   7.701  2.2632 -0.6405  0.3743
   60MOL   H10922647   1.408   5.975   7.786  0.3745  2.9600 -0.9111
   60MOL   H11022648   1.267   6.044   8.059  0.8146  0.0773 -0.2083
   60MOL   H11122649   1.432   6.055   8.028 -1.5843  1.6085  2.3225
   60MOL   H11222650   1.261   5.963   0.102 -0.4777 -1.2065 -0.4015
   60MOL   H11322651   1.299   5.890   0.324  0.3609 -1.7527  1.0088
   60MOL   H11422652   1.477   5.696   0.364 -0.3879 -1.2486 -0.6632
   60MOL   H11522653   1.591   5.611   0.183  2.1860  1.9543 -0.5895
   60MOL   C11622654   1.583   5.671   8.085 -0.6825 -0.0851  0.6604
   60MOL   C11722655   1.693   5.751   8.023 -0.5503  0.4373 -0.5458
   60MOL   O11822656   1.720   5.641   8.111 -0.3186  0.3172 -0.1317
   60MOL   C11922657   1.753   5.882   8.072 -1.1685  0.5141  0.6632
   60MOL   O12022658   1.863   5.924   7.989  0.2678  0.4940 -1.0106
   60MOL   C12122659   1.979   5.841   7.988  0.7959 -1.4095 -0.7640
   60MOL   C12222660   2.039   5.795   8.112  0.0617  0.1371  0.4612
   60MOL   C12322661   2.154   5.712   8.105  0.2264 -0.0775  0.3482
   60MOL   C12422662   2.214   5.682   7.980  0.1700 -0.8921 -0.1035
   60MOL   C12522663   2.157   5.731   7.859  0.0996  0.0301  0.1423
   60MOL   C12622664   2.040   5.814   7.863 -0.0955 -1.0928  0.3845
   60MOL   H12722665   1.532   5.590   8.032 -2.1695  0.2850  1.5155
   60MOL   H12822666   1.696   5.733   7.915  0.2099  1.0507 -0.6301
   60MOL   H12922667   1.779   5.864   0.006 -0.9063 -2.1633  0.1776
   60MOL   H13022668   1.681   5.964   8.069 -0.6970  0.8971 -0.7275
   60MOL   H13122669   1.992   5.808   0.038 -0.1364 -0.5408  0.4552
   60MOL   H13222670   2.192   5.661   0.022 -0.5462  1.6426  1.7379
   60MOL   H13322671   2.296   5.612   7.968  0.5907 -0.1538 -1.7421
   60MOL   H13422672   2.209   5.700   7.770  1.6890  0.5534  0.8673
   60MOL   C13522673   1.978   5.858   7.738  0.5923 -0.8964 -0.6676
   60MOL   C13622674   2.026   5.975   7.664  0.1656  0.0545  0.1725
   60MOL   O13722675   2.066   5.844   7.622  0.0551 -0.4073  0.0196
   60MOL   C13822676   2.137   6.064   7.731 -0.2636 -0.4609  0.0335
   60MOL   O13922677   2.161   6.168   7.634  0.5003  0.6273  0.2091
   60MOL   C14022678   2.263   6.260   7.666  0.0545 -0.2717 -0.0548
   60MOL   C14122679   2.337   6.254   7.779 -0.4410 -0.0783  0.5527
   60MOL   C14222680   2.433   6.355   7.811  0.4455 -0.2267 -0.3944
   60MOL   C14322681   2.451   6.468   7.725  0.1333 -0.0287  0.4790
   60MOL   C14422682   2.382   6.469   7.602 -0.1448  0.4379  0.2334
   60MOL   C14522683   2.281   6.370   7.576 -0.2162 -0.4289 -0.0774
   60MOL   H14622684   1.878   5.819   7.721  1.5789 -3.6336 -0.4223
   60MOL   H14722685   1.955   6.027   7.601 -0.1497 -1.8278 -1.0806
   60MOL   H14822686   2.224   5.999   7.739 -0.5346 -1.2458 -2.7986
   60MOL   H14922687   2.097   6.102   7.825 -2.1666  1.1101 -1.3766
   60MOL   H15022688   2.330   6.177   7.855 -3.0935  0.4936  0.9153
   60MOL   H15122689   2.481   6.356   7.908 -1.3895 -0.2042  0.5263
   60MOL   H15222690   2.514   6.548   7.759 -0.4474 -0.0476  1.6176
   60MOL   H15322691   2.391   6.552   7.534 -1.5318 -0.2657 -0.8396
   60MOL   C15422692   2.196   6.382   7.455  0.6952 -0.4597 -0.3558
   60MOL   C15522693   2.047   6.404   7.447  0.5373 -0.8014 -0.3342
   60MOL   O15622694   2.143   6.511   7.421  0.2224 -0.5603  0.2700
   60MOL   C15722695   1.965   6.419   7.570 -0.2978  0.7443 -0.1472
   60MOL   O15822696   1.908   6.291   7.604  0.2334  0.6478 -0.2919
   60MOL   C15922697   1.848   6.278   7.726 -0.3876 -0.0400 -0.0601
   60MOL   C16022698   1.927   6.297   7.841 -0.4136 -0.0536  0.2715
   60MOL   C16122699   1.859   6.279   7.966 -0.6067 -0.4034  0.0396
   60MOL   C16222700   1.722   6.251   7.972 -0.0550 -0.3915 -0.5066
   60MOL   C16322701   1.651   6.227   7.855  0.5069 -0.3839 -0.4922
   60MOL   C16422702   1.712   6.240   7.728 -0.1889  0.1387 -0.2149
   60MOL   H16522703   2.241   6.334   7.369 -0.1456  1.5051 -1.9459
   60MOL   H16622704   2.001   6.364   7.357 -0.5103  2.5808 -1.3738
   60MOL   H16722705   1.877   6.476   7.541 -0.8360  0.6356  1.2161
   60MOL   H16822706   2.022   6.470   7.648 -1.5430  1.8911  0.0270
   60MOL   H16922707   2.032   6.323   7.837 -0.5040  0.2677 -0.0468
   60MOL   H17022708   1.907   6.280   8.063 -0.6404  2.7191  0.0618
   60MOL   H17122709   1.681   6.229   8.070 -0.8207 -0.0243 -0.7376
   60MOL   H17222710   1.549   6.193   7.847  0.3596 -0.2899  0.8761
   60MOL   C17322711   1.632   6.227   7.602 -1.2952 -0.3150  0.1693
   60MOL   C17422712   1.585   6.091   7.540  0.4374  0.4112  0.1269
   60MOL   O17522713   1.504   6.164   7.631 -0.1531 -0.9112 -0.0874
   60MOL   C17622714   1.635   5.958   7.597 -0.1831 -0.3989  0.1543
   60MOL   O17722715   1.517   5.868   7.597  0.2371  0.6032 -0.0886
   60MOL   C17822716   1.544   5.732   7.636  1.2898  0.4587 -0.1671
   60MOL   C17922717   1.665   5.662   7.615 -0.6904 -0.0924  0.7579
   60MOL   C18022718   1.683   5.530   7.663  0.0320 -0.3093 -0.0513
   60MOL   C18122719   1.575   5.462   7.714  0.0001 -0.3424 -1.0867
   60MOL   C18222720   1.450   5.520   7.740  0.0097 -0.4522 -0.5437
   60MOL   C18322721   1.435   5.656   7.697 -0.3588  0.4700 -0.6922
   60MOL   H18422722   1.637   6.321   7.546  2.0103 -1.8904 -2.3510
   60MOL   H18522723   1.550   6.083   7.438  0.1929  1.6111  0.1196
   60MOL   H18622724   1.661   5.987   7.699 -1.4152  0.3713  0.2509
   60MOL   H18722725   1.722   5.919   7.543 -0.7765 -1.4710 -0.0414
   60MOL   H18822726   1.743   5.709   7.556 -0.4304 -2.1432 -0.5829
   60MOL   H18922727   1.774   5.475   7.649  0.3924  0.2678  0.0132
   60MOL   H19022728   1.581   5.359   7.746 -0.9959 -0.3409 -0.8779
   60MOL   H19122729   1.371   5.459   7.781  0.3608 -0.9488 -0.5978
   60MOL   C19222730   1.302   5.718   7.702 -0.5325 -0.3364 -0.0813
   60MOL   C19322731   1.207   5.758   7.594  0.4437 -0.0861 -0.1641
   60MOL   O19422732   1.211   5.619   7.648 -0.3015  0.1454  0.3413
   60MOL   C19522733   1.256   5.770   7.450 -0.2029 -0.1678 -0.5933
   60MOL   O19622734   1.142   5.824   7.386  0.1047  0.2024  0.5832
   60MOL   C19722735   1.108   5.778   7.257  0.4057 -0.4372  0.3048
   60MOL   C19822736   1.203   5.737   7.160  0.2045  0.2587 -0.8793
   60MOL   C19922737   1.155   5.677   7.046 -0.4446  0.4406 -0.6217
   60MOL   C20022738   1.019   5.664   7.020 -0.0721  0.6813  0.0607
   60MOL   C20122739   0.927   5.718   7.109 -1.0142 -0.0346 -0.2849
   60MOL   C20222740   0.970   5.771   7.234  0.7637  1.0588  0.3000
   60MOL   H20322741   1.279   5.733   7.807  0.1895 -0.6550  0.1226
   60MOL   H20422742   1.122   5.819   7.624  0.2357 -0.4090 -0.0893
   60MOL   H20522743   1.292   5.679   7.401 -0.4536  1.1527 -3.3642
   60MOL   H20622744   1.335   5.845   7.449  1.2023 -1.6001  0.0835
   60MOL   H20722745   1.308   5.739   7.186 -0.4596 -0.5902  2.1193
   60MOL   H20822746   1.227   5.644   6.973 -0.2908 -0.2614 -0.1575
   60MOL   H20922747   0.980   5.617   6.931 -1.2724  1.1746  0.3190
   60MOL   H21022748   0.821   5.707   7.093 -1.1947  0.0549  0.8425
   60MOL   C21122749   0.867   5.789   7.342  0.2905  0.5727 -0.6599
   60MOL   C21222750   0.833   5.923   7.413 -0.1302  0.1730  0.4851
   60MOL   O21322751   0.765   5.881   7.292  0.5625  0.3126  0.2640
   60MOL   C21422752   0.915   6.053   7.396  0.5428  0.6340  0.1260
   60MOL   O21522753   0.877   6.167   7.466 -0.2275  0.0679 -1.0683
   60MOL   C21622754   0.745   6.207   7.462 -1.0480 -0.4277 -0.4403
   60MOL   C21722755   0.673   6.191   7.344 -0.3579 -0.7575 -0.1269
   60MOL   C21822756   0.543   6.245   7.335  0.8930 -0.8346 -0.0986
   60MOL   C21922757   0.494   6.315   7.444 -0.0952  0.5474  0.1305
   60MOL   C22022758   0.563   6.324   7.562  0.0399  0.3154 -0.5382
   60MOL   C22122759   0.694   6.278   7.568  0.4164 -0.3503 -0.3646
   60MOL   H22222760   0.814   5.698   7.365  1.4806 -0.1933 -0.8963
   60MOL   H22322761   0.767   5.918   7.499 -1.9304  0.5874 -0.8352
   60MOL   H22422762   0.920   6.062   7.287 -0.7576 -2.5685 -0.2489
   60MOL   H22522763   1.021   6.039   7.418  1.0421  1.8827 -1.3713
   60MOL   H22622764   0.706   6.146   7.252  2.9402 -1.0609  1.1367
   60MOL   H22722765   0.481   6.230   7.248  0.1692  2.8198 -0.3042
   60MOL   H22822766   0.400   6.366   7.432  0.5685  1.4832 -1.1137
   60MOL   H22922767   0.525   6.383   7.644 -2.6256 -0.1047 -1.4431
   60MOL   C23022768   0.785   6.303   7.682 -0.3490 -0.6712  0.6652
   60MOL   C23122769   0.871   6.423   7.699 -0.3254  0.0547 -0.5299
   60MOL   O23222770   0.751   6.405   7.776 -0.1666 -0.4151 -0.0044
   60MOL   C23322771   0.878   6.529   7.596 -0.3071 -1.0031 -0.8494
   60MOL   O23422772   0.897   6.475   7.464  0.2843 -0.0010  0.0284
   60MOL   C23522773   1.021   6.421   7.433 -0.0252 -1.0087  0.4554
   60MOL   C23622774   1.126   6.423   7.532 -0.0202 -0.0008  0.3840
   60MOL   C23722775   1.251   6.361   7.495  0.5860  0.2130  0.3145
   60MOL   C23822776   1.268   6.294   7.373 -0.2574 -0.5778  0.3337
   60MOL   C23922777   1.167   6.306   7.273  0.2902 -0.2819  0.5854
   60MOL   C24022778   1.043   6.365   7.301 -0.5111 -0.2882 -0.1554
   60MOL   H24122779   0.826   6.210   7.719  2.7171 -0.1119 -1.1558
   60MOL   H24222780   0.952   6.396   7.766 -0.1429  1.4559 -0.1743
   60MOL   H24322781   0.959   6.600   7.607 -1.9145  1.1896 -2.8156
   60MOL   H24422782   0.782   6.581   7.604 -0.1314 -0.4447 -2.2663
   60MOL   H24522783   1.130   6.466   7.630  0.5136  0.0676  0.3321
   60MOL   H24622784   1.339   6.367   7.559  0.1585  0.0182  0.9248
   60MOL   H24722785   1.364   6.248   7.357 -0.2815 -0.4537 -0.1875
   60MOL   H24822786   1.192   6.260   7.178 -0.0678  2.0988 -0.6994
   60MOL   C24922787   0.944   6.359   7.192  0.4006 -0.1832 -0.2342
   60MOL   C25022788   0.880   6.478   7.130  0.1010  0.2603 -0.6672
   60MOL   O25122789   0.994   6.416   7.076 -0.0250  0.4169  0.6588
   60MOL   C25222790   0.898   6.630   7.163  0.2852 -0.1142 -0.3527
   60MOL   O25322791   0.794   6.718   7.115 -0.5669  0.0424 -0.6833
   60MOL   C25422792   0.665   6.722   7.167 -0.4407  0.4173 -0.0023
   60MOL   C25522793   0.640   6.684   7.302 -0.1142  1.2553  0.9482
   60MOL   C25622794   0.516   6.693   7.363 -0.8089 -0.3014  0.8432
   60MOL   C25722795   0.411   6.750   7.291 -0.0048  0.4777  0.3226
   60MOL   C25822796   0.432   6.789   7.158  0.4615  0.0251 -0.1936
   60MOL   C25922797   0.558   6.781   7.096  0.2737 -0.1025 -0.3076
   60MOL   H26022798   0.901   6.260   7.176 -0.1514  0.3988 -2.5803
   60MOL   H26122799   0.801   6.455   7.059  0.4975  1.2852 -1.4610
   60MOL   H26222800   0.992   6.665   7.122 -1.6679  0.7754 -4.3125
   60MOL   H26322801   0.914   6.643   7.270 -0.7448 -0.7851 -0.1103
   60MOL   H26422802   0.722   6.653   7.366  0.6469  1.1112 -0.0802
   60MOL   H26522803   0.503   6.660   7.465  2.4284  0.1635  1.4584
   60MOL   H26622804   0.310   6.759   7.328  0.3406 -0.0818  1.4203
   60MOL   H26722805   0.346   6.820   7.101  1.2608  0.6870 -1.0450
   60MOL   C26822806   0.576   6.832   6.959 -0.3655 -0.1106  0.9364
   60MOL   C26922807   0.562   6.732   6.846 -0.2142  0.9455  0.1777
   60MOL   O27022808   0.465   6.821   6.873 -0.6039 -0.1798 -0.0569
   60MOL   C27122809   0.540   6.587   6.871  0.5449  0.1745 -0.6857
   60MOL   O27222810   0.468   6.530   6.759  0.1995 -0.3114  0.3835
   60MOL   C27322811   0.414   6.407   6.776  0.1200  0.3289 -0.0120
   60MOL   C27422812   0.445   6.321   6.890  0.4548  0.0725 -0.5179
   60MOL   C27522813   0.361   6.210   6.916 -0.3553 -0.2398  0.0993
   60MOL   C27622814   0.259   6.176   6.822 -0.1773  0.2832 -0.1247
   60MOL   C27722815   0.233   6.262   6.709 -0.1888  0.2723  0.4352
   60MOL   C27822816   0.308   6.378   6.682 -0.2163  0.8674  0.4184
   60MOL   H27922817   0.629   6.926   6.945 -1.4936  0.2478 -1.1677
   60MOL   H28022818   0.631   6.753   6.764 -0.7301 -0.7345 -0.7202
   60MOL   H28122819   0.473   6.579   6.956  1.2502  1.0170 -0.0399
   60MOL   H28222820   0.637   6.539   6.886  1.8580  2.3649 -1.8794
   60MOL   H28322821   0.531   6.340   6.953  1.8606 -4.0932 -1.0560
   60MOL   H28422822   0.397   6.133   6.982  1.4210 -1.4042 -2.1978
   60MOL   H28522823   0.187   6.096   6.832  0.3862 -0.3538 -1.0903
   60MOL   H28622824   0.152   6.239   6.642  0.4156  3.1266 -1.3499
   60MOL   C28722825   0.272   6.484   6.575  0.6474  0.3661 -0.2818
   60MOL   C28822826   0.294   6.471   6.422  0.5281  0.0713 -0.0380
   60MOL   O28922827   0.168   6.437   6.493  0.4097 -0.0248 -0.1572
   60MOL   C29022828   0.363   6.350   6.356  0.0101 -0.2487 -0.2650
   60MOL   O29122829   0.335   6.348   6.212  0.6578 -0.0993 -0.0946
   60MOL   C29222830   0.349   6.230   6.136 -0.5238 -0.1022 -0.0694
   60MOL   C29322831   0.418   6.117   6.183  0.0836  0.3950  0.0111
   60MOL   C29422832   0.417   5.998   6.110 -0.3217  0.5202 -0.4815
   60MOL   C29522833   0.353   5.987   5.985  0.5492 -0.1885 -0.5759
   60MOL   C29622834   0.292   6.102   5.936  0.0958 -0.1942 -0.4250
   60MOL   C29722835   0.282   6.225   6.007  0.2658 -0.3973 -0.2839
   60MOL   H29822836   0.247   6.583   6.614 -2.1457 -0.0621 -0.8629
   60MOL   H29922837   0.298   6.562   6.363 -1.9319 -0.8327 -1.7129
   60MOL   H30022838   0.338   6.258   6.410 -0.3815 -0.9258 -1.5685
   60MOL   H30122839   0.472   6.359   6.354  0.0483 -0.6804 -0.1400
   60MOL   H30222840   0.468   6.120   6.279 -0.2716 -0.7380  0.2362
   60MOL   H30322841   0.463   5.910   6.153  1.0277  1.1629 -0.5685
   60MOL   H30422842   0.368   5.890   5.940  1.4525 -0.9415  1.2788
   60MOL   H30522843   0.245   6.093   5.839  0.9220  0.3586 -0.8821
   60MOL   C30622844   0.207   6.339   5.959  0.4241  0.5691  0.5525
   60MOL   C30722845   0.266   6.458   5.896  0.4265 -0.1433  0.0206
   60MOL   O30822846   0.213   6.352   5.813 -0.0289 -0.0177  0.0075
   60MOL   C30922847   0.416   6.486   5.890  0.2828  0.5176 -0.0947
   60MOL   O31022848   0.450   6.553   5.777  0.9488 -0.1961  0.3419
   60MOL   C31122849   0.454   6.687   5.767 -0.1558  0.0337  0.3383
   60MOL   C31222850   0.401   6.775   5.866 -0.8863 -0.2943  0.4649
   60MOL   C31322851   0.406   6.912   5.843 -0.1942 -0.5429  0.4480
   60MOL   C31422852   0.449   6.960   5.718  0.3522 -0.2500  0.1278
   60MOL   C31522853   0.496   6.876   5.617 -0.2927  0.1957 -0.3060
   60MOL   C31622854   0.489   6.737   5.641 -0.2648  0.1126  0.1390
   60MOL   H31722855   0.101   6.325   5.983  0.4063 -0.6627 -0.1551
   60MOL   H31822856   0.208   6.550   5.896  0.4225 -0.1401 -1.1033
   60MOL   H31922857   0.470   6.391   5.894  0.8929  0.8832  0.4495
   60MOL   H32022858   0.453   6.544   5.975  1.8319 -2.7959  1.5693
   60MOL   H32122859   0.363   6.739   5.961 -3.2231 -2.7441 -1.3052
   60MOL   H32222860   0.362   6.986   5.909 -1.9155 -2.1272  1.1379
   60MOL   H32322861   0.442   7.066   5.695  0.6485 -0.0644  0.8799
   60MOL   H32422862   0.524   6.910   5.519  1.3414  0.2152  0.1474
   60MOL   C32522863   0.533   6.652   5.526 -0.1013  0.3872 -0.5223
   60MOL   C32622864   0.447   6.570   5.431 -0.0825  0.1058  0.8911
   60MOL   O32722865   0.499   6.701   5.390 -0.4452  0.0867  0.4828
   60MOL   C32822866   0.300   6.547   5.434  0.1105  0.8539 -0.6062
   60MOL   O32922867   0.268   6.436   5.346 -0.2652 -0.0652  0.1544
   60MOL   C33022868   0.135   6.404   5.312 -0.8532  0.3008 -0.0775
   60MOL   C33122869   0.031   6.498   5.320 -0.0763  0.8443  0.0708
   60MOL   C33222870   8.075   6.478   5.264  0.4488 -0.1130  0.4710
   60MOL   C33322871   8.048   6.345   5.216  0.0939  0.8040 -0.1127
   60MOL   C33422872   8.147   6.243   5.224 -0.2760 -1.0257  0.0677
   60MOL   C33522873   0.101   6.279   5.264 -1.3816  0.1164  0.2681
   60MOL   H33622874   0.638   6.627   5.537 -0.2496 -0.0735 -0.1804
   60MOL   H33722875   0.498   6.489   5.379 -1.5175  1.9826 -3.6774
   60MOL   H33822876   0.250   6.642   5.413 -3.8287 -0.8337  0.8860
   60MOL   H33922877   0.258   6.515   5.529  2.6625 -1.7545 -0.2765
   60MOL   H34022878   0.051   6.594   5.365  1.9797  1.1943 -1.5325
   60MOL   H34122879   7.991   6.546   5.262 -0.5040 -1.2746 -3.8276
   60MOL   H34222880   7.947   6.319   5.189 -0.7704  0.2349  3.4782
   60MOL   H34322881   8.120   6.142   5.198  0.0683 -1.6012  1.9132
   60MOL   C34422882   0.213   6.184   5.265 -0.0162 -0.1901 -0.5030
   60MOL   C34522883   0.253   6.086   5.375  0.0037  0.3363 -0.3038
   60MOL   O34622884   0.172   6.047   5.261  0.6916 -0.0397 -0.0642
   60MOL   C34722885   0.187   6.081   5.509 -0.4628  0.0032 -0.1162
   60MOL   O34822886   0.256   6.003   5.616 -0.1563  0.0419  0.2697
   60MOL   C34922887   0.392   6.032   5.631 -0.7057 -0.7306 -0.3276
   60MOL   C35022888   0.431   6.166   5.632 -0.4637 -0.1306  0.0491
   60MOL   C35122889   0.566   6.196   5.667  0.1879  0.1227  0.0739
   60MOL   C35222890   0.654   6.097   5.705 -0.0561  0.4967 -0.3721
   60MOL   C35322891   0.611   5.960   5.701 -0.6356 -0.1201 -0.0342
   60MOL   C35422892   0.478   5.930   5.669 -0.1439  0.1199 -0.3756
   60MOL   H35522893   0.275   6.202   5.177  1.8808 -3.5543  0.0397
   60MOL   H35622894   0.351   6.038   5.369 -1.8612 -3.5417 -1.2924
   60MOL   H35722895   0.089   6.034   5.501  1.2793 -3.5673 -1.5729
   60MOL   H35822896   0.175   6.184   5.544  0.9238 -0.4560  1.7669
   60MOL   H35922897   0.362   6.246   5.613 -1.0829 -0.8622 -0.8235
   60MOL   H36022898   0.592   6.301   5.674 -0.2913  0.2927 -0.6181
   60MOL   H36122899   0.751   6.129   5.740  0.0117  2.9489 -2.6575
   60MOL   H36222900   0.673   5.875   5.722  1.0405  1.3142  0.9576
   60MOL   C36322901   0.424   5.790   5.664 -0.0038 -0.1436  0.6786
   60MOL   C36422902   0.415   5.695   5.535  0.1796  0.6432 -0.1394
   60MOL   O36522903   0.524   5.697   5.620 -0.2280  0.2220  0.0985
   60MOL   C36622904   0.423   5.750   5.391  0.6017  0.4966  0.6609
   60MOL   O36722905   0.349   5.676   5.293 -0.5063  0.2295 -0.7679
   60MOL   C36822906   0.401   5.568   5.220 -0.3275 -0.2947 -0.2813
   60MOL   C36922907   0.310   5.485   5.156  0.3235 -0.3569  0.4691
   60MOL   C37022908   0.360   5.371   5.088  0.0315 -0.2004  0.2744
   60MOL   C37122909   0.498   5.332   5.092  0.3932  0.4271  0.5248
   60MOL   C37222910   0.588   5.416   5.160 -0.2584 -0.2494 -0.4990
   60MOL   C37322911   0.536   5.530   5.225  0.1294  0.1007 -0.2709
   60MOL   H37422912   0.343   5.758   5.729  0.9178 -3.4131  0.3182
   60MOL   H37522913   0.368   5.597   5.533  0.1135  0.6708  0.1476
   60MOL   H37622914   0.527   5.770   5.364  0.6400  3.2737  2.7099
   60MOL   H37722915   0.372   5.844   5.409  0.8247  0.7966 -0.2470
   60MOL   H37822916   0.205   5.503   5.140  0.2619 -1.0277  0.1041
   60MOL   H37922917   0.293   5.303   5.037 -1.7168  1.8848 -0.2714
   60MOL   H38022918   0.531   5.247   5.035 -0.5184 -1.2814  2.4967
   60MOL   H38122919   0.696   5.417   5.154 -0.2512  0.2556 -0.3594
   60MOL   H38222920   0.613   5.588   5.274  0.6958 -1.4541  0.6799
   61MOL     C122921   1.296   4.884   7.899 -0.3462 -0.0458 -0.0866
   61MOL     C222922   1.205   4.802   7.816  0.1805  0.2545  0.7788
   61MOL     O322923   1.297   4.895   7.760 -0.3907 -0.0932 -0.0224
   61MOL     C422924   1.060   4.834   7.788  0.3756 -0.3072  0.2293
   61MOL     O522925   1.003   4.905   7.894  0.6915  0.2678 -0.6459
   61MOL     C622926   0.868   4.917   7.879  0.0649  0.4269 -0.7500
   61MOL     C722927   0.803   4.972   7.771 -0.4228  0.0818 -0.3363
   61MOL     C822928   0.665   4.982   7.774  0.4903 -0.2727  0.2211
   61MOL     C922929   0.589   4.938   7.881 -0.2788 -0.4770  0.4001
   61MOL    C1022930   0.659   4.876   7.988  0.9502  0.6151 -0.2144
   61MOL    C1122931   0.801   4.861   7.989  0.2249 -0.2857  0.2688
   61MOL    H1222932   1.390   4.844   7.937 -0.2644 -0.4180 -0.6700
   61MOL    H1322933   1.249   4.706   7.791  0.7738  0.7516 -0.1093
   61MOL    H1422934   1.004   4.743   7.766 -0.8243  0.6337 -0.6326
   61MOL    H1522935   1.052   4.901   7.703  0.0790  0.8188  1.1323
   61MOL    H1622936   0.868   5.014   7.696 -1.5723 -1.3260 -2.1643
   61MOL    H1722937   0.617   5.036   7.693  0.3655 -0.9538 -0.1606
   61MOL    H1822938   0.482   4.958   7.879  0.0435  1.3520 -2.3008
   61MOL    H1922939   0.608   4.828   8.069  3.0465 -0.3710  0.5533
   61MOL    H2022940   1.252   4.963   7.960 -2.9083 -1.9784  0.6471
   61MOL    C2122941   0.873   4.830   8.119 -0.1513  0.3140 -0.8022
   61MOL    C2222942   0.892   4.938   0.059  0.3958 -0.0573  0.2713
   61MOL    O2322943   0.787   4.837   0.057 -0.2948  0.5255 -0.5081
   61MOL    C2422944   0.835   5.073   0.051  0.3736 -0.2326  1.0160
   61MOL    O2522945   0.813   5.131   0.174  0.1204 -0.2544 -0.5702
   61MOL    C2622946   0.843   5.268   0.188  0.1038 -0.6614 -0.0321
   61MOL    C2722947   0.840   5.360   0.080  0.4551  0.3456  0.4720
   61MOL    C2822948   0.872   5.494   0.091  0.7674  0.5479 -0.4751
   61MOL    C2922949   0.927   5.540   0.207  0.1401  0.2336 -0.3680
   61MOL    C3022950   0.927   5.453   0.323  0.3334 -1.0475 -0.0418
   61MOL    C3122951   0.886   5.323   0.313  0.4932 -0.4433 -0.4510
   61MOL    H3222952   0.935   4.741   8.113 -1.6686 -0.7927 -0.3079
   61MOL    H3322953   0.965   4.929   0.140  1.4004  1.5289 -0.4272
   61MOL    H3422954   0.745   5.078   8.159  0.4863  3.2856  1.0339
   61MOL    H3522955   0.911   5.130   8.168 -1.1532  1.1474  0.2493
   61MOL    H3622956   0.808   5.325   8.153 -1.9864  1.2259  0.9228
   61MOL    H3722957   0.866   5.559   0.005  2.2720 -0.2700 -1.2175
   61MOL    H3822958   0.970   5.639   0.213 -0.6016  0.5916 -0.9364
   61MOL    H3922959   0.966   5.489   0.417 -0.4916 -0.1482 -0.0341
   61MOL    C4022960   0.888   5.229   0.435 -0.0837 -0.2119 -0.7661
   61MOL    C4122961   1.017   5.172   0.487 -0.1587  0.2993  0.2856
   61MOL    O4222962   0.949   5.277   0.552  0.5328 -0.4045 -0.3334
   61MOL    C4322963   1.151   5.218   0.431  0.4820 -0.8047 -0.6702
   61MOL    O4422964   1.230   5.224   0.550 -0.6417 -0.5383 -0.2095
   61MOL    C4522965   1.268   5.115   0.618  0.1704 -0.0705 -0.3445
   61MOL    C4622966   1.324   5.007   0.540  0.0423  0.1075  0.6184
   61MOL    C4722967   1.374   4.896   0.600  0.2840  0.3500 -0.1615
   61MOL    C4822968   1.385   4.889   0.742 -0.4385 -0.1043  0.0150
   61MOL    C4922969   1.322   4.985   0.822 -0.3260 -0.7520 -0.1270
   61MOL    C5022970   1.264   5.100   0.760 -0.6001 -0.0221  0.4978
   61MOL    H5122971   0.793   5.184   0.463 -0.5565  0.7596 -0.8018
   61MOL    H5222972   1.015   5.084   0.551 -0.0941 -0.8553 -1.2555
   61MOL    H5322973   1.142   5.316   0.385  0.7834 -0.5855 -0.2650
   61MOL    H5422974   1.176   5.148   0.352 -0.3227 -1.0879 -0.6833
   61MOL    H5522975   1.335   5.013   0.432  1.1912  1.3438  0.7851
   61MOL    H5622976   1.419   4.822   0.536 -0.4847  0.7075 -1.1290
   61MOL    H5722977   1.440   4.806   0.784 -1.8833 -1.2942 -0.3888
   61MOL    H5822978   1.325   4.964   0.928 -2.4001 -1.2801 -0.1579
   61MOL    C5922979   1.193   5.208   0.844 -0.2401  0.5766 -0.7850
   61MOL    C6022980   1.055   5.202   0.901  0.3914 -0.0501 -0.3355
   61MOL    O6122981   1.171   5.152   0.970  0.4437 -0.1687 -0.3892
   61MOL    C6222982   0.944   5.100   0.867 -0.9657 -0.4276 -0.9645
   61MOL    O6322983   0.992   4.984   0.800 -0.2532 -0.1463  0.5112
   61MOL    C6422984   0.902   4.879   0.791 -0.5982 -0.1333 -0.1842
   61MOL    C6522985   0.764   4.904   0.773  0.5160  0.1877  0.6051
   61MOL    C6622986   0.672   4.802   0.768  0.1250 -0.2710 -0.3962
   61MOL    C6722987   0.713   4.668   0.771  0.2648  0.5369  0.4017
   61MOL    C6822988   0.851   4.649   0.797 -0.6796 -0.4911 -0.7552
   61MOL    C6922989   0.945   4.749   0.796  0.0324 -0.3166  0.3620
   61MOL    H7022990   1.263   5.291   0.848  0.9268 -0.4547  1.0986
   61MOL    H7122991   1.013   5.288   0.952 -2.5115 -0.6941 -1.5303
   61MOL    H7222992   0.860   5.155   0.825 -0.7110  1.4261  0.8497
   61MOL    H7322993   0.894   5.068   0.959 -0.6671  2.9260  0.4543
   61MOL    H7422994   0.723   5.004   0.775  0.6596  0.2397  1.1668
   61MOL    H7522995   0.570   4.838   0.755 -0.9923 -3.0041  0.5304
   61MOL    H7622996   0.648   4.584   0.753  0.3314  0.4807  0.4227
   61MOL    H7722997   0.874   4.543   0.802 -0.0352 -0.3085  0.1257
   61MOL    C7822998   1.089   4.726   0.820  0.2473  0.6640 -0.2736
   61MOL    C7922999   1.135   4.743   0.966 -0.4437 -0.3803 -0.7293
   61MOL    O8023000   1.117   4.612   0.904  0.2694  0.4247  0.1703
   61MOL    C8123001   1.044   4.759   1.087 -0.5723 -0.1024  0.9150
   61MOL    O8223002   1.101   4.711   1.208  0.4115  0.4515  0.0145
   61MOL    C8323003   1.217   4.760   1.258 -0.4233  0.5204 -0.1543
   61MOL    C8423004   1.273   4.886   1.230 -0.5286  0.5974  0.1897
   61MOL    C8523005   1.383   4.929   1.306 -0.2359 -0.7973 -0.1680
   61MOL    C8623006   1.451   4.847   1.393 -0.2371 -0.5002  0.5090
   61MOL    C8723007   1.404   4.714   1.414 -0.2534 -0.1740 -1.0275
   61MOL    C8823008   1.282   4.674   1.353  0.8556 -0.3186  0.9438
   61MOL    H8923009   1.160   4.739   0.739  0.7677  0.7383  0.1928
   61MOL    H9023010   1.241   4.758   0.982 -0.5984 -0.5650  0.5020
   61MOL    H9123011   0.952   4.701   1.073  1.0143 -2.5616  0.4459
   61MOL    H9223012   1.015   4.863   1.105  0.2141  0.1924  0.4767
   61MOL    H9323013   1.223   4.953   1.161 -0.7156 -0.0562 -0.3181
   61MOL    H9423014   1.412   5.031   1.290  1.9538 -1.2896  0.4105
   61MOL    H9523015   1.545   4.888   1.428  0.5052 -1.4502 -0.3390
   61MOL    H9623016   1.460   4.647   1.478 -0.8322  2.4160  2.3513
   61MOL    C9723017   1.213   4.543   1.400  0.3615  0.6430  0.1905
   61MOL    C9823018   1.212   4.415   1.310 -0.1578  0.2644  0.2294
   61MOL    O9923019   1.303   4.431   1.422 -0.6314 -0.2763 -0.1292
   61MOL   C10023020   1.279   4.408   1.175 -0.0909  0.3716 -0.1854
   61MOL   O10123021   1.203   4.322   1.087 -0.3259  0.3157 -0.3240
   61MOL   C10223022   1.244   4.189   1.080 -0.0111 -0.5295  0.0651
   61MOL   C10323023   1.333   4.127   1.174  0.5507 -0.2627 -0.1120
   61MOL   C10423024   1.359   3.991   1.163  0.3528 -0.4960 -0.1507
   61MOL   C10523025   1.302   3.912   1.066  0.4511 -0.3341  0.3664
   61MOL   C10623026   1.209   3.967   0.979  0.2007 -0.6101 -0.1324
   61MOL   C10723027   1.183   4.106   0.984 -0.2492  0.8106  0.2691
   61MOL   H10823028   1.127   4.551   1.466 -0.6393  2.7714 -1.3015
   61MOL   H10923029   1.160   4.323   1.333  0.4807 -0.4842 -1.2863
   61MOL   H11023030   1.384   4.382   1.190 -0.4873 -1.2093 -0.0874
   61MOL   H11123031   1.280   4.510   1.134 -0.0877  0.0472 -1.0038
   61MOL   H11223032   1.370   4.178   1.262 -0.4565 -0.3290  0.3557
   61MOL   H11323033   1.423   3.947   1.238  0.2456  0.2970  0.4083
   61MOL   H11423034   1.331   3.809   1.051 -1.3362 -0.3632 -3.6151
   61MOL   H11523035   1.152   3.912   0.905 -0.1703  2.0319 -1.8605
   61MOL   C11623036   1.090   4.169   0.893  0.2982  0.0316  0.1861
   61MOL   C11723037   1.134   4.269   0.792  1.0096 -0.4680  0.5012
   61MOL   O11823038   1.115   4.131   0.756  0.5389 -0.2103 -0.6580
   61MOL   C11923039   1.278   4.317   0.766  0.1333 -0.0352 -0.2937
   61MOL   O12023040   1.300   4.362   0.637 -0.6933  0.4337 -0.0386
   61MOL   C12123041   1.418   4.418   0.607  0.2570 -0.2535  0.1627
   61MOL   C12223042   1.500   4.492   0.693 -0.0881 -0.1151  1.1771
   61MOL   C12323043   1.624   4.539   0.649 -0.8077 -0.2625 -0.0750
   61MOL   C12423044   1.667   4.524   0.514 -0.3668 -0.5779 -0.5064
   61MOL   C12523045   1.578   4.462   0.424 -0.7870  0.4722  0.6046
   61MOL   C12623046   1.456   4.404   0.467  0.5948  0.0994 -0.0854
   61MOL   H12723047   0.989   4.176   0.933 -0.1814  0.0227 -0.9743
   61MOL   H12823048   1.059   4.330   0.744  1.0093  0.3149  1.4794
   61MOL   H12923049   1.353   4.241   0.788 -0.2265 -0.8430 -1.7547
   61MOL   H13023050   1.293   4.399   0.836 -1.9178 -0.9273  1.2718
   61MOL   H13123051   1.472   4.494   0.798 -3.6392  1.0008  0.2741
   61MOL   H13223052   1.686   4.599   0.713  1.1929 -1.4152 -0.8875
   61MOL   H13323053   1.757   4.562   0.468 -1.3464  0.3192 -1.7164
   61MOL   H13423054   1.603   4.467   0.319 -0.5547  0.6880  0.6701
   61MOL   C13523055   1.362   4.340   0.377  0.3364  0.2832 -0.5415
   61MOL   C13623056   1.238   4.395   0.312  0.9099  0.2702 -0.4481
   61MOL   O13723057   1.360   4.399   0.242  0.3349  0.4721 -0.1217
   61MOL   C13823058   1.177   4.520   0.362  0.3068 -0.8426 -0.5782
   61MOL   O13923059   1.063   4.554   0.284 -0.0097  1.5324 -0.5401
   61MOL   C14023060   0.975   4.641   0.339  0.1943  0.2683 -0.8824
   61MOL   C14123061   1.000   4.742   0.430  0.0953 -0.5606  0.4034
   61MOL   C14223062   0.899   4.821   0.480 -0.0813 -0.2403 -0.2413
   61MOL   C14323063   0.767   4.796   0.450 -0.3295  0.7275  0.0295
   61MOL   C14423064   0.735   4.696   0.352 -0.0018 -1.1003 -0.4556
   61MOL   C14523065   0.839   4.619   0.298 -0.3046 -0.7021 -0.5159
   61MOL   H14623066   1.367   4.232   0.377 -4.4402 -0.0313 -1.4175
   61MOL   H14723067   1.168   4.321   0.274  1.0386 -1.2389  2.1206
   61MOL   H14823068   1.256   4.595   0.357  2.2420 -2.7723  0.3032
   61MOL   H14923069   1.148   4.507   0.466  2.0030 -3.3695 -0.3916
   61MOL   H15023070   1.101   4.771   0.455 -0.6379  2.6320 -0.1232
   61MOL   H15123071   0.918   4.900   0.551  3.8175 -1.0987 -0.2515
   61MOL   H15223072   0.682   4.857   0.479 -1.3748 -1.8435  2.5181
   61MOL   H15323073   0.632   4.687   0.321  0.1847  1.9020 -2.0852
   61MOL   C15423074   0.804   4.506   0.206 -0.8132  0.1981  0.6722
   61MOL   C15523075   0.794   4.356   0.244 -0.5407  0.9619 -0.0636
   61MOL   O15623076   0.679   4.435   0.244 -0.1801  0.3691  0.1302
   61MOL   C15723077   0.830   4.299   0.382  0.7417  0.2578 -0.2368
   61MOL   O15823078   0.804   4.160   0.387 -0.4536 -0.5860  0.0897
   61MOL   C15923079   0.818   4.094   0.506  0.4987 -0.3354 -0.1507
   61MOL   C16023080   0.750   4.130   0.621 -0.7159 -0.2939 -0.6700
   61MOL   C16123081   0.750   4.049   0.737  0.2649  0.0199  0.7931
   61MOL   C16223082   0.822   3.927   0.734  0.3956 -0.0197  0.7952
   61MOL   C16323083   0.896   3.896   0.624  0.3978  0.3720  0.6692
   61MOL   C16423084   0.886   3.970   0.505 -0.0995  0.4996 -0.3513
   61MOL   H16523085   0.797   4.534   0.101 -0.7975  0.1719  0.6641
   61MOL   H16623086   0.788   4.287   0.160  3.8425 -0.4740  0.6540
   61MOL   H16723087   0.780   4.361   0.456 -0.0699 -0.7214  0.0565
   61MOL   H16823088   0.934   4.319   0.407  0.7116  0.6155 -0.3928
   61MOL   H16923089   0.705   4.229   0.622  0.4393  0.2354  0.4151
   61MOL   H17023090   0.692   4.084   0.821 -0.8854  1.1215 -0.4290
   61MOL   H17123091   0.832   3.882   0.832  0.1640  0.8237  1.2096
   61MOL   H17223092   0.976   3.824   0.627 -0.3049 -0.4755 -0.4755
   61MOL   C17323093   0.958   3.937   0.379  0.7841  0.5564 -0.5567
   61MOL   C17423094   1.109   3.960   0.360  0.4934  0.0195  0.3286
   61MOL   O17523095   1.052   3.834   0.404  0.3402 -0.1320 -0.2914
   61MOL   C17623096   1.192   4.017   0.466 -0.2445 -0.1793  0.3254
   61MOL   O17723097   1.323   3.984   0.427 -0.1965 -0.2794 -0.5100
   61MOL   C17823098   1.423   3.981   0.519 -0.2186 -0.2234  0.2995
   61MOL   C17923099   1.406   3.999   0.659 -0.0522  0.4477  0.2481
   61MOL   C18023100   1.506   3.959   0.752  0.9588  0.9142 -0.1160
   61MOL   C18123101   1.625   3.921   0.703 -0.1510  0.2409  0.2285
   61MOL   C18223102   1.653   3.904   0.568 -0.4064  0.0744  0.2936
   61MOL   C18323103   1.552   3.939   0.470 -0.7882 -0.0551 -0.2430
   61MOL   H18423104   0.894   3.927   0.292 -2.2622 -1.7688  1.8452
   61MOL   H18523105   1.142   3.972   0.257 -0.4786  2.8213  0.3009
   61MOL   H18623106   1.169   3.958   0.555 -3.0994 -1.2712 -1.0808
   61MOL   H18723107   1.180   4.123   0.483  1.9810 -0.3110  2.9227
   61MOL   H18823108   1.312   4.011   0.711 -0.2397  0.6547 -0.1374
   61MOL   H18923109   1.497   3.976   0.858  0.5172 -0.9871  0.1643
   61MOL   H19023110   1.698   3.913   0.783 -0.2339 -0.3278  0.2457
   61MOL   H19123111   1.748   3.867   0.531  0.8299  2.4464  0.9968
   61MOL   C19223112   1.565   3.911   0.323 -0.0792 -0.2317  0.0015
   61MOL   C19323113   1.654   3.992   0.236  0.2931 -0.2173  0.5248
   61MOL   O19423114   1.700   3.870   0.284 -0.0293  0.2417  0.5966
   61MOL   C19523115   1.733   4.106   0.282  0.7451 -0.0324 -1.0283
   61MOL   O19623116   1.816   4.149   0.175  0.2659 -0.0475  0.1006
   61MOL   C19723117   1.890   4.265   0.192  0.2240  0.1039  0.3851
   61MOL   C19823118   1.952   4.294   0.314 -0.1310  0.0986  0.5587
   61MOL   C19923119   2.028   4.416   0.322 -0.1416  0.4959 -0.9816
   61MOL   C20023120   2.043   4.507   0.216  0.4164  0.4992  1.2376
   61MOL   C20123121   1.976   4.467   0.097 -0.0969  0.5724 -0.7674
   61MOL   C20223122   1.902   4.349   0.079 -0.1631  0.1576 -0.2860
   61MOL   H20323123   1.478   3.858   0.285 -1.6923 -0.7290  4.1093
   61MOL   H20423124   1.634   3.992   0.130  1.2678  1.0555  0.3303
   61MOL   H20523125   1.786   4.079   0.373  0.1120  0.6894 -0.4384
   61MOL   H20623126   1.662   4.180   0.320  1.6497  0.7438 -0.8210
   61MOL   H20723127   1.944   4.221   0.393 -2.7624 -3.2093 -2.6227
   61MOL   H20823128   2.081   4.430   0.415 -0.0520 -0.2697 -0.9150
   61MOL   H20923129   2.095   4.600   0.224  1.4573 -0.1956  2.7533
   61MOL   H21023130   1.987   4.534   0.013  0.1846  1.9857  0.3841
   61MOL   C21123131   1.837   4.310   8.122 -0.2715 -0.1266 -0.2354
   61MOL   C21223132   1.699   4.365   8.089  0.0851  0.3395  0.6384
   61MOL   O21323133   1.812   4.422   8.034 -0.4926 -0.5342 -0.8767
   61MOL   C21423134   1.622   4.455   0.016  0.8704  0.2202  0.4532
   61MOL   O21523135   1.513   4.513   8.130 -0.1070  0.0573  0.9261
   61MOL   C21623136   1.457   4.610   0.040 -0.1546 -1.3495 -0.2454
   61MOL   C21723137   1.512   4.670   0.157 -0.2304  0.1671  0.5633
   61MOL   C21823138   1.431   4.767   0.221 -0.1115  0.2816  0.3162
   61MOL   C21923139   1.300   4.800   0.174  0.1720  0.0477 -0.0800
   61MOL   C22023140   1.251   4.749   0.055 -0.2523  0.6294  0.1795
   61MOL   C22123141   1.327   4.644   8.161  0.4366  0.5519 -0.8132
   61MOL   H22223142   1.883   4.223   8.075  0.4913  0.5151 -0.6825
   61MOL   H22323143   1.638   4.295   8.032  0.6383 -1.9009  2.6908
   61MOL   H22423144   1.692   4.527   0.059  0.8410  0.0687  0.7598
   61MOL   H22523145   1.588   4.392   0.098 -0.8501 -1.4200 -1.4640
   61MOL   H22623146   1.610   4.650   0.200  0.5402  0.4895 -1.0183
   61MOL   H22723147   1.472   4.832   0.297  0.6173  1.3883 -0.9885
   61MOL   H22823148   1.236   4.870   0.227  0.9303  1.5654 -1.1512
   61MOL   H22923149   1.157   4.779   0.011  0.9885  0.6540 -2.6279
   61MOL   C23023150   1.283   4.577   8.039 -0.3848 -0.0545 -0.4229
   61MOL   C23123151   1.169   4.475   8.043  0.3487 -0.9435 -0.1156
   61MOL   O23223152   1.154   4.616   8.002  0.2394  0.0257  0.1802
   61MOL   C23323153   1.104   4.437   0.005 -0.1567  0.7577 -0.2036
   61MOL   O23423154   0.978   4.373   8.154 -0.4791  0.1474  0.4455
   61MOL   C23523155   0.974   4.244   8.108 -0.9880  0.1716 -0.0117
   61MOL   C23623156   1.075   4.146   8.117  0.7561 -0.0780 -0.1822
   61MOL   C23723157   1.050   4.012   8.068 -0.0021 -0.0781 -0.5792
   61MOL   C23823158   0.918   3.985   8.015 -0.1797  0.3311  0.2182
   61MOL   C23923159   0.821   4.082   8.010  0.3119 -0.0755 -0.3774
   61MOL   C24023160   0.849   4.216   8.049  0.8036  0.2406  0.3683
   61MOL   H24123161   1.359   4.596   7.962 -1.0435 -1.8554 -1.5468
   61MOL   H24223162   1.174   4.399   7.965 -2.3426 -1.6073  0.3028
   61MOL   H24323163   1.076   4.530   0.055  2.1472  1.8580 -0.9143
   61MOL   H24423164   1.173   4.398   0.080 -0.0195  0.1900 -0.6313
   61MOL   H24523165   1.165   4.183   8.164  0.7397 -0.1007 -0.1330
   61MOL   H24623166   1.123   3.932   8.075  0.1800  0.0116 -1.3900
   61MOL   H24723167   0.900   3.883   7.985 -1.6442  0.9096 -0.9307
   61MOL   H24823168   0.722   4.059   7.974 -0.0458  2.0510 -0.8311
   61MOL   C24923169   0.743   4.323   8.047 -0.3936  0.1846 -0.7698
   61MOL   C25023170   0.747   4.436   7.950  0.4639  0.1414  0.2564
   61MOL   O25123171   0.663   4.323   7.924 -0.4154 -0.3614  0.3682
   61MOL   C25223172   0.857   4.461   7.845 -0.2691  0.2058  0.4649
   61MOL   O25323173   0.813   4.530   7.731 -0.5091  0.2823  0.7627
   61MOL   C25423174   0.784   4.461   7.611  0.3666  0.2846 -0.3250
   61MOL   C25523175   0.746   4.326   7.600  0.0352  0.0653 -0.6151
   61MOL   C25623176   0.718   4.267   7.475 -0.3384  0.1335  0.2022
   61MOL   C25723177   0.733   4.350   7.363 -0.0883  0.3232  0.2800
   61MOL   C25823178   0.764   4.485   7.369  0.0414 -0.1115 -0.6049
   61MOL   C25923179   0.783   4.545   7.500  0.1346  0.3590  0.2485
   61MOL   H26023180   0.679   4.320   8.135  0.9008  1.7337  0.2505
   61MOL   H26123181   0.696   4.527   7.979  0.2585  0.1458 -0.1107
   61MOL   H26223182   0.907   4.371   7.810 -0.6627 -0.2248  1.0090
   61MOL   H26323183   0.936   4.519   7.892 -0.7729  1.4959 -0.2252
   61MOL   H26423184   0.733   4.265   7.687 -1.1737 -0.4597 -1.1413
   61MOL   H26523185   0.693   4.162   7.475  1.4317 -0.3046 -0.2751
   61MOL   H26623186   0.715   4.307   7.265 -2.4035 -1.5923  1.4906
   61MOL   H26723187   0.757   4.544   7.279 -1.9311 -2.1423 -1.8143
   61MOL   C26823188   0.805   4.698   7.509  0.0295  0.4714 -0.6469
   61MOL   C26923189   0.930   4.768   7.472  0.1291 -0.2465  0.3485
   61MOL   O27023190   0.813   4.762   7.381  0.5559  0.3434 -0.1979
   61MOL   C27123191   1.057   4.712   7.423 -0.1633  0.2392  0.1173
   61MOL   O27223192   1.158   4.810   7.417  0.3948  0.5571 -0.0089
   61MOL   C27323193   1.156   4.901   7.315 -0.0778  0.2264 -0.3899
   61MOL   C27423194   1.085   4.886   7.193  0.9105  0.0304 -0.3140
   61MOL   C27523195   1.101   4.979   7.085  0.6128  0.5620  0.2039
   61MOL   C27623196   1.180   5.086   7.095 -0.1306 -0.1295  0.4162
   61MOL   C27723197   1.252   5.106   7.221 -0.1413  0.7887 -0.5899
   61MOL   C27823198   1.246   5.010   7.330  0.3474  1.1474  0.3086
   61MOL   H27923199   0.743   4.748   7.583 -0.1056 -0.7300  0.0710
   61MOL   H28023200   0.947   4.863   7.522  0.1653  0.1126 -0.3300
   61MOL   H28123201   1.045   4.643   7.340  0.9158 -0.2768  0.3840
   61MOL   H28223202   1.087   4.639   7.499 -1.4693 -0.8903 -0.4382
   61MOL   H28323203   1.020   4.801   7.177 -2.3666  2.4721 -0.5300
   61MOL   H28423204   1.043   4.969   6.994  1.3476  1.0582 -0.3287
   61MOL   H28523205   1.205   5.158   7.018  0.8587 -1.0717 -0.1712
   61MOL   H28623206   1.318   5.189   7.243 -0.8533  1.3107 -0.4017
   61MOL   C28723207   1.340   5.030   7.448 -0.0559 -0.4868  0.7126
   61MOL   C28823208   1.468   4.940   7.465 -0.1703  0.3492  0.0630
   61MOL   O28923209   1.470   5.067   7.399  0.5059  0.2931 -0.0204
   61MOL   C29023210   1.478   4.812   7.378  0.0908 -0.1507 -0.2269
   61MOL   O29123211   1.600   4.752   7.398  0.5001 -0.0239 -0.3282
   61MOL   C29223212   1.615   4.660   7.503 -0.0489 -0.1069  0.5171
   61MOL   C29323213   1.506   4.592   7.557  0.5288 -0.2877  0.0412
   61MOL   C29423214   1.523   4.515   7.677  0.3156 -0.6758 -0.2062
   61MOL   C29523215   1.648   4.503   7.741 -0.6654 -0.3927  0.3661
   61MOL   C29623216   1.757   4.567   7.681  0.1036 -0.5195 -0.0132
   61MOL   C29723217   1.736   4.653   7.571 -0.3997  0.0745  0.2532
   61MOL   H29823218   1.288   5.079   7.530  0.2777  1.0080  0.0552
   61MOL   H29923219   1.506   4.931   7.566 -0.8175  2.2273  0.4970
   61MOL   H30023220   1.467   4.837   7.272 -0.1768 -0.6626 -0.3197
   61MOL   H30123221   1.401   4.737   7.394  0.7372 -0.3988  1.8624
   61MOL   H30223222   1.409   4.581   7.510  1.9209 -1.3067 -2.7063
   61MOL   H30323223   1.439   4.456   7.712  0.7711 -1.1005  0.1701
   61MOL   H30423224   1.656   4.441   7.829  0.1746 -1.4031 -0.3956
   61MOL   H30523225   1.858   4.558   7.717  0.0415  3.0128  1.2445
   61MOL   C30623226   1.855   4.728   7.512 -0.0239 -0.1120 -0.8796
   61MOL   C30723227   1.905   4.866   7.555 -0.2808 -0.1810  0.5034
   61MOL   O30823228   1.967   4.749   7.615  0.2065  0.2148 -0.7287
   61MOL   C30923229   1.841   4.967   7.654 -0.0774  0.1478  0.3435
   61MOL   O31023230   1.944   5.059   7.691  0.3118 -0.1946  0.1227
   61MOL   C31123231   1.917   5.159   7.789  0.4941  0.1501  0.2393
   61MOL   C31223232   1.793   5.166   7.853  0.0753  0.0511 -0.1055
   61MOL   C31323233   1.770   5.260   7.951 -0.1321 -0.0100  0.0542
   61MOL   C31423234   1.874   5.353   7.981 -0.8289  0.2795 -1.3108
   61MOL   C31523235   1.992   5.352   7.905 -0.1945 -0.1945 -0.0085
   61MOL   C31623236   2.013   5.250   7.809 -0.3099  0.0319  0.1237
   61MOL   H31723237   1.898   4.691   7.419 -2.7849 -0.3005 -2.1271
   61MOL   H31823238   1.967   4.915   7.480 -0.0369 -2.9188 -1.1765
   61MOL   H31923239   1.802   4.915   7.741  0.1184 -2.3738 -1.0171
   61MOL   H32023240   1.756   5.015   7.606 -0.7708 -2.2290 -0.8601
   61MOL   H32123241   1.715   5.092   7.840  0.6292 -0.2484 -1.9162
   61MOL   H32223242   1.679   5.268   8.009  1.1965 -0.9757  2.3359
   61MOL   H32323243   1.845   5.422   8.059 -2.7367 -1.6990 -0.2136
   61MOL   H32423244   2.067   5.427   7.925 -0.2155  0.0044 -0.6655
   61MOL   C32523245   2.144   5.251   7.723 -0.1135  0.6254  0.3582
   61MOL   C32623246   2.198   5.347   7.620  0.2002  0.1890 -0.4141
   61MOL   O32723247   2.242   5.345   7.757 -0.2537  0.1391 -0.2859
   61MOL   C32823248   2.125   5.475   7.578 -0.2775  0.1053 -0.5008
   61MOL   O32923249   2.211   5.565   7.501 -0.0844  0.0094 -0.0776
   61MOL   C33023250   2.223   5.554   7.362  0.7885 -0.3798  0.0849
   61MOL   C33123251   2.167   5.445   7.287  0.2218  0.3815 -0.2588
   61MOL   C33223252   2.192   5.439   7.146  0.1563 -0.0350  0.2259
   61MOL   C33323253   2.249   5.549   7.077  0.0226 -0.2485 -0.2776
   61MOL   C33423254   2.309   5.645   7.156 -0.5590 -0.2339  0.7139
   61MOL   C33523255   2.288   5.659   7.290 -0.0385 -0.1586 -0.1030
   61MOL   H33623256   2.185   5.151   7.730  0.2211  0.7196 -0.2694
   61MOL   H33723257   2.268   5.315   7.544 -0.8536 -0.3446 -1.1748
   61MOL   H33823258   2.107   5.530   7.671 -0.1833 -0.7349  0.0126
   61MOL   H33923259   2.029   5.447   7.534  0.0490 -0.2727 -0.9797
   61MOL   H34023260   2.130   5.357   7.339 -0.1399 -0.6371 -2.1979
   61MOL   H34123261   2.158   5.353   7.091  1.8027  0.4601 -1.6560
   61MOL   H34223262   2.263   5.543   6.970 -2.4745  0.8270 -0.7052
   61MOL   H34323263   2.367   5.722   7.106 -0.1910 -0.5012  0.7232
   61MOL   C34423264   2.347   5.768   7.371  0.4317  0.3169 -0.4320
   61MOL   C34523265   2.485   5.770   7.438  0.4555 -0.0660  0.2018
   61MOL   O34623266   2.459   5.824   7.301 -0.4549  0.8161 -0.6898
   61MOL   C34723267   2.580   5.643   7.437 -0.0943 -0.3238 -0.3472
   61MOL   O34823268   2.712   5.677   7.480 -0.2809  0.5609 -0.2369
   61MOL   C34923269   2.799   5.735   7.383 -0.7245  0.7747 -0.2078
   61MOL   C35023270   2.759   5.764   7.254  0.3175  0.0057 -0.5433
   61MOL   C35123271   2.856   5.819   7.165 -0.0074 -0.9773  0.2701
   61MOL   C35223272   2.986   5.850   7.198  0.8386 -0.0485  0.2028
   61MOL   C35323273   3.021   5.820   7.329 -0.1086 -0.0067 -0.6108
   61MOL   C35423274   2.934   5.763   7.421  0.0269 -0.2199  0.2488
   61MOL   H35523275   2.274   5.830   7.424  2.1930  0.5689  1.7899
   61MOL   H35623276   2.511   5.856   7.500  0.2577 -0.6259  1.0758
   61MOL   H35723277   2.584   5.583   7.346  0.4655  0.7253 -1.0262
   61MOL   H35823278   2.552   5.578   7.520  0.1623 -0.0711 -0.0605
   61MOL   H35923279   2.660   5.745   7.216  1.0650 -1.0662 -1.9772
   61MOL   H36023280   2.824   5.844   7.065  0.5214  0.7313  0.5033
   61MOL   H36123281   3.056   5.897   7.131 -0.8922  1.1563 -0.7984
   61MOL   H36223282   3.119   5.848   7.365 -0.6774  1.1243  0.0616
   61MOL   C36323283   2.986   5.742   7.571 -0.1394 -0.0923 -0.2126
   61MOL   C36423284   2.988   5.603   7.640 -0.1200 -0.0577  0.2142
   61MOL   O36523285   3.105   5.666   7.580 -0.0442 -0.0240  0.2518
   61MOL   C36623286   2.942   5.483   7.573 -0.3778  0.1022 -0.1131
   61MOL   O36723287   3.007   5.361   7.620 -0.0504 -0.0819  0.2367
   61MOL   C36823288   2.924   5.243   7.633 -0.0540 -0.1292  0.0731
   61MOL   C36923289   2.972   5.131   7.564  0.1835 -0.3260 -0.5720
   61MOL   C37023290   2.904   5.005   7.562 -0.1076  0.1545 -0.4594
   61MOL   C37123291   2.786   4.993   7.639  0.0186  0.3899  0.0816
   61MOL   C37223292   2.736   5.109   7.709 -0.5118  0.1169  0.8496
   61MOL   C37323293   2.799   5.236   7.702  0.9850 -0.3796 -0.0520
   61MOL   H37423294   2.983   5.825   7.641 -1.2527 -1.9207  1.9179
   61MOL   H37523295   2.989   5.608   7.748  0.1541  0.4145  0.1927
   61MOL   H37623296   2.969   5.487   7.468  0.8327  0.7459  0.2114
   61MOL   H37723297   2.834   5.486   7.587 -0.3161 -1.1315  0.7833
   61MOL   H37823298   3.064   5.143   7.508  2.1911 -0.6181  2.5526
   61MOL   H37923299   2.937   4.915   7.513  0.3667  0.1264 -0.0912
   61MOL   H38023300   2.730   4.901   7.635 -0.4860  0.7295 -0.8588
   61MOL   H38123301   2.644   5.098   7.764 -1.8178 -0.3255 -1.3203
   61MOL   H38223302   2.753   5.321   7.750 -0.5679 -0.6252 -1.1007
   62MOL     C123303   1.486   2.111   7.745 -0.5861  0.5761  0.0997
   62MOL     C223304   1.575   2.097   7.866 -0.1417 -0.0530 -0.0417
   62MOL     O323305   1.620   2.067   7.734 -0.3420  0.1475  0.1865
   62MOL     C423306   1.558   1.975   7.955  0.5552 -0.5100  0.4416
   62MOL     O523307   1.672   1.912   8.005 -0.1238  0.8284 -0.5483
   62MOL     C623308   1.745   2.004   8.079 -0.5086 -0.7787 -0.4003
   62MOL     C723309   1.695   2.064   0.026 -0.0442 -0.5973  0.4086
   62MOL     C823310   1.774   2.164   0.091 -0.0335  0.2198  0.2129
   62MOL     C923311   1.906   2.184   0.048 -0.4586  0.6794  0.0004
   62MOL    C1023312   1.954   2.128   8.096  0.0259 -0.1053 -0.0458
   62MOL    C1123313   1.870   2.041   8.026  0.1748 -0.0109  0.2737
   62MOL    H1223314   1.478   2.212   7.704 -1.6592  1.2533  1.9631
   62MOL    H1323315   1.624   2.185   7.906 -0.3641 -0.2536  0.6685
   62MOL    H1423316   1.501   1.895   7.907  1.0219 -0.8258  0.4006
   62MOL    H1523317   1.503   1.991   8.047 -0.7759  0.7828 -0.5721
   62MOL    H1623318   1.598   2.042   0.068  0.3587  1.1964  2.4046
   62MOL    H1723319   1.749   2.227   0.175  1.4842  2.0906 -0.7216
   62MOL    H1823320   1.960   2.265   0.095  0.3606 -0.4464  1.0208
   62MOL    H1923321   2.055   2.155   8.069 -0.3951  0.9706 -0.6148
   62MOL    H2023322   1.421   2.026   7.724  0.5947 -1.2447  3.5159
   62MOL    C2123323   1.923   1.982   7.892 -0.3216  0.5950  0.6401
   62MOL    C2223324   1.967   2.052   7.766  0.0260 -0.6290  0.0749
   62MOL    O2323325   2.058   2.021   7.868  0.0119 -0.2760 -0.0686
   62MOL    C2423326   1.941   2.200   7.745  0.5112  0.5005  0.6461
   62MOL    O2523327   1.973   2.239   7.610 -0.6566  0.1314  0.0209
   62MOL    C2623328   1.942   2.364   7.579 -0.1207  0.5354  0.7402
   62MOL    C2723329   1.973   2.480   7.656  0.5922 -0.6649  0.1538
   62MOL    C2823330   1.938   2.614   7.619 -0.7513  0.2952  0.3323
   62MOL    C2923331   1.895   2.622   7.483 -0.1273 -0.2278  0.4576
   62MOL    C3023332   1.863   2.505   7.403 -0.2299 -0.4351  0.2694
   62MOL    C3123333   1.886   2.378   7.452 -0.9506  0.0383 -0.5999
   62MOL    H3223334   1.898   1.877   7.883 -1.8937  0.8617  1.5451
   62MOL    H3323335   1.990   2.001   7.673  1.6657  0.6662 -0.2448
   62MOL    H3423336   2.012   2.261   7.802 -0.1453  1.6189  0.2845
   62MOL    H3523337   1.840   2.232   7.770  1.0429  1.8644  1.0993
   62MOL    H3623338   2.022   2.473   7.752  0.2659  1.2543  0.4899
   62MOL    H3723339   1.941   2.695   7.690  2.3430  0.3259  0.2674
   62MOL    H3823340   1.878   2.722   7.444 -1.1215 -1.1071 -1.4290
   62MOL    H3923341   1.820   2.528   7.307  1.3624  1.6686  0.0387
   62MOL    C4023342   1.872   2.249   7.372 -0.0890 -0.0235 -0.3216
   62MOL    C4123343   1.739   2.202   7.314 -0.0742 -0.3382  0.1952
   62MOL    O4223344   1.826   2.297   7.245  0.2005  0.4247  0.1168
   62MOL    C4323345   1.605   2.254   7.346 -0.1203  0.4050 -0.3281
   62MOL    O4423346   1.506   2.202   7.259  0.5379  0.0406 -0.6618
   62MOL    C4523347   1.455   2.073   7.284 -0.6456 -0.2484  0.1468
   62MOL    C4623348   1.473   1.995   7.403  0.7375  0.4002  0.7052
   62MOL    C4723349   1.413   1.870   7.423  1.2537  0.3788 -0.1870
   62MOL    C4823350   1.344   1.815   7.308 -0.6171  0.6788 -0.9810
   62MOL    C4923351   1.331   1.888   7.188  0.0438  0.4285  0.0839
   62MOL    C5023352   1.381   2.015   7.177 -0.0755 -0.3410 -0.1576
   62MOL    H5123353   1.966   2.196   7.362  0.8763  1.7999 -1.2622
   62MOL    H5223354   1.742   2.101   7.274  2.7323  0.4705 -1.7531
   62MOL    H5323355   1.600   2.362   7.333  0.5134  0.3147 -1.3144
   62MOL    H5423356   1.580   2.238   7.452 -0.9032 -2.2683 -0.8604
   62MOL    H5523357   1.527   2.044   7.483  1.0769  0.6368  0.3379
   62MOL    H5623358   1.423   1.821   7.519  3.0674  0.4622 -0.3243
   62MOL    H5723359   1.287   1.723   7.316 -0.0737  0.3325 -1.0596
   62MOL    H5823360   1.268   1.847   7.110 -2.3950  0.5217  1.9312
   62MOL    C5923361   1.361   2.104   7.056 -0.6255 -0.6125  0.0374
   62MOL    C6023362   1.447   2.104   6.935  0.8044 -0.0286  0.2762
   62MOL    O6123363   1.328   2.030   6.932 -0.2574  0.3726 -0.2500
   62MOL    C6223364   1.568   2.023   6.909  0.1891  0.4458 -0.3983
   62MOL    O6323365   1.569   1.973   6.779  0.3886  0.1376 -0.3336
   62MOL    C6423366   1.591   2.052   6.669 -0.2029  0.1688  0.0770
   62MOL    C6523367   1.712   2.128   6.666  0.5504  0.0393 -0.0465
   62MOL    C6623368   1.731   2.217   6.558 -0.4450  0.0504 -0.4780
   62MOL    C6723369   1.628   2.238   6.467  0.0396  0.0361 -0.2523
   62MOL    C6823370   1.514   2.155   6.463 -0.2613 -0.6441 -0.1190
   62MOL    C6923371   1.494   2.061   6.565  0.3834  0.8406 -0.2823
   62MOL    H7023372   1.294   2.184   7.085  0.2275 -0.4767  1.6958
   62MOL    H7123373   1.437   2.186   6.865 -0.0552  0.3072  0.7801
   62MOL    H7223374   1.578   1.935   6.972  0.5584  0.3341 -0.6077
   62MOL    H7323375   1.657   2.084   6.927 -0.1810  0.5452  1.1273
   62MOL    H7423376   1.785   2.115   6.745 -0.8203 -2.3063  0.8594
   62MOL    H7523377   1.817   2.283   6.554  0.4622 -1.1309 -0.6343
   62MOL    H7623378   1.642   2.312   6.389  2.1100 -0.6313 -0.5261
   62MOL    H7723379   1.441   2.159   6.384 -0.3267 -0.8889 -0.0708
   62MOL    C7823380   1.370   1.982   6.566  0.2692  0.3657  0.3701
   62MOL    C7923381   1.232   2.035   6.605 -0.4724  0.1890 -0.4338
   62MOL    O8023382   1.270   2.017   6.466  0.0610  0.1620  0.6063
   62MOL    C8123383   1.192   2.179   6.640 -0.0793 -0.7510  0.0194
   62MOL    O8223384   1.051   2.198   6.649 -0.1434 -0.8446 -0.2214
   62MOL    C8323385   0.974   2.227   6.537 -0.5527  0.2125 -0.8103
   62MOL    C8423386   1.031   2.219   6.405  0.0305 -0.4416  0.0511
   62MOL    C8523387   0.944   2.250   6.298  0.0923 -0.0717 -0.6100
   62MOL    C8623388   0.806   2.287   6.310 -0.5420 -0.7374  0.1897
   62MOL    C8723389   0.762   2.313   6.438 -0.5868 -0.3011 -0.6126
   62MOL    C8823390   0.835   2.267   6.553  0.7384 -0.0419 -0.3100
   62MOL    H8923391   1.391   1.875   6.561 -0.0707  0.1733  2.8576
   62MOL    H9023392   1.188   1.949   6.654  2.2280 -0.4476  0.9494
   62MOL    H9123393   1.238   2.254   6.576 -0.0786 -0.3814  0.4477
   62MOL    H9223394   1.223   2.190   6.744 -0.5195 -0.4839  0.1229
   62MOL    H9323395   1.131   2.193   6.374 -0.5301  0.8035 -2.9932
   62MOL    H9423396   0.994   2.238   6.203  3.6228 -1.2332  1.2706
   62MOL    H9523397   0.742   2.306   6.225 -0.3138 -3.3365 -0.6131
   62MOL    H9623398   0.664   2.355   6.456  0.4522  2.0382 -0.2711
   62MOL    C9723399   0.770   2.272   6.691 -0.2276  0.1158 -0.2247
   62MOL    C9823400   0.753   2.405   6.766 -0.3306 -0.4941  0.0570
   62MOL    O9923401   0.645   2.342   6.702  0.3136  0.2435  0.2250
   62MOL   C10023402   0.804   2.547   6.707  0.5710  1.1163  0.0751
   62MOL   O10123403   0.846   2.629   6.814 -0.7768 -0.6650  0.0677
   62MOL   C10223404   0.975   2.633   6.852 -0.1624 -0.3575  0.7355
   62MOL   C10323405   1.061   2.526   6.835  0.2928  0.3570  0.0795
   62MOL   C10423406   1.196   2.522   6.877  0.0483  0.0505 -0.1621
   62MOL   C10523407   1.253   2.635   6.932  0.0469 -0.4719  0.0958
   62MOL   C10623408   1.171   2.748   6.943  0.5394 -0.2492 -0.7621
   62MOL   C10723409   1.031   2.744   6.908 -0.2235 -0.6766  0.9338
   62MOL   H10823410   0.754   2.173   6.733  1.8469 -0.6437 -1.1808
   62MOL   H10923411   0.746   2.399   6.874  0.7580 -2.6674  0.0475
   62MOL   H11023412   0.734   2.608   6.651  0.7626  1.5974  0.3519
   62MOL   H11123413   0.885   2.530   6.637  0.7166 -0.0063  0.4979
   62MOL   H11223414   1.015   2.438   6.793  0.9603 -0.8974  1.9342
   62MOL   H11323415   1.249   2.430   6.860  0.1179  0.0271  0.1630
   62MOL   H11423416   1.352   2.646   6.973 -0.7595  3.2369  1.2459
   62MOL   H11523417   1.217   2.836   6.986  0.5049 -0.6287  0.0554
   62MOL   C11623418   0.941   2.865   6.917 -0.2676 -0.6479 -0.0007
   62MOL   C11723419   0.888   2.924   7.042  0.2242  0.1159  0.2027
   62MOL   O11823420   1.010   2.965   6.992  0.1430 -0.4206  0.1039
   62MOL   C11923421   0.914   2.871   7.180  0.2966 -0.6025  0.3894
   62MOL   O12023422   0.930   2.983   7.264 -0.6894 -0.6317  0.1558
   62MOL   C12123423   0.914   2.968   7.396  0.0842 -0.0746  0.2860
   62MOL   C12223424   0.857   2.858   7.469 -0.1699 -0.0701 -0.1039
   62MOL   C12323425   0.853   2.867   7.608 -0.7776  0.2741 -0.0235
   62MOL   C12423426   0.888   2.977   7.679  0.0214  0.0636 -0.0198
   62MOL   C12523427   0.932   3.089   7.610 -0.3833  0.5702  1.0932
   62MOL   C12623428   0.950   3.085   7.469  0.2762 -0.2709  0.4996
   62MOL   H12723429   0.904   2.901   6.821 -2.4898  0.8602  1.3825
   62MOL   H12823430   0.811   3.001   7.040 -0.9601 -0.9762  2.2490
   62MOL   H12923431   0.997   2.800   7.183 -2.0983 -3.6262 -0.9431
   62MOL   H13023432   0.830   2.807   7.210 -0.4348  0.4178  0.5385
   62MOL   H13123433   0.834   2.761   7.427  1.9732 -0.3658 -0.6402
   62MOL   H13223434   0.821   2.778   7.659 -0.0623  0.8021  1.3780
   62MOL   H13323435   0.905   2.969   7.785 -0.0686  0.2438  0.0087
   62MOL   H13423436   0.980   3.175   7.655  0.8286 -0.1798  1.2675
   62MOL   C13523437   1.014   3.203   7.404 -0.2040  0.6466  0.2828
   62MOL   C13623438   0.958   3.299   7.305  0.0794  1.1674 -0.3273
   62MOL   O13723439   0.952   3.324   7.445 -0.5476 -0.0391  0.3018
   62MOL   C13823440   0.825   3.274   7.235 -0.8613 -0.3571 -0.0822
   62MOL   O13923441   0.751   3.389   7.208  0.4095  0.4706  0.0330
   62MOL   C14023442   0.621   3.374   7.163 -0.8580 -0.2970 -0.6483
   62MOL   C14123443   0.562   3.249   7.124 -0.3178 -0.7909  0.0221
   62MOL   C14223444   0.427   3.246   7.092  0.2225  0.8580  0.2888
   62MOL   C14323445   0.349   3.360   7.097  0.6047  0.3834 -0.5981
   62MOL   C14423446   0.406   3.484   7.128 -0.7030 -0.1737  0.1714
   62MOL   C14523447   0.544   3.494   7.159  0.0565  0.3174 -0.6148
   62MOL   H14623448   1.116   3.208   7.441  0.4611  0.5311 -1.4684
   62MOL   H14723449   1.019   3.370   7.250 -0.7484  1.4958 -0.8495
   62MOL   H14823450   0.755   3.223   7.302 -1.1614 -2.3192 -1.8373
   62MOL   H14923451   0.841   3.208   7.150 -0.0358 -1.7643  1.1268
   62MOL   H15023452   0.632   3.167   7.111  0.3808  0.1923 -2.7680
   62MOL   H15123453   0.385   3.149   7.071 -0.5184  1.3987 -0.7447
   62MOL   H15223454   0.244   3.362   7.073  0.3104  1.2651  0.6852
   62MOL   H15323455   0.345   3.572   7.116  1.0169  1.2057  1.2589
   62MOL   C15423456   0.599   3.626   7.201 -0.1362  0.1298  0.2544
   62MOL   C15523457   0.610   3.738   7.103  0.0999 -0.3126 -0.4102
   62MOL   O15623458   0.511   3.741   7.211  0.1119 -0.3740  0.1631
   62MOL   C15723459   0.546   3.746   6.973  0.6838 -0.3073  0.3210
   62MOL   O15823460   0.587   3.871   6.910 -0.0578  0.0697  0.0862
   62MOL   C15923461   0.524   3.908   6.793  0.0984 -0.1241  0.1209
   62MOL   C16023462   0.381   3.898   6.787 -0.3408  0.5637  0.1337
   62MOL   C16123463   0.314   3.942   6.671 -0.2185  0.1203  0.2150
   62MOL   C16223464   0.387   3.978   6.558 -0.1176  0.8518  0.0465
   62MOL   C16323465   0.521   3.985   6.567  0.0645  0.7805 -0.2592
   62MOL   C16423466   0.591   3.953   6.680 -0.3451 -1.0425 -0.5742
   62MOL   H16523467   0.669   3.622   7.284  1.1180  1.5661 -0.7214
   62MOL   H16623468   0.686   3.816   7.111 -1.1164  1.1031 -2.4522
   62MOL   H16723469   0.438   3.731   6.982  0.9887 -3.0298 -0.0193
   62MOL   H16823470   0.582   3.671   6.902 -0.3328 -1.6961  1.2570
   62MOL   H16923471   0.314   3.873   6.868  0.4898  0.0736  0.6781
   62MOL   H17023472   0.207   3.958   6.668 -0.1230  0.5897 -0.7990
   62MOL   H17123473   0.332   4.016   6.473  1.9614 -0.5970 -2.0108
   62MOL   H17223474   0.572   4.018   6.478  2.5721  0.4706  1.0246
   62MOL   C17323475   0.745   3.976   6.690  0.8596  0.7657  0.1510
   62MOL   C17423476   0.838   3.855   6.672 -0.7572  0.0648 -0.0921
   62MOL   O17523477   0.818   3.956   6.569 -0.0092 -0.4062 -0.0946
   62MOL   C17623478   0.782   3.717   6.644 -0.6995 -0.5934  0.0324
   62MOL   O17723479   0.862   3.600   6.616  0.4267  0.2882 -0.2138
   62MOL   C17823480   0.929   3.530   6.716 -0.6120  0.0114 -0.9116
   62MOL   C17923481   0.912   3.559   6.851 -1.1283 -0.8530  0.1069
   62MOL   C18023482   0.969   3.475   6.950  0.0763 -0.2913 -0.1143
   62MOL   C18123483   1.041   3.358   6.913 -0.0146 -0.4853  0.4239
   62MOL   C18223484   1.066   3.338   6.778 -0.5570  0.0999 -0.6328
   62MOL   C18323485   1.008   3.421   6.677 -0.2558  0.2997  0.1267
   62MOL   H18423486   0.787   4.048   6.760  2.3840  0.8737 -0.8425
   62MOL   H18523487   0.935   3.855   6.721 -1.2546  0.6381  0.9269
   62MOL   H18623488   0.716   3.733   6.558  2.1558  2.8673 -1.6384
   62MOL   H18723489   0.720   3.693   6.731 -0.7652  0.4274  0.2661
   62MOL   H18823490   0.841   3.633   6.887 -0.8788 -0.9530  0.8196
   62MOL   H18923491   0.950   3.486   7.056  3.1551 -0.8696  0.5473
   62MOL   H19023492   1.072   3.279   6.979 -1.0352 -1.8233 -0.6937
   62MOL   H19123493   1.117   3.248   6.746 -1.1608 -0.8048  0.9424
   62MOL   C19223494   1.039   3.398   6.526 -0.5340 -0.1189 -0.7752
   62MOL   C19323495   1.157   3.460   6.447  0.3925 -0.2942 -0.5447
   62MOL   O19423496   1.159   3.325   6.501  0.1469 -0.2211  0.1500
   62MOL   C19523497   1.258   3.548   6.519  0.1894 -0.2526  0.7511
   62MOL   O19623498   1.268   3.678   6.452 -0.3091  0.1652 -0.3167
   62MOL   C19723499   1.335   3.686   6.333  0.0525 -0.8376 -0.0086
   62MOL   C19823500   1.401   3.580   6.264  0.0169 -0.2446 -0.1205
   62MOL   C19923501   1.482   3.602   6.156  0.1136  0.1755  0.2723
   62MOL   C20023502   1.483   3.730   6.106 -0.7199 -0.2632  0.0446
   62MOL   C20123503   1.425   3.837   6.168 -0.8629  0.3412 -0.4055
   62MOL   C20223504   1.346   3.819   6.280  0.2362  0.3601 -0.2277
   62MOL   H20323505   0.952   3.353   6.480  2.9216 -2.8697 -5.0151
   62MOL   H20423506   1.141   3.467   6.340 -0.7217  0.8542 -0.3133
   62MOL   H20523507   1.357   3.503   6.531  1.2139  1.5282 -0.8303
   62MOL   H20623508   1.218   3.579   6.616  0.6367  0.0793  0.8347
   62MOL   H20723509   1.390   3.481   6.306  1.7594 -2.0207 -3.6630
   62MOL   H20823510   1.528   3.521   6.101 -0.6019  1.0721 -1.6770
   62MOL   H20923511   1.547   3.746   6.021 -0.8482  0.4123  0.0710
   62MOL   H21023512   1.441   3.937   6.129 -0.8098  0.2315 -0.6677
   62MOL   C21123513   1.281   3.931   6.351  0.4436  0.0908  0.9546
   62MOL   C21223514   1.328   3.980   6.488 -0.3155 -0.1828 -0.7818
   62MOL   O21323515   1.365   4.048   6.367 -0.8424  0.5489  1.1815
   62MOL   C21423516   1.439   3.927   6.580 -0.1390  0.2051  0.6656
   62MOL   O21523517   1.424   3.971   6.715  0.5307 -0.5136 -0.4508
   62MOL   C21623518   1.347   3.898   6.796  0.0342  0.5594 -0.6904
   62MOL   C21723519   1.341   3.754   6.791 -0.6803 -0.2383 -0.8173
   62MOL   C21823520   1.266   3.691   6.895 -0.4588  0.5478  0.7525
   62MOL   C21923521   1.191   3.754   6.986  0.7898  0.0043 -0.8449
   62MOL   C22023522   1.207   3.895   6.987  0.2299  0.2375  0.2698
   62MOL   C22123523   1.277   3.970   6.888 -0.1406  0.5247 -0.2935
   62MOL   H22223524   1.184   3.951   6.307  1.0353  0.3265 -0.2432
   62MOL   H22323525   1.265   4.041   6.552 -0.3374 -2.5367  1.5691
   62MOL   H22423526   1.529   3.975   6.542  0.0624 -0.7649 -0.1225
   62MOL   H22523527   1.437   3.818   6.567  0.2481  0.4431 -1.8022
   62MOL   H22623528   1.397   3.692   6.723  0.3549  0.0724 -0.2595
   62MOL   H22723529   1.262   3.583   6.900  0.7563  0.5169  1.0642
   62MOL   H22823530   1.130   3.700   7.058  2.3666 -0.6200  0.0485
   62MOL   H22923531   1.134   3.943   7.052  1.3879  0.6248  1.2971
   62MOL   C23023532   1.277   4.124   6.886  0.1695  0.1177 -1.1031
   62MOL   C23123533   1.167   4.215   6.830  0.8123 -0.6072  0.0571
   62MOL   O23223534   1.173   4.177   6.971  0.1379  1.2572  0.3054
   62MOL   C23323535   1.050   4.153   6.757 -0.1210 -0.3921 -0.5761
   62MOL   O23423536   0.951   4.244   6.708 -0.2314  0.1253 -0.4541
   62MOL   C23523537   0.971   4.304   6.583 -0.2844  0.1912  0.1872
   62MOL   C23623538   1.102   4.324   6.534  1.1988 -1.1331  0.3346
   62MOL   C23723539   1.122   4.392   6.412  0.1570 -0.1944 -0.0316
   62MOL   C23823540   1.012   4.432   6.338 -1.1164 -0.1291 -0.0861
   62MOL   C23923541   0.881   4.414   6.389 -0.3932 -0.9533 -0.5006
   62MOL   C24023542   0.856   4.352   6.511 -0.2499 -0.0640 -0.4536
   62MOL   H24123543   1.379   4.162   6.884 -0.7050  2.7966  1.2485
   62MOL   H24223544   1.185   4.322   6.820 -1.6248 -0.1505  0.3237
   62MOL   H24323545   0.995   4.080   6.818 -0.8703  0.2980 -0.4214
   62MOL   H24423546   1.092   4.081   6.687  3.2060  0.8449  0.0929
   62MOL   H24523547   1.184   4.283   6.592 -0.1484 -2.7336  1.1613
   62MOL   H24623548   1.220   4.408   6.369  1.1721 -1.8747  1.6179
   62MOL   H24723549   1.021   4.495   6.251  1.7424  1.5241  1.3431
   62MOL   H24823550   0.798   4.466   6.343 -0.1384 -0.7563 -0.7376
   62MOL   C24923551   0.718   4.339   6.568  0.0133 -0.1042  0.0172
   62MOL   C25023552   0.663   4.402   6.691 -0.1033 -0.0809 -0.3326
   62MOL   O25123553   0.652   4.465   6.562  0.3124 -0.0079 -0.2851
   62MOL   C25223554   0.742   4.471   6.800 -0.0422 -0.4469 -0.1435
   62MOL   O25323555   0.647   4.523   6.895  0.2158 -0.4839  0.0296
   62MOL   C25423556   0.591   4.436   6.984 -0.5875 -0.3525 -0.1198
   62MOL   C25523557   0.610   4.298   6.985  0.1826  0.2236  0.7764
   62MOL   C25623558   0.561   4.216   7.088 -0.7346  0.9145  1.2841
   62MOL   C25723559   0.478   4.269   7.185  1.4114 -0.5640 -0.3134
   62MOL   C25823560   0.443   4.408   7.177  0.3788 -0.2552 -0.5564
   62MOL   C25923561   0.493   4.487   7.077  1.2142  0.0174  0.1920
   62MOL   H26023562   0.662   4.257   6.524 -0.2848  0.9480 -1.6091
   62MOL   H26123563   0.562   4.376   6.723  0.2652  1.1530  1.9354
   62MOL   H26223564   0.806   4.548   6.758 -1.2706  0.1954 -0.8781
   62MOL   H26323565   0.806   4.398   6.849  1.4166  0.8832 -0.0217
   62MOL   H26423566   0.662   4.244   6.906  0.5524  0.3229  0.9492
   62MOL   H26523567   0.581   4.110   7.098  0.3005  1.0763  1.0325
   62MOL   H26623568   0.438   4.195   7.254  0.6163  0.7417  0.6458
   62MOL   H26723569   0.378   4.451   7.252 -0.4916  1.2263 -2.1222
   62MOL   C26823570   0.460   4.635   7.073  0.3763 -0.1184 -1.1352
   62MOL   C26923571   0.321   4.702   7.054  0.2183 -0.1676  0.1589
   62MOL   O27023572   0.395   4.693   7.183 -0.0295 -0.2246  0.0647
   62MOL   C27123573   0.187   4.629   7.061  0.8299 -0.4949  0.5944
   62MOL   O27223574   0.077   4.719   7.098  0.0470 -0.2483 -0.1390
   62MOL   C27323575   0.080   4.755   7.230 -0.1241 -0.0797  0.1428
   62MOL   C27423576   0.116   4.667   7.336  0.2358  0.1280 -0.2984
   62MOL   C27523577   0.122   4.716   7.469  0.1409  0.7044  0.0525
   62MOL   C27623578   0.104   4.852   7.496 -0.0383  0.3118  0.7410
   62MOL   C27723579   0.068   4.937   7.386  0.6813 -0.0232  0.3374
   62MOL   C27823580   0.049   4.889   7.255 -0.0399 -1.0959  0.6760
   62MOL   H27923581   0.549   4.692   7.048  0.0784  0.8361 -0.0809
   62MOL   H28023582   0.318   4.806   7.023  0.1471  0.4438  2.1570
   62MOL   H28123583   0.185   4.536   7.117 -0.7610 -1.4258 -0.9758
   62MOL   H28223584   0.175   4.589   6.960 -2.1314 -1.7586  1.4199
   62MOL   H28323585   0.145   4.565   7.315  0.0537  0.2238 -1.0576
   62MOL   H28423586   0.147   4.649   7.551 -1.4575 -0.6273 -0.5303
   62MOL   H28523587   0.108   4.887   7.598 -1.9036  2.0401  0.2467
   62MOL   H28623588   0.053   5.042   7.402 -2.6704 -0.1869 -1.2802
   62MOL   C28723589   0.014   4.993   7.145  0.1987  1.0089 -0.2020
   62MOL   C28823590   8.040   5.003   7.092 -0.3219  0.6039 -0.0398
   62MOL   O28923591   8.095   5.090   7.193 -0.3150  0.6453  0.4432
   62MOL   C29023592   7.928   4.917   7.150 -0.2893  1.0267 -0.3368
   62MOL   O29123593   7.817   5.006   7.171 -0.9631 -0.0103 -0.1344
   62MOL   C29223594   7.699   4.953   7.214  1.1035 -0.5639  0.7406
   62MOL   C29323595   7.680   4.824   7.257 -0.0154  0.0939 -0.0929
   62MOL   C29423596   7.549   4.775   7.278  0.1820 -0.1289 -0.1335
   62MOL   C29523597   7.438   4.861   7.261  0.3423 -0.2291  0.3529
   62MOL   C29623598   7.462   4.998   7.236 -0.2987 -0.6243 -0.3499
   62MOL   C29723599   7.590   5.042   7.202  0.0172  0.0400 -0.3307
   62MOL   H29823600   0.103   5.027   7.093 -0.1443 -0.2613 -1.6523
   62MOL   H29923601   8.011   5.067   7.009 -1.2105  0.6548  0.3007
   62MOL   H30023602   7.960   4.870   7.243 -0.8756 -0.5793 -0.9330
   62MOL   H30123603   7.892   4.841   7.081 -0.4366  2.6684 -2.0918
   62MOL   H30223604   7.770   4.767   7.275 -1.1670 -1.3581  1.1746
   62MOL   H30323605   7.544   4.669   7.297 -2.9721  0.1568  0.8915
   62MOL   H30423606   7.335   4.830   7.270  1.2749 -4.0364 -1.3704
   62MOL   H30523607   7.374   5.060   7.228 -0.9719 -1.4685  0.3480
   62MOL   C30623608   7.618   5.184   7.158  0.7360  0.0865 -0.4472
   62MOL   C30723609   7.658   5.234   7.026  0.4648  0.1717  0.3858
   62MOL   O30823610   7.521   5.234   7.068  0.5837 -0.3436 -0.0036
   62MOL   C30923611   7.692   5.140   6.912 -0.4063 -0.2529 -0.1100
   62MOL   O31023612   7.706   5.196   6.787  0.1308  0.1932  0.3013
   62MOL   C31123613   7.588   5.219   6.714 -1.1219 -0.0948 -1.1049
   62MOL   C31223614   7.456   5.215   6.764  0.0141 -0.1868 -0.3805
   62MOL   C31323615   7.342   5.234   6.675 -0.0127 -0.2079 -0.5530
   62MOL   C31423616   7.363   5.269   6.547  0.0588  0.1041  0.3109
   62MOL   C31523617   7.495   5.271   6.493  0.2229 -0.6312  0.0455
   62MOL   C31623618   7.607   5.249   6.577  0.1024 -0.3552  0.0224
   62MOL   H31723619   7.648   5.240   7.246 -0.1090 -0.1312 -0.0134
   62MOL   H31823620   7.706   5.332   7.022 -0.9534  1.0960  3.8518
   62MOL   H31923621   7.627   5.053   6.922 -1.5714  0.7948  1.6605
   62MOL   H32023622   7.796   5.110   6.922 -0.5907 -1.1295 -0.7799
   62MOL   H32123623   7.428   5.190   6.865 -2.1050  0.7429 -0.7071
   62MOL   H32223624   7.246   5.232   6.723 -0.5488 -0.6154 -1.6316
   62MOL   H32323625   7.274   5.273   6.485  0.5595  0.2328 -0.3982
   62MOL   H32423626   7.508   5.297   6.390 -1.0829  1.7155  0.4503
   62MOL   C32523627   7.738   5.266   6.520 -0.9498 -0.8161 -0.4661
   62MOL   C32623628   7.836   5.161   6.489 -0.4002  0.5395 -0.5195
   62MOL   O32723629   7.751   5.220   6.391  0.1828 -0.3522  0.2114
   62MOL   C32823630   7.826   5.011   6.493 -0.5556 -0.1633 -0.6261
   62MOL   O32923631   7.883   4.971   6.369 -0.1583  0.1548 -0.0536
   62MOL   C33023632   7.869   4.839   6.331 -0.1566  0.3452  0.1960
   62MOL   C33123633   7.849   4.743   6.430 -0.2152  0.0862 -0.1272
   62MOL   C33223634   7.846   4.612   6.399  1.2949  0.1760 -0.0869
   62MOL   C33323635   7.872   4.570   6.267  0.6119  0.0633 -0.0860
   62MOL   C33423636   7.894   4.661   6.168  0.7082 -0.6941  0.1425
   62MOL   C33523637   7.908   4.800   6.197 -0.8261  0.3658 -0.3335
   62MOL   H33623638   7.747   5.374   6.517 -2.5760 -0.6645 -0.4475
   62MOL   H33723639   7.935   5.206   6.478 -1.0773  2.3695  0.6847
   62MOL   H33823640   7.721   4.986   6.511  0.7089 -3.1710  3.0150
   62MOL   H33923641   7.893   4.977   6.571  1.8984  2.7597 -1.3677
   62MOL   H34023642   7.819   4.765   6.532 -2.4301  0.4283 -0.8320
   62MOL   H34123643   7.834   4.541   6.479 -3.7338 -0.5189 -1.2734
   62MOL   H34223644   7.879   4.468   6.232  1.6141 -0.5125  1.7068
   62MOL   H34323645   7.907   4.622   6.068  2.8816  1.0406 -0.3114
   62MOL   C34423646   7.954   4.889   6.093  0.0294 -0.3863  0.4464
   62MOL   C34523647   8.093   4.945   6.099 -0.3259  0.1981  0.1632
   62MOL   O34623648   8.066   4.836   6.010  0.3142  0.4270 -0.6756
   62MOL   C34723649   0.017   4.922   6.218  0.3211 -0.8390  0.0198
   62MOL   O34823650   0.136   5.010   6.214  0.0838  0.6642 -0.0739
   62MOL   C34923651   0.115   5.142   6.248 -0.5153 -0.0750 -0.8723
   62MOL   C35023652   8.158   5.197   6.269  0.0343  0.0599  0.3422
   62MOL   C35123653   8.149   5.324   6.323 -0.0368  0.3078 -0.4133
   62MOL   C35223654   0.092   5.403   6.333 -0.0421 -0.1635  0.0409
   62MOL   C35323655   0.219   5.351   6.306 -0.2595  0.2546 -0.1740
   62MOL   C35423656   0.229   5.220   6.269  0.2922  0.1253  0.5933
   62MOL   H35523657   7.879   4.944   6.037  0.4725 -0.8002 -0.5817
   62MOL   H35623658   8.105   5.036   6.041 -2.5807  0.9326  0.7603
   62MOL   H35723659   0.049   4.818   6.210  0.2042 -0.8298 -0.6045
   62MOL   H35823660   8.130   4.929   6.311 -0.4722  0.3683 -0.5429
   62MOL   H35923661   8.068   5.138   6.253  0.5393 -1.4843  2.8815
   62MOL   H36023662   8.053   5.364   6.350 -0.3244 -0.9236  0.4004
   62MOL   H36123663   0.082   5.504   6.370  0.5924 -0.3229  0.6528
   62MOL   H36223664   0.303   5.418   6.320  1.1473 -1.5502  0.2920
   62MOL   C36323665   0.366   5.159   6.240 -0.9139  0.6348 -0.7875
   62MOL   C36423666   0.431   5.151   6.101 -0.2155 -0.4736 -0.2235
   62MOL   O36523667   0.452   5.261   6.202  0.6009 -0.2006 -0.0977
   62MOL   C36623668   0.363   5.189   5.971 -0.6495  0.5533  0.2564
   62MOL   O36723669   0.457   5.221   5.873 -0.0224 -0.1893  0.0265
   62MOL   C36823670   0.411   5.255   5.741 -0.4452  0.9034  0.0858
   62MOL   C36923671   0.274   5.271   5.718 -0.6032 -0.2905  0.7461
   62MOL   C37023672   0.224   5.284   5.586 -0.8244 -0.8196 -0.0222
   62MOL   C37123673   0.318   5.304   5.486 -0.3828  0.3432  0.2341
   62MOL   C37223674   0.461   5.298   5.517  0.0115 -0.2281  0.2153
   62MOL   C37323675   0.501   5.265   5.642 -0.4780 -0.1111 -0.6549
   62MOL   H37423676   0.407   5.102   6.323 -2.1414 -0.1509 -0.7118
   62MOL   H37523677   0.510   5.077   6.098  0.5813  0.4144 -1.2311
   62MOL   H37623678   0.291   5.269   5.989 -0.7577 -0.1272  3.1932
   62MOL   H37723679   0.306   5.106   5.930  1.5222  0.5571 -2.9927
   62MOL   H37823680   0.200   5.268   5.796 -0.8004  0.3178  0.5833
   62MOL   H37923681   0.120   5.289   5.560 -0.5126  2.8946 -0.8704
   62MOL   H38023682   0.298   5.313   5.381  1.1950  2.2077  0.0512
   62MOL   H38123683   0.537   5.306   5.441 -0.7745  0.4325 -0.5165
   62MOL   H38223684   0.607   5.267   5.662 -0.5771 -3.4235  0.5118
   63MOL     C123685   5.999   3.518   7.574 -0.1699  1.3695  0.0636
   63MOL     C223686   5.963   3.600   7.451  0.7798  0.7248 -0.0444
   63MOL     O323687   5.993   3.458   7.445 -0.0873  0.6421 -0.3477
   63MOL     C423688   6.060   3.701   7.400  0.0736 -0.4933  0.9780
   63MOL     O523689   6.024   3.754   7.272 -0.1621 -0.4124 -0.1938
   63MOL     C623690   5.889   3.800   7.253 -0.4025  0.4435  0.2002
   63MOL     C723691   5.812   3.874   7.343  0.3098 -0.0490  0.0839
   63MOL     C823692   5.685   3.927   7.306 -0.2186 -0.2589 -0.7565
   63MOL     C923693   5.637   3.910   7.173 -0.0996 -0.5090  0.0299
   63MOL    C1023694   5.718   3.841   7.082  0.1541  0.5678  0.1549
   63MOL    C1123695   5.843   3.792   7.122  0.0102  0.2196  0.5479
   63MOL    H1223696   5.920   3.508   7.648  0.3844 -2.5090  0.2196
   63MOL    H1323697   5.859   3.626   7.429  1.2392  1.7158 -1.1322
   63MOL    H1423698   6.156   3.654   7.379  0.1713  0.0744  0.1710
   63MOL    H1523699   6.064   3.781   7.474  0.5130  0.9347 -0.5908
   63MOL    H1623700   5.851   3.888   7.443  1.7251 -1.2286 -0.2886
   63MOL    H1723701   5.630   3.970   7.389  1.5816 -0.4905  0.5919
   63MOL    H1823702   5.532   3.932   7.157  0.2992  0.6011 -1.1510
   63MOL    H1923703   5.678   3.820   6.984 -1.3352  1.4012  0.5546
   63MOL    H2023704   6.097   3.540   7.617  0.1161  0.1884  0.0317
   63MOL    C2123705   5.920   3.725   7.016  0.3409 -0.2351  0.2587
   63MOL    C2223706   5.934   3.576   6.999  0.0097 -0.1184  0.7342
   63MOL    O2323707   5.837   3.653   6.921 -0.1949 -0.1683  0.0931
   63MOL    C2423708   5.889   3.467   7.100 -0.4760  0.1917  0.5634
   63MOL    O2523709   5.910   3.342   7.050  0.4483  0.2748 -0.1629
   63MOL    C2623710   5.803   3.287   6.976 -0.6366  0.7160 -0.3285
   63MOL    C2723711   5.694   3.363   6.923  0.4820 -0.1056 -0.5571
   63MOL    C2823712   5.604   3.305   6.831  0.2620 -0.0457 -0.0311
   63MOL    C2923713   5.608   3.168   6.799 -0.0609  0.3391 -0.0782
   63MOL    C3023714   5.711   3.087   6.857  0.4288 -0.8688 -0.1468
   63MOL    C3123715   5.808   3.149   6.945  0.9179  0.2240 -0.3664
   63MOL    H3223716   6.004   3.789   6.991  0.9985 -1.1046  0.2616
   63MOL    H3323717   6.020   3.550   6.937 -0.2837  1.9688 -0.6117
   63MOL    H3423718   5.789   3.491   7.134 -1.3700 -0.8381 -1.2896
   63MOL    H3523719   5.956   3.489   7.183 -0.1920 -0.6112  0.5542
   63MOL    H3623720   5.682   3.470   6.935  1.4615 -0.0149 -0.3565
   63MOL    H3723721   5.527   3.360   6.779  0.1976 -1.3272 -1.3438
   63MOL    H3823722   5.528   3.132   6.737 -0.8328 -0.3592  1.3162
   63MOL    H3923723   5.725   2.982   6.835  1.5693 -0.6470 -0.5052
   63MOL    C4023724   5.919   3.062   7.002 -0.0446 -0.2693  0.0466
   63MOL    C4123725   5.918   3.017   7.145 -0.6062  0.6182  0.4478
   63MOL    O4223726   5.867   2.934   7.037  0.3084 -0.0224 -0.0128
   63MOL    C4323727   5.815   3.060   7.248  0.0195  0.1117  0.4184
   63MOL    O4423728   5.774   2.956   7.336 -0.0004 -0.0603  0.0296
   63MOL    C4523729   5.868   2.884   7.406 -0.3797 -0.4064 -0.3101
   63MOL    C4623730   5.987   2.944   7.452  0.3951 -0.0634  0.0078
   63MOL    C4723731   6.081   2.864   7.519 -0.0126  0.1832  0.0952
   63MOL    C4823732   6.059   2.725   7.540 -0.1205  0.3171 -0.3884
   63MOL    C4923733   5.938   2.667   7.493  0.0082 -0.4966  0.2000
   63MOL    C5023734   5.839   2.744   7.427  0.1393 -0.2638 -0.3727
   63MOL    H5123735   6.002   3.050   6.933 -0.4623 -0.9518 -0.3336
   63MOL    H5223736   6.016   2.990   7.182  0.4379  0.5358 -2.2949
   63MOL    H5323737   5.726   3.100   7.200  0.5592 -0.1355 -0.8054
   63MOL    H5423738   5.853   3.140   7.312  1.8210  0.5168 -1.1380
   63MOL    H5523739   6.009   3.050   7.442  3.7070 -0.7796 -0.6389
   63MOL    H5623740   6.180   2.902   7.541 -0.0155  1.6071 -2.2011
   63MOL    H5723741   6.141   2.661   7.573  0.0368  1.7775  2.1667
   63MOL    H5823742   5.926   2.560   7.487  2.7817 -1.0956  3.6812
   63MOL    C5923743   5.709   2.682   7.377  0.3899  0.0542  0.0609
   63MOL    C6023744   5.686   2.625   7.238 -0.3129  0.0260 -0.1185
   63MOL    O6123745   5.719   2.544   7.348 -0.1382 -0.5580  0.4150
   63MOL    C6223746   5.780   2.655   7.118 -0.4521 -0.1333  0.2142
   63MOL    O6323747   5.786   2.540   7.036 -0.0555  0.1183 -0.7003
   63MOL    C6423748   5.888   2.521   6.947 -0.3073  0.2019  0.7525
   63MOL    C6523749   5.972   2.623   6.894  0.2253 -0.3544 -0.0575
   63MOL    C6623750   6.072   2.594   6.797 -0.3225 -0.4535 -0.8273
   63MOL    C6723751   6.080   2.468   6.747  0.0519 -0.9631  0.2609
   63MOL    C6823752   6.006   2.370   6.800  0.4495  0.6699  0.1438
   63MOL    C6923753   5.912   2.386   6.900 -0.4257 -0.2026 -0.4339
   63MOL    H7023754   5.627   2.717   7.439  0.5007 -1.1921  0.9240
   63MOL    H7123755   5.583   2.613   7.207  0.0262  0.7987 -1.5827
   63MOL    H7223756   5.878   2.679   7.159 -0.8489  0.3503  0.9008
   63MOL    H7323757   5.741   2.735   7.055  0.4417  0.0161 -0.1559
   63MOL    H7423758   5.969   2.724   6.933 -0.3105 -0.3453 -0.1160
   63MOL    H7523759   6.132   2.677   6.764 -0.3463 -0.0420  0.1413
   63MOL    H7623760   6.150   2.450   6.667  0.9871 -3.1042  1.5131
   63MOL    H7723761   6.023   2.273   6.754  0.5084  0.2584  1.0126
   63MOL    C7823762   5.829   2.271   6.946 -0.1067 -0.0431 -0.3761
   63MOL    C7923763   5.719   2.210   6.865  0.2109  0.1254  0.2734
   63MOL    O8023764   5.850   2.158   6.865 -0.5356  0.2559  0.2839
   63MOL    C8123765   5.687   2.249   6.719  0.3497 -0.7288  0.6869
   63MOL    O8223766   5.577   2.168   6.662 -0.3464 -0.4639  0.0366
   63MOL    C8323767   5.452   2.218   6.661 -1.2064 -0.0839  1.1839
   63MOL    C8423768   5.389   2.248   6.779 -0.5309 -0.5222  0.1183
   63MOL    C8523769   5.254   2.304   6.779 -0.0130  0.2886  0.2245
   63MOL    C8623770   5.184   2.317   6.659  0.0035  0.4680 -0.0741
   63MOL    C8723771   5.258   2.305   6.538  0.6743  0.4898  0.7882
   63MOL    C8823772   5.386   2.247   6.536 -0.4362  0.4148 -0.8618
   63MOL    H8923773   5.844   2.246   7.050 -0.1970 -0.5707 -0.4918
   63MOL    H9023774   5.647   2.136   6.898 -2.0546  1.0547 -2.3995
   63MOL    H9123775   5.778   2.234   6.662 -0.1173 -0.7222 -0.0566
   63MOL    H9223776   5.666   2.354   6.698  1.6887 -0.6789 -0.4855
   63MOL    H9323777   5.443   2.227   6.870  0.1700 -0.9156 -0.3813
   63MOL    H9423778   5.202   2.319   6.873 -0.8347 -3.0740  0.3668
   63MOL    H9523779   5.085   2.361   6.658 -0.6358 -0.9369 -0.1960
   63MOL    H9623780   5.207   2.346   6.452  2.0784  1.0305  0.2062
   63MOL    C9723781   5.458   2.221   6.404  0.2296 -0.0752 -0.0130
   63MOL    C9823782   5.434   2.113   6.310  0.2512  0.1151 -0.5195
   63MOL    O9923783   5.378   2.244   6.288 -0.2142  0.1622 -0.5648
   63MOL   C10023784   5.344   2.001   6.357  0.4041 -0.7553  0.3116
   63MOL   O10123785   5.351   1.896   6.259 -0.0901 -0.1281 -0.0251
   63MOL   C10223786   5.268   1.894   6.155  0.0295 -0.1079 -0.2759
   63MOL   C10323787   5.192   2.003   6.109  0.2984 -0.3993 -0.6753
   63MOL   C10423788   5.133   1.996   5.977  0.0519  0.5459 -0.3660
   63MOL   C10523789   5.137   1.877   5.902  0.8094 -0.3394  0.1004
   63MOL   C10623790   5.205   1.766   5.955  0.4811 -0.0631  0.4817
   63MOL   C10723791   5.268   1.778   6.077  0.2636 -0.0181  0.1926
   63MOL   H10823792   5.551   2.279   6.402  0.2476 -0.1444 -1.6869
   63MOL   H10923793   5.500   2.082   6.230 -0.6116 -0.4561 -1.0134
   63MOL   H11023794   5.241   2.032   6.376  0.5724  0.0181 -0.0193
   63MOL   H11123795   5.385   1.957   6.448  1.0514  0.0869  0.4251
   63MOL   H11223796   5.195   2.098   6.159  1.1326  0.1565 -1.7701
   63MOL   H11323797   5.078   2.079   5.934 -2.1968 -0.3161  0.7393
   63MOL   H11423798   5.086   1.867   5.807  0.6922  0.7582  0.0359
   63MOL   H11523799   5.222   1.675   5.898  1.0675  0.5852 -0.3851
   63MOL   C11623800   5.358   1.659   6.120  0.7390 -0.7748 -0.8750
   63MOL   C11723801   5.332   1.568   6.241 -0.1240  0.3985  0.1352
   63MOL   O11823802   5.273   1.543   6.117 -0.3255  0.4425 -0.5609
   63MOL   C11923803   5.240   1.605   6.356  0.2190 -0.1558 -0.5805
   63MOL   O12023804   5.241   1.517   6.471  0.4076 -0.2666 -0.3015
   63MOL   C12123805   5.186   1.395   6.460 -1.1714  0.4865 -0.6197
   63MOL   C12223806   5.143   1.339   6.344  0.7030  0.2204  0.3394
   63MOL   C12323807   5.063   1.218   6.341  0.1658 -0.2070  0.6364
   63MOL   C12423808   5.047   1.138   6.456 -0.6050 -1.1896  0.3076
   63MOL   C12523809   5.090   1.205   6.579 -0.1573  0.1259  0.1165
   63MOL   C12623810   5.151   1.331   6.582 -0.6710 -1.2900 -0.3806
   63MOL   H12723811   5.446   1.643   6.058  1.6259  0.3509  0.0774
   63MOL   H12823812   5.404   1.491   6.266  1.1496  0.8361 -2.0578
   63MOL   H12923813   5.140   1.606   6.313  0.0833 -2.2569 -0.3772
   63MOL   H13023814   5.271   1.702   6.394  1.7515 -1.6692  2.1475
   63MOL   H13123815   5.149   1.395   6.252 -0.9130  0.6636  0.4883
   63MOL   H13223816   5.024   1.184   6.246  0.9866 -1.7207  0.8242
   63MOL   H13323817   4.983   1.051   6.461 -1.0194 -0.8231  1.4296
   63MOL   H13423818   5.065   1.158   6.673  1.4410 -2.6356 -0.7827
   63MOL   C13523819   5.177   1.402   6.714  0.7615 -0.3627 -0.2587
   63MOL   C13623820   5.081   1.500   6.775  0.1757 -0.0071 -0.8458
   63MOL   O13723821   5.076   1.363   6.809 -0.0168  0.0225 -0.4433
   63MOL   C13823822   4.961   1.561   6.696 -0.2300  0.0358  0.3832
   63MOL   O13923823   4.892   1.653   6.784  0.1824 -0.6350 -0.6965
   63MOL   C14023824   4.808   1.604   6.884  0.6554  1.3054 -0.3935
   63MOL   C14123825   4.773   1.463   6.897 -0.1218 -0.2116 -0.3289
   63MOL   C14223826   4.680   1.416   6.988  0.2014 -0.4831 -0.3439
   63MOL   C14323827   4.610   1.512   7.062  0.5367 -0.1446 -0.2433
   63MOL   C14423828   4.633   1.652   7.048  0.3414 -0.7746 -0.4168
   63MOL   C14523829   4.732   1.692   6.963 -0.5685  0.0935  0.0641
   63MOL   H14623830   5.278   1.387   6.752  1.4520  1.9981 -1.0886
   63MOL   H14723831   5.125   1.574   6.841 -0.3942  0.3102 -0.8198
   63MOL   H14823832   4.905   1.483   6.645  1.6609 -1.1566  0.0801
   63MOL   H14923833   4.998   1.612   6.607 -2.5904 -1.8686 -1.7695
   63MOL   H15023834   4.807   1.388   6.826  1.0288 -1.0408  1.0670
   63MOL   H15123835   4.655   1.312   7.003  1.1275 -0.6353  0.1533
   63MOL   H15223836   4.533   1.474   7.127  1.0233 -0.5423  0.1001
   63MOL   H15323837   4.574   1.731   7.091  1.8618  0.0551  0.1753
   63MOL   C15423838   4.773   1.835   6.959  0.2107  0.0183  0.9150
   63MOL   C15523839   4.725   1.929   6.849  0.0638  0.1943 -0.1493
   63MOL   O15623840   4.668   1.930   6.982  0.2794  0.3565 -0.5216
   63MOL   C15723841   4.636   1.871   6.743 -0.3145  0.4357  0.6285
   63MOL   O15823842   4.609   1.954   6.628  0.4734 -0.3458  0.2753
   63MOL   C15923843   4.517   2.053   6.631  0.2634  0.4508 -0.3058
   63MOL   C16023844   4.436   2.083   6.742 -0.1194  0.4323  0.1756
   63MOL   C16123845   4.350   2.196   6.736  0.1711 -0.4422 -0.1662
   63MOL   C16223846   4.327   2.266   6.616  0.0305 -0.5327 -0.2050
   63MOL   C16323847   4.396   2.222   6.505  0.0643  0.8944  0.2262
   63MOL   C16423848   4.493   2.119   6.513 -0.2242  0.4446 -0.6346
   63MOL   H16523849   4.860   1.856   7.020  0.4448  1.7868  0.0130
   63MOL   H16623850   4.773   2.023   6.823  1.6396  0.6349  4.0326
   63MOL   H16723851   4.543   1.838   6.788 -0.6235 -0.5790 -0.7160
   63MOL   H16823852   4.680   1.780   6.701  0.8273  0.9550  0.6882
   63MOL   H16923853   4.439   2.025   6.834  1.2751  1.1938  0.6188
   63MOL   H17023854   4.290   2.228   6.819 -0.0625 -3.1490  0.7667
   63MOL   H17123855   4.255   2.346   6.613  1.9948  1.3205  0.9169
   63MOL   H17223856   4.374   2.273   6.412  1.0058 -3.2418 -2.4470
   63MOL   C17323857   4.575   2.073   6.388  0.2265  0.1321  0.2118
   63MOL   C17423858   4.517   1.994   6.268  0.6950 -0.2707  0.1764
   63MOL   O17523859   4.542   2.138   6.266 -0.0460 -0.2281  0.3505
   63MOL   C17623860   4.376   1.946   6.254 -0.5061  0.1661 -0.0473
   63MOL   O17723861   4.328   1.899   6.378 -0.6620  0.3162  0.1844
   63MOL   C17823862   4.197   1.854   6.380 -0.5239  0.2773  0.2619
   63MOL   C17923863   4.100   1.862   6.275  0.2208  0.3753 -0.4177
   63MOL   C18023864   3.976   1.803   6.283 -0.7224  0.6473 -0.5740
   63MOL   C18123865   3.945   1.732   6.395 -0.2481  0.0667 -0.1331
   63MOL   C18223866   4.036   1.724   6.505  0.0890 -0.3021  1.1494
   63MOL   C18323867   4.166   1.779   6.498 -0.4642 -0.1749  0.1312
   63MOL   H18423868   4.677   2.043   6.413 -0.1869 -1.0583  0.4869
   63MOL   H18523869   4.585   1.947   6.197 -1.8438  0.0845 -2.5760
   63MOL   H18623870   4.388   1.863   6.184 -1.8477 -0.9340  1.0139
   63MOL   H18723871   4.317   2.025   6.207 -0.4067  0.1833 -0.1456
   63MOL   H18823872   4.125   1.903   6.178  1.2243 -0.5837 -0.5811
   63MOL   H18923873   3.914   1.795   6.195  0.3345 -0.2032 -1.2684
   63MOL   H19023874   3.849   1.684   6.406 -1.5460  2.0308 -2.5787
   63MOL   H19123875   4.008   1.668   6.593  1.1890 -3.3469 -0.3266
   63MOL   C19223876   4.266   1.775   6.609 -0.3794  0.0770 -0.0333
   63MOL   C19323877   4.239   1.825   6.751  0.4097 -0.4349 -0.3967
   63MOL   O19423878   4.222   1.690   6.718  0.2260  0.0168 -0.1228
   63MOL   C19523879   4.122   1.914   6.775 -0.5615 -0.3696 -0.7529
   63MOL   O19623880   4.136   1.997   6.895  0.4142  0.1552 -0.3666
   63MOL   C19723881   4.126   1.926   7.011 -0.7368  0.4134 -0.2762
   63MOL   C19823882   4.073   1.800   7.028  0.4266 -1.1784  0.3518
   63MOL   C19923883   4.070   1.740   7.155 -0.0039 -0.1514 -0.7517
   63MOL   C20023884   4.143   1.795   7.264 -0.7054 -0.4415  0.6397
   63MOL   C20123885   4.185   1.930   7.246 -0.2323 -0.9748  1.0302
   63MOL   C20223886   4.184   1.994   7.122  0.2693  0.8819 -0.3341
   63MOL   H20323887   4.357   1.738   6.564 -1.0822  0.0660 -1.4701
   63MOL   H20423888   4.320   1.848   6.819 -0.4757  0.7255  0.2853
   63MOL   H20523889   4.029   1.857   6.780 -1.4708  1.2116  1.6272
   63MOL   H20623890   4.119   1.980   6.689  1.0161 -1.5967 -1.7707
   63MOL   H20723891   4.015   1.750   6.952  1.0839 -1.7939  0.2543
   63MOL   H20823892   4.024   1.642   7.164  0.2633 -0.1352  1.0134
   63MOL   H20923893   4.161   1.743   7.356  4.3710 -2.7952 -1.4830
   63MOL   H21023894   4.227   1.987   7.328 -2.4377  0.0483  1.4675
   63MOL   C21123895   4.245   2.128   7.093 -0.0289  0.5275  0.1398
   63MOL   C21223896   4.183   2.263   7.077 -0.0069 -0.5312  0.5122
   63MOL   O21323897   4.233   2.213   7.205  0.2730 -0.0465  0.0705
   63MOL   C21423898   4.030   2.296   7.086 -0.1223 -0.2076  0.0175
   63MOL   O21523899   4.019   2.434   7.126 -0.3644 -0.7777 -0.2077
   63MOL   C21623900   3.886   2.487   7.120  0.4442 -0.3976 -0.4345
   63MOL   C21723901   3.776   2.411   7.064  0.0560  0.5128 -0.2739
   63MOL   C21823902   3.651   2.472   7.049 -1.0344 -0.3916  0.2769
   63MOL   C21923903   3.626   2.603   7.095  0.1400  0.8132 -0.3172
   63MOL   C22023904   3.733   2.676   7.161  0.4114 -0.1134  0.3353
   63MOL   C22123905   3.863   2.616   7.162 -0.1688 -0.1320 -1.0670
   63MOL   H22223906   4.349   2.107   7.070 -0.1463 -0.0380  0.1071
   63MOL   H22323907   4.246   2.324   7.013 -0.8193  0.2881  0.4728
   63MOL   H22423908   4.001   2.242   7.176  2.3338 -1.6853 -0.0374
   63MOL   H22523909   3.981   2.268   6.993  0.4636  0.4526 -0.4888
   63MOL   H22623910   3.782   2.305   7.044  2.8456  0.6123 -0.1625
   63MOL   H22723911   3.570   2.413   7.009 -0.1840 -0.2422 -1.6850
   63MOL   H22823912   3.527   2.644   7.084 -0.0834  0.4188  0.1941
   63MOL   H22923913   3.716   2.774   7.202 -0.6789 -0.3201  0.3853
   63MOL   C23023914   3.971   2.694   7.242 -0.3279 -0.6623 -0.2979
   63MOL   C23123915   4.022   2.829   7.215  0.6010 -0.0122  0.0012
   63MOL   O23223916   3.926   2.810   7.319  0.2786  0.1310 -0.1681
   63MOL   C23323917   3.988   2.893   7.089 -0.0028 -0.6027  0.6514
   63MOL   O23423918   4.015   2.814   6.977 -0.4803  0.0490 -0.0578
   63MOL   C23523919   4.046   2.878   6.859  0.6640  0.2109  0.1495
   63MOL   C23623920   3.990   3.001   6.820 -0.3403  0.9092 -0.1455
   63MOL   C23723921   4.029   3.065   6.701  0.0135  0.1180  0.3862
   63MOL   C23823922   4.124   3.009   6.618 -0.0399 -0.3208 -0.3585
   63MOL   C23923923   4.175   2.878   6.652  0.0099  0.3631 -0.4388
   63MOL   C24023924   4.133   2.811   6.772  0.3691 -0.0796 -0.2744
   63MOL   H24123925   4.032   2.619   7.291  1.3243  0.9734  0.2398
   63MOL   H24223926   4.129   2.832   7.236  0.6056 -1.3320  0.2161
   63MOL   H24323927   4.042   2.988   7.087  0.5049 -0.8962 -0.1954
   63MOL   H24423928   3.881   2.913   7.083  0.0509 -0.9108 -2.2988
   63MOL   H24523929   3.933   3.050   6.897 -0.8976  1.0819 -0.6680
   63MOL   H24623930   3.989   3.162   6.677  2.6620  0.9605 -0.7923
   63MOL   H24723931   4.155   3.058   6.527 -1.2605 -0.3344 -0.7968
   63MOL   H24823932   4.244   2.823   6.590  0.0116 -0.8292  0.5899
   63MOL   C24923933   4.183   2.677   6.819  0.1506  0.5087 -0.6441
   63MOL   C25023934   4.096   2.559   6.801 -0.2443  0.0344 -0.0382
   63MOL   O25123935   4.206   2.583   6.708  0.1595 -0.1213 -0.1397
   63MOL   C25223936   3.962   2.573   6.733  0.1244  0.6470  0.7544
   63MOL   O25323937   3.914   2.444   6.707 -0.7125 -0.0673  0.6347
   63MOL   C25423938   3.952   2.371   6.599 -0.4477 -0.3364 -0.5116
   63MOL   C25523939   4.030   2.417   6.484 -0.3479  0.5646 -0.0624
   63MOL   C25623940   4.063   2.330   6.378  0.8404  0.4324 -0.4586
   63MOL   C25723941   4.035   2.194   6.391 -0.0575  0.5258 -0.3032
   63MOL   C25823942   3.973   2.148   6.512 -0.1313 -0.4075 -0.4946
   63MOL   C25923943   3.921   2.230   6.611 -0.3295  0.9357 -0.4735
   63MOL   H26023944   4.259   2.672   6.897 -0.9932  2.8341  0.6763
   63MOL   H26123945   4.114   2.470   6.862 -1.9419  0.3688  0.9697
   63MOL   H26223946   3.962   2.640   6.648 -0.6920 -0.7376 -0.3616
   63MOL   H26323947   3.894   2.610   6.810 -3.0016 -1.9413 -0.6679
   63MOL   H26423948   4.066   2.519   6.492  1.8697 -0.3348  2.3669
   63MOL   H26523949   4.116   2.359   6.289 -0.6800  1.1362 -1.1651
   63MOL   H26623950   4.064   2.125   6.313  1.6453  2.3332 -1.3286
   63MOL   H26723951   3.946   2.043   6.516  2.0966 -1.0521 -1.6990
   63MOL   C26823952   3.848   2.174   6.732 -0.3380 -0.2270  1.0063
   63MOL   C26923953   3.704   2.214   6.768  0.1507 -0.0340 -0.4711
   63MOL   O27023954   3.732   2.105   6.680  0.4339  0.1134 -0.0646
   63MOL   C27123955   3.624   2.325   6.699  0.2932  0.0662 -0.2085
   63MOL   O27223956   3.484   2.325   6.727 -0.2691 -0.4031  0.6391
   63MOL   C27323957   3.403   2.221   6.689 -0.3563  0.2369 -0.1211
   63MOL   C27423958   3.434   2.134   6.585 -0.2682 -0.5251 -0.8787
   63MOL   C27523959   3.357   2.015   6.555 -0.3682 -0.8501  0.0364
   63MOL   C27623960   3.239   2.000   6.630 -0.3560 -0.4244  0.6264
   63MOL   C27723961   3.200   2.092   6.729 -0.2308  0.4368 -0.4101
   63MOL   C27823962   3.280   2.195   6.763  0.7073 -0.7410  0.3174
   63MOL   H27923963   3.916   2.110   6.788 -0.2165  0.4418  1.6344
   63MOL   H28023964   3.667   2.187   6.867  2.2808 -1.0200  0.1031
   63MOL   H28123965   3.645   2.310   6.594 -0.6105 -0.2704 -0.3456
   63MOL   H28223966   3.673   2.420   6.724 -2.5680  1.3550  0.7311
   63MOL   H28323967   3.526   2.147   6.529  0.3841  0.1092  0.3207
   63MOL   H28423968   3.385   1.948   6.475  0.1765  0.1903 -0.6539
   63MOL   H28523969   3.178   1.919   6.594  1.8947 -1.5402 -0.7439
   63MOL   H28623970   3.108   2.073   6.783 -2.2217  1.5460 -3.3102
   63MOL   C28723971   3.224   2.275   6.878 -0.6424 -0.5267  0.1981
   63MOL   C28823972   3.277   2.273   7.016  0.5076 -0.2618 -0.0288
   63MOL   O28923973   3.322   2.371   6.924 -0.3126  0.4638 -0.2095
   63MOL   C29023974   3.385   2.180   7.055 -0.5152 -0.0233 -0.5182
   63MOL   O29123975   3.453   2.223   7.169  0.2073  0.0518 -0.5482
   63MOL   C29223976   3.570   2.169   7.216 -0.0157  0.3597 -0.8198
   63MOL   C29323977   3.631   2.060   7.146 -0.5956  0.4438 -0.3405
   63MOL   C29423978   3.753   2.007   7.203 -0.1462  0.0355 -0.0380
   63MOL   C29523979   3.810   2.055   7.319 -0.0907  0.0306  0.8169
   63MOL   C29623980   3.752   2.163   7.384 -0.1536 -0.6973 -0.1526
   63MOL   C29723981   3.637   2.223   7.331 -0.8243 -0.2379 -0.1393
   63MOL   H29823982   3.131   2.325   6.853  1.2156  1.5826 -2.7623
   63MOL   H29923983   3.205   2.300   7.093  0.3498  0.8429 -0.5486
   63MOL   H30023984   3.452   2.169   6.970  0.9575 -2.0563  0.8770
   63MOL   H30123985   3.334   2.085   7.069  1.1543 -0.7813  0.5727
   63MOL   H30223986   3.603   2.021   7.049 -1.9953 -1.1991  0.6982
   63MOL   H30323987   3.797   1.923   7.151 -0.6033 -0.0472 -0.3026
   63MOL   H30423988   3.904   2.014   7.352  0.8009  0.6829 -0.8839
   63MOL   H30523989   3.791   2.186   7.483  0.6635 -1.6589 -0.2332
   63MOL   C30623990   3.584   2.349   7.393 -0.7012 -0.2763 -0.2073
   63MOL   C30723991   3.440   2.358   7.442  0.6528 -0.2054 -0.0548
   63MOL   O30823992   3.549   2.328   7.531  0.0006 -0.1494  0.5873
   63MOL   C30923993   3.332   2.245   7.425  0.1234  0.2260  0.0755
   63MOL   O31023994   3.255   2.240   7.546 -0.0382  0.0249  0.2580
   63MOL   C31123995   3.126   2.187   7.544 -0.1695 -0.0418 -0.7535
   63MOL   C31223996   3.088   2.073   7.474 -0.7646  0.0190 -0.2940
   63MOL   C31323997   2.967   2.012   7.502 -0.1213 -0.1693  0.4999
   63MOL   C31423998   2.876   2.059   7.598 -0.8427  0.3084  0.4204
   63MOL   C31523999   2.913   2.175   7.663 -0.0691  0.3298 -1.0480
   63MOL   C31624000   3.043   2.236   7.640  0.2648 -0.0664 -0.2822
   63MOL   H31724001   3.629   2.442   7.361  0.4517 -0.8969 -0.4198
   63MOL   H31824002   3.404   2.461   7.441 -2.6804 -1.2887  1.5440
   63MOL   H31924003   3.379   2.146   7.428  0.6707  0.4945  0.3137
   63MOL   H32024004   3.276   2.246   7.331 -0.5019 -1.3311  0.4162
   63MOL   H32124005   3.161   2.025   7.411 -0.6640 -1.2660  0.7921
   63MOL   H32224006   2.952   1.918   7.451 -1.7701  1.2322 -1.7083
   63MOL   H32324007   2.791   2.003   7.635 -0.6606 -0.2493 -0.0055
   63MOL   H32424008   2.859   2.213   7.748  0.9094 -0.2976 -0.1321
   63MOL   C32524009   3.083   2.357   7.723 -0.1199 -0.5662 -0.3418
   63MOL   C32624010   3.046   2.493   7.671 -0.0085  0.3076 -0.0315
   63MOL   O32724011   2.971   2.432   7.777 -0.2689  0.6432 -0.1961
   63MOL   C32824012   2.964   2.521   7.538  0.6118 -1.1094 -0.2605
   63MOL   O32924013   2.907   2.646   7.526 -0.4434 -0.5056 -0.3116
   63MOL   C33024014   2.995   2.753   7.508  0.4135  0.6441  0.1971
   63MOL   C33124015   3.136   2.747   7.488 -0.0024  0.5012  1.0613
   63MOL   C33224016   3.210   2.866   7.481  0.8168 -0.2794 -0.7293
   63MOL   C33324017   3.147   2.991   7.483  0.2098 -0.1780 -0.3366
   63MOL   C33424018   3.005   2.998   7.505 -0.3543 -0.3892 -0.8853
   63MOL   C33524019   2.931   2.880   7.509 -0.0808  0.5520 -0.2491
   63MOL   H33624020   3.167   2.346   7.792  0.9446 -0.2420 -1.5574
   63MOL   H33724021   3.123   2.565   7.699 -0.5224  0.9474 -0.2588
   63MOL   H33824022   2.876   2.457   7.549 -1.5069  1.5121 -1.4946
   63MOL   H33924023   3.022   2.494   7.450  1.6723  1.1405 -0.2820
   63MOL   H34024024   3.191   2.655   7.483  1.8623  1.4564  2.9512
   63MOL   H34124025   3.316   2.861   7.462  0.6130  1.9847 -2.7000
   63MOL   H34224026   3.202   3.084   7.484 -1.2550  0.7353 -1.4303
   63MOL   H34324027   2.951   3.091   7.500  0.0195  0.0853  2.5625
   63MOL   C34424028   2.781   2.883   7.530  0.3736 -0.3230  0.4246
   63MOL   C34524029   2.720   2.890   7.666  0.2861  0.1127  0.1518
   63MOL   O34624030   2.729   3.002   7.580  0.2523  0.0918 -0.3107
   63MOL   C34724031   2.794   2.902   7.801  0.2038  0.3613  0.0891
   63MOL   O34824032   2.708   2.877   7.915  0.0802 -0.1084  0.5795
   63MOL   C34924033   2.682   2.747   7.954  0.0080  0.4861  0.5866
   63MOL   C35024034   2.754   2.633   7.902  0.4686 -0.0481  0.4516
   63MOL   C35124035   2.731   2.505   7.949  0.3925  0.2742 -0.6032
   63MOL   C35224036   2.634   2.479   8.047 -0.3403 -0.1181  0.0812
   63MOL   C35324037   2.558   2.589   8.094  0.3042  0.4429  0.9515
   63MOL   C35424038   2.576   2.718   8.042  0.4325 -0.3258 -0.2502
   63MOL   H35524039   2.718   2.816   7.471 -2.1557  1.6165  0.8551
   63MOL   H35624040   2.621   2.844   7.675  0.8562 -0.8716  1.6188
   63MOL   H35724041   2.823   3.007   7.809 -0.4307  0.5650 -0.2026
   63MOL   H35824042   2.884   2.843   7.812 -0.0029  0.2062  0.9720
   63MOL   H35924043   2.836   2.647   7.834  1.8920 -1.2912  1.8889
   63MOL   H36024044   2.786   2.418   7.918 -0.2373  0.5369 -2.5115
   63MOL   H36124045   2.614   2.380   8.087  1.3741 -0.8116 -0.7322
   63MOL   H36224046   2.486   2.570   0.002 -0.7405 -0.8039 -0.3058
   63MOL   C36324047   2.502   2.839   8.096  0.8919 -0.3375  0.2594
   63MOL   C36424048   2.380   2.901   8.019  0.3699  0.2770  0.0469
   63MOL   O36524049   2.372   2.803   8.128  0.0574 -0.0687 -0.1991
   63MOL   C36624050   2.334   2.855   7.884 -0.0385 -0.0569  0.9133
   63MOL   O36724051   2.192   2.855   7.878  0.4689  0.2057 -0.2098
   63MOL   C36824052   2.131   2.748   7.940  0.4408 -0.2452 -0.2236
   63MOL   C36924053   2.186   2.617   7.934 -0.6135  0.0779 -0.3986
   63MOL   C37024054   2.131   2.511   8.009 -0.0144  0.0898 -0.0229
   63MOL   C37124055   2.018   2.536   8.090 -0.4604  0.1045 -0.4205
   63MOL   C37224056   1.960   2.668   8.090  0.7307 -0.2162 -0.7055
   63MOL   C37324057   2.015   2.773   8.013 -0.5444 -0.4152  0.2949
   63MOL   H37424058   2.558   2.886   0.006 -0.7758 -0.0330  1.2752
   63MOL   H37524059   2.337   2.999   8.039  0.3638  0.1738  0.5390
   63MOL   H37624060   2.391   2.768   7.855 -2.9197 -2.0211  0.8939
   63MOL   H37724061   2.364   2.933   7.813 -0.9163 -2.0611 -1.7526
   63MOL   H37824062   2.266   2.595   7.865 -2.0939  0.6223 -2.3604
   63MOL   H37924063   2.179   2.414   8.009 -1.4677 -0.6777  1.7710
   63MOL   H38024064   1.978   2.462   8.158  0.0734 -0.4523 -0.7098
   63MOL   H38124065   1.873   2.686   8.151 -0.4280  0.2397 -2.4607
   63MOL   H38224066   1.970   2.871   8.011  0.1603 -0.0904  0.0020
   64MOL     C124067   2.534   6.164   2.213  0.4298  0.2737  0.1535
   64MOL     C224068   2.639   6.133   2.119  0.0819 -0.5848  0.2406
   64MOL     O324069   2.556   6.029   2.164  0.2392 -0.3329  0.7868
   64MOL     C424070   2.789   6.112   2.152 -0.0305 -0.6166 -1.5861
   64MOL     O524071   2.810   6.120   2.293 -0.0906  0.0937 -0.1525
   64MOL     C624072   2.798   6.250   2.349  0.0578 -0.3656  0.1944
   64MOL     C724073   2.800   6.377   2.278 -0.2154  0.6997 -0.0084
   64MOL     C824074   2.779   6.499   2.351 -0.0970  0.1373  0.4774
   64MOL     C924075   2.766   6.500   2.491  1.0302 -0.4900  0.2167
   64MOL    C1024076   2.779   6.373   2.551 -0.3118 -0.0293  0.1769
   64MOL    C1124077   2.788   6.250   2.492 -0.2598 -0.6509  0.7897
   64MOL    H1224078   2.448   6.212   2.166  2.1448  0.1755 -3.2141
   64MOL    H1324079   2.613   6.146   2.014 -1.0406  1.0521  0.7118
   64MOL    H1424080   2.847   6.189   2.102 -1.5136  0.9495 -0.9256
   64MOL    H1524081   2.819   6.012   2.121  0.5008 -1.3999  1.2872
   64MOL    H1624082   2.797   6.380   2.170  2.5048 -0.9836 -0.1868
   64MOL    H1724083   2.794   6.590   2.295 -1.1813  0.0949  0.0974
   64MOL    H1824084   2.763   6.588   2.554  1.7796  0.0332 -0.4701
   64MOL    H1924085   2.767   6.370   2.658 -0.5416 -0.1360  0.1473
   64MOL    H2024086   2.548   6.185   2.319 -0.1375  1.8331 -0.0624
   64MOL    C2124087   2.778   6.129   2.568 -0.5379 -0.4080  0.6031
   64MOL    C2224088   2.899   6.053   2.610  0.1889  0.4375  0.6991
   64MOL    O2324089   2.834   6.147   2.699 -0.1266 -0.2982 -0.1646
   64MOL    C2424090   3.035   6.086   2.554  0.5604  0.2764  0.4642
   64MOL    O2524091   3.138   6.035   2.641 -0.1897 -0.5470  0.2203
   64MOL    C2624092   3.172   6.095   2.762 -0.7706  0.3065 -0.1228
   64MOL    C2724093   3.111   6.213   2.810  0.7141  0.5777  0.2919
   64MOL    C2824094   3.152   6.268   2.929 -0.6777 -0.4902 -0.4424
   64MOL    C2924095   3.263   6.215   3.005  0.5481  0.4023 -0.2402
   64MOL    C3024096   3.317   6.092   2.961 -0.9143 -0.5443 -0.0076
   64MOL    C3124097   3.272   6.036   2.841 -0.1589  0.3141  0.1940
   64MOL    H3224098   2.692   6.064   2.549 -0.0129 -1.7348  2.6160
   64MOL    H3324099   2.888   5.953   2.651 -0.7003  1.6031  3.4391
   64MOL    H3424100   3.052   6.192   2.533  1.4671  0.3035  1.2624
   64MOL    H3524101   3.031   6.043   2.455 -0.9421  1.9334 -0.2152
   64MOL    H3624102   3.042   6.266   2.745  2.9829 -0.8846 -3.4636
   64MOL    H3724103   3.100   6.353   2.971  1.3361 -0.3254  1.7966
   64MOL    H3824104   3.306   6.265   3.090  0.6709 -0.3370  0.1285
   64MOL    H3924105   3.394   6.054   3.028 -1.0569 -0.1418  0.3839
   64MOL    C4024106   3.332   5.905   2.800 -0.0202 -0.3752  0.1300
   64MOL    C4124107   3.474   5.913   2.746  0.5315 -0.0940 -0.0547
   64MOL    O4224108   3.441   5.861   2.875 -0.2200 -0.7193 -0.4602
   64MOL    C4324109   3.575   6.023   2.745  0.7502 -0.5745 -0.0421
   64MOL    O4424110   3.685   5.974   2.821  0.4105 -0.6017  0.0282
   64MOL    C4524111   3.794   6.056   2.832  0.4470  0.5363  0.3209
   64MOL    C4624112   3.798   6.182   2.767 -0.1810 -0.5287  0.0954
   64MOL    C4724113   3.911   6.260   2.788 -1.1911  0.4393  0.1967
   64MOL    C4824114   4.018   6.216   2.866 -0.2957  0.6299 -0.1883
   64MOL    C4924115   4.017   6.090   2.927 -0.2970  0.5089 -0.1047
   64MOL    C5024116   3.900   6.006   2.913 -0.6377 -0.4555  0.2720
   64MOL    H5124117   3.256   5.829   2.783 -0.0916 -0.4469  0.7735
   64MOL    H5224118   3.504   5.833   2.678 -1.3767  0.3006 -1.4205
   64MOL    H5324119   3.535   6.117   2.782  0.7400 -0.3521 -0.6059
   64MOL    H5424120   3.597   6.041   2.639 -1.0430  1.3503 -0.1165
   64MOL    H5524121   3.717   6.226   2.711  0.1040 -0.5857 -0.3606
   64MOL    H5624122   3.913   6.357   2.741 -1.3406 -0.5051 -1.7833
   64MOL    H5724123   4.106   6.277   2.878  0.4763 -0.4223 -0.4148
   64MOL    H5824124   4.105   6.065   2.984 -0.3678  0.5671  0.0294
   64MOL    C5924125   3.876   5.869   2.966  0.3704  0.5371 -1.0087
   64MOL    C6024126   3.864   5.754   2.877 -0.3640  0.6634 -0.6244
   64MOL    O6124127   3.981   5.779   2.950 -0.0076 -0.0340 -0.0821
   64MOL    C6224128   3.895   5.754   2.727  0.2092  0.0213  0.4671
   64MOL    O6324129   3.923   5.625   2.689  0.2273  0.3195 -0.1144
   64MOL    C6424130   3.944   5.599   2.553 -0.1609  0.6583 -0.3764
   64MOL    C6524131   3.978   5.703   2.464 -0.4047  1.0518  0.9338
   64MOL    C6624132   4.008   5.666   2.331  0.4180  0.3476 -0.3715
   64MOL    C6724133   3.978   5.530   2.287  0.1193 -0.8539 -0.0452
   64MOL    C6824134   3.935   5.438   2.383  0.5056 -0.2814 -0.3218
   64MOL    C6924135   3.913   5.474   2.516  0.9207  0.0933  0.6832
   64MOL    H7024136   3.853   5.863   3.072 -0.3395 -2.3078 -1.2786
   64MOL    H7124137   3.816   5.665   2.918  0.5229  1.9537  3.3728
   64MOL    H7224138   3.986   5.813   2.722  1.8040 -2.1572  2.5077
   64MOL    H7324139   3.817   5.801   2.666 -0.4894 -1.4464  0.2042
   64MOL    H7424140   3.991   5.804   2.500 -1.0880  1.0956  1.0695
   64MOL    H7524141   4.054   5.740   2.267 -0.8694 -0.7335 -2.5834
   64MOL    H7624142   3.991   5.494   2.185  0.5195  2.4575 -1.2332
   64MOL    H7724143   3.912   5.337   2.351  0.5678  0.4371 -2.7173
   64MOL    C7824144   3.866   5.364   2.615  0.1353 -0.4411 -0.0452
   64MOL    C7924145   3.725   5.343   2.668 -0.5300 -0.5510  0.7319
   64MOL    O8024146   3.774   5.259   2.568 -0.6315 -0.4934  0.2220
   64MOL    C8124147   3.603   5.416   2.627 -0.6110 -0.5716  0.6947
   64MOL    O8224148   3.617   5.500   2.510 -0.1724 -0.4125 -0.6423
   64MOL    C8324149   3.516   5.600   2.493 -0.5759 -0.1268  0.0055
   64MOL    C8424150   3.399   5.605   2.568  0.2716 -0.0979  0.0789
   64MOL    C8524151   3.291   5.688   2.529 -0.1268  0.7439  1.0620
   64MOL    C8624152   3.302   5.754   2.403  0.5478  0.1886 -0.2822
   64MOL    C8724153   3.426   5.756   2.336 -0.4234  0.5170 -0.1563
   64MOL    C8824154   3.529   5.671   2.374  0.3599 -0.4138 -0.2131
   64MOL    H8924155   3.946   5.349   2.687 -0.2663  0.2248  0.5481
   64MOL    H9024156   3.722   5.307   2.770 -2.4925  0.1045  0.9326
   64MOL    H9124157   3.571   5.479   2.710 -2.3171  0.9856 -1.1015
   64MOL    H9224158   3.525   5.341   2.611 -0.1189 -0.9594  0.0640
   64MOL    H9324159   3.378   5.542   2.654 -1.2083  0.2548 -0.0186
   64MOL    H9424160   3.204   5.689   2.593  0.0854 -2.1014  1.4300
   64MOL    H9524161   3.219   5.815   2.371 -1.0461 -1.5684  0.3520
   64MOL    H9624162   3.436   5.812   2.244  2.9249 -1.2867 -0.9690
   64MOL    C9724163   3.640   5.654   2.282 -0.0887 -0.2382  0.2344
   64MOL    C9824164   3.635   5.579   2.157 -0.8275  0.1209 -0.1540
   64MOL    O9924165   3.610   5.718   2.152  0.1977  0.0788 -0.1040
   64MOL   C10024166   3.513   5.500   2.106  0.4539 -0.1499  0.0470
   64MOL   O10124167   3.519   5.506   1.962  0.7684 -0.0097 -0.0774
   64MOL   C10224168   3.583   5.404   1.896  0.4294 -0.3224  0.8322
   64MOL   C10324169   3.566   5.263   1.928 -0.6350 -0.6495  0.1423
   64MOL   C10424170   3.640   5.166   1.857 -0.4127  0.1798  0.2454
   64MOL   C10524171   3.733   5.202   1.756  0.1501  0.1480 -0.1573
   64MOL   C10624172   3.752   5.341   1.732  0.4489  0.3725  0.0531
   64MOL   C10724173   3.672   5.438   1.796  0.5645  0.1141 -0.2179
   64MOL   H10824174   3.738   5.682   2.319  0.1501  0.1561 -0.6816
   64MOL   H10924175   3.733   5.551   2.121 -0.4566  0.9569  0.1848
   64MOL   H11024176   3.425   5.558   2.135 -0.6898 -1.0612 -1.5420
   64MOL   H11124177   3.507   5.400   2.149 -4.4066 -0.4345 -1.0173
   64MOL   H11224178   3.515   5.224   2.015  0.6616 -0.7136  0.8910
   64MOL   H11324179   3.637   5.065   1.895  0.9566  0.6304  1.6024
   64MOL   H11424180   3.800   5.135   1.704  0.2478 -1.1494  1.6078
   64MOL   H11524181   3.824   5.371   1.657  0.3762  0.2133 -0.0798
   64MOL   C11624182   3.681   5.584   1.753 -0.2212 -1.0845 -0.0747
   64MOL   C11724183   3.803   5.668   1.787  0.3976 -0.0114 -0.3912
   64MOL   O11824184   3.780   5.618   1.650 -0.4375  0.4203 -0.5081
   64MOL   C11924185   3.914   5.622   1.876 -0.4857 -0.6999 -0.0065
   64MOL   O12024186   4.020   5.721   1.901 -0.4065 -0.6996  0.0832
   64MOL   C12124187   4.132   5.673   1.967 -0.3707  0.1436 -0.3149
   64MOL   C12224188   4.147   5.535   1.998 -0.5891 -0.1962 -0.6249
   64MOL   C12324189   4.270   5.485   2.053 -0.3332 -0.3613  0.2780
   64MOL   C12424190   4.372   5.579   2.094 -0.2584  0.1210 -0.5122
   64MOL   C12524191   4.345   5.714   2.071  0.3468 -0.3490  0.2301
   64MOL   C12624192   4.227   5.769   2.007  0.4136  0.0962 -0.0212
   64MOL   H12724193   3.591   5.645   1.754 -0.6479 -1.7069  1.6287
   64MOL   H12824194   3.784   5.775   1.796  0.3537 -0.0068 -0.5393
   64MOL   H12924195   3.957   5.536   1.825  0.7143 -0.2358  0.2274
   64MOL   H13024196   3.875   5.591   1.973 -0.0640 -0.6125  0.1924
   64MOL   H13124197   4.067   5.464   1.981  0.5557 -2.0496  1.4179
   64MOL   H13224198   4.269   5.378   2.072 -0.6755 -0.5176 -0.5874
   64MOL   H13324199   4.468   5.549   2.133  0.0098 -1.8196 -2.5464
   64MOL   H13424200   4.426   5.779   2.103  1.0665 -1.3995  0.5861
   64MOL   C13524201   4.205   5.915   1.986 -0.3664  0.5279  0.2070
   64MOL   C13624202   4.212   6.019   2.087 -0.2000 -0.6606  0.3490
   64MOL   O13724203   4.330   5.986   2.002  0.4162 -0.6869  0.5005
   64MOL   C13824204   4.226   5.983   2.235 -0.4922 -0.4580  0.5920
   64MOL   O13924205   4.317   6.071   2.303  1.0606 -0.2797 -0.0262
   64MOL   C14024206   4.302   6.099   2.435 -0.5379  0.5877 -0.2139
   64MOL   C14124207   4.212   6.027   2.516 -0.4504 -0.4650  0.1224
   64MOL   C14224208   4.206   6.066   2.653  0.2628  0.1352  0.2447
   64MOL   C14324209   4.296   6.157   2.708 -0.5367  0.2000  0.0946
   64MOL   C14424210   4.399   6.223   2.631  0.4932 -0.5719  0.2166
   64MOL   C14524211   4.388   6.202   2.490  0.7565  0.4895  0.0493
   64MOL   H14624212   4.169   5.933   1.885 -3.6560 -0.4016  1.1739
   64MOL   H14724213   4.171   6.114   2.053  0.8701 -1.3873 -3.1702
   64MOL   H14824214   4.258   5.879   2.244  0.7105 -0.1012  0.5026
   64MOL   H14924215   4.126   5.994   2.277 -0.3094  1.7868  0.5180
   64MOL   H15024216   4.147   5.947   2.481 -0.0175 -1.1454  0.8562
   64MOL   H15124217   4.137   6.017   2.721  0.0632  0.3831  0.2236
   64MOL   H15224218   4.289   6.168   2.815  2.0504  0.5696  0.2513
   64MOL   H15324219   4.459   6.305   2.669 -1.2263  1.1985 -0.8166
   64MOL   C15424220   4.469   6.290   2.397  0.2334  0.3972  0.0837
   64MOL   C15524221   4.395   6.382   2.307  0.0406  0.0411 -0.2168
   64MOL   O15624222   4.458   6.426   2.427  0.0489  0.0881 -0.8055
   64MOL   C15724223   4.246   6.400   2.299  0.0892  0.5966  0.3543
   64MOL   O15824224   4.221   6.521   2.230 -0.0437 -0.9337 -0.0917
   64MOL   C15924225   4.194   6.504   2.090 -0.2804  0.0377  0.0222
   64MOL   C16024226   4.298   6.497   1.997  0.4161  0.3584 -0.4124
   64MOL   C16124227   4.267   6.481   1.861 -0.5384 -0.4418 -0.5091
   64MOL   C16224228   4.138   6.466   1.818 -0.2386 -0.3941 -0.3673
   64MOL   C16324229   4.037   6.486   1.910  0.2829 -0.0656 -0.2466
   64MOL   C16424230   4.064   6.496   2.045  0.1991  0.3568  0.3284
   64MOL   H16524231   4.564   6.241   2.377 -0.3834 -0.5335 -0.6201
   64MOL   H16624232   4.450   6.408   2.216 -0.7765  2.5790 -0.0065
   64MOL   H16724233   4.202   6.409   2.398 -0.5338 -1.2558  0.2613
   64MOL   H16824234   4.207   6.312   2.248 -0.6839  0.3766  1.3166
   64MOL   H16924235   4.399   6.506   2.034 -0.4536  3.1908  1.4121
   64MOL   H17024236   4.349   6.489   1.791 -2.2270  1.5288 -2.3018
   64MOL   H17124237   4.117   6.466   1.712 -1.5208  0.5241 -0.1194
   64MOL   H17224238   3.934   6.477   1.878 -0.7741  0.1676  2.9311
   64MOL   C17324239   3.957   6.515   2.143 -0.0230 -0.6650 -0.1937
   64MOL   C17424240   3.891   6.653   2.161  0.5710  0.4961  0.7335
   64MOL   O17524241   3.834   6.549   2.080 -0.3903 -0.8325  0.8725
   64MOL   C17624242   3.949   6.779   2.091  0.1555  0.3740  0.1281
   64MOL   O17724243   4.068   6.813   2.169 -0.3247 -0.1725 -0.1887
   64MOL   C17824244   4.118   6.942   2.152  0.6727  0.4749 -0.0925
   64MOL   C17924245   4.066   7.041   2.069 -0.9645 -0.8433  0.5785
   64MOL   C18024246   4.127   7.171   2.061  0.3505 -0.2314 -0.2560
   64MOL   C18124247   4.235   7.202   2.142  0.2683  0.4182 -0.1045
   64MOL   C18224248   4.280   7.102   2.228 -0.2365 -0.3907 -0.1026
   64MOL   C18324249   4.228   6.975   2.230 -0.6562  0.5449 -0.5584
   64MOL   H18424250   3.943   6.443   2.223 -1.5846 -1.6700 -1.3478
   64MOL   H18524251   3.837   6.677   2.252  0.3656 -1.0485  1.0232
   64MOL   H18624252   3.870   6.853   2.086  0.4975  0.7939  0.8256
   64MOL   H18724253   3.977   6.760   1.987 -0.1357 -0.8206  0.2625
   64MOL   H18824254   3.984   7.026   2.001 -0.3853  1.4219 -0.6727
   64MOL   H18924255   4.089   7.244   1.991  1.4221 -0.1716 -0.7755
   64MOL   H19024256   4.274   7.302   2.153  0.2091  0.3511  0.7227
   64MOL   H19124257   4.358   7.126   2.299 -1.1111  0.6573  0.5267
   64MOL   C19224258   4.296   6.873   2.319  0.6711  0.4449 -0.0945
   64MOL   C19324259   4.417   6.788   2.263  0.4788 -0.2886  0.4766
   64MOL   O19424260   4.433   6.905   2.334  0.0015  0.0905  0.7816
   64MOL   C19524261   4.472   6.804   2.124 -0.4459 -0.1564  0.6105
   64MOL   O19624262   4.554   6.699   2.089  0.0471 -0.2656  0.1069
   64MOL   C19724263   4.654   6.732   2.006 -0.2037 -0.6535  0.1553
   64MOL   C19824264   4.653   6.834   1.905 -0.4723 -1.0597 -0.0574
   64MOL   C19924265   4.761   6.848   1.814 -0.1825 -0.2620 -0.3511
   64MOL   C20024266   4.877   6.770   1.839 -0.1698  0.5451 -1.1163
   64MOL   C20124267   4.883   6.667   1.938  0.6883  0.4724 -0.4663
   64MOL   C20224268   4.770   6.653   2.026  0.1195 -0.0111  0.4011
   64MOL   H20324269   4.244   6.845   2.410  0.9042  1.3221  0.3092
   64MOL   H20424270   4.444   6.703   2.325 -0.0334  0.1754  1.3555
   64MOL   H20524271   4.522   6.900   2.119  1.1419 -1.0058 -0.2015
   64MOL   H20624272   4.387   6.808   2.055  0.3445  0.1668 -0.3493
   64MOL   H20724273   4.563   6.894   1.896 -0.4450 -1.2405 -1.6613
   64MOL   H20824274   4.760   6.924   1.737  2.4397  0.6242  0.4234
   64MOL   H20924275   4.960   6.779   1.771 -0.4070  1.1515 -1.3309
   64MOL   H21024276   4.968   6.600   1.946  0.5346  0.2089 -0.9810
   64MOL   C21124277   4.767   6.557   2.141 -0.4916  0.2536  0.1238
   64MOL   C21224278   4.717   6.416   2.125  0.1366 -0.1372 -0.0332
   64MOL   O21324279   4.861   6.451   2.121  0.1083  0.8398 -0.1926
   64MOL   C21424280   4.672   6.340   2.005 -0.5854  0.0574 -0.3001
   64MOL   O21524281   4.696   6.197   2.009  0.4583  0.2714 -0.8888
   64MOL   C21624282   4.796   6.133   1.939 -0.4335  0.1563  0.3404
   64MOL   C21724283   4.919   6.198   1.912  0.6996 -0.1887  0.3406
   64MOL   C21824284   5.029   6.130   1.846 -0.5071 -0.3079  0.2199
   64MOL   C21924285   5.007   5.994   1.809  0.6993 -0.1757  0.4340
   64MOL   C22024286   4.893   5.928   1.851 -0.0056  0.7761 -0.2895
   64MOL   C22124287   4.779   5.994   1.908  0.0403 -0.0482 -0.2714
   64MOL   H22224288   4.770   6.606   2.238  1.3782  0.7417 -0.1725
   64MOL   H22324289   4.681   6.366   2.215 -1.5751 -0.5109 -0.9029
   64MOL   H22424290   4.711   6.385   1.914 -1.9443 -1.9191 -1.8943
   64MOL   H22524291   4.564   6.349   1.997 -0.9534 -2.5962  0.9738
   64MOL   H22624292   4.925   6.301   1.945 -1.1415  0.8178 -2.3186
   64MOL   H22724293   5.128   6.170   1.835  0.3466 -2.1111  0.9833
   64MOL   H22824294   5.079   5.926   1.766 -0.2753 -0.0225 -1.5127
   64MOL   H22924295   4.876   5.823   1.828 -1.4070  0.9511 -0.0473
   64MOL   C23024296   4.649   5.931   1.930  0.2557  0.4314 -0.5265
   64MOL   C23124297   4.568   5.852   1.827 -0.3175 -0.4253 -0.6896
   64MOL   O23224298   4.650   5.783   1.928 -0.1053 -0.4721 -0.1968
   64MOL   C23324299   4.608   5.841   1.673 -0.1575  0.3305 -0.1250
   64MOL   O23424300   4.560   5.720   1.619  0.1166  0.2128  0.6059
   64MOL   C23524301   4.425   5.696   1.608 -0.3750  0.9442 -0.6267
   64MOL   C23624302   4.325   5.799   1.621  0.2188  0.2489  0.1051
   64MOL   C23724303   4.188   5.767   1.601  0.3695 -0.1274 -0.2603
   64MOL   C23824304   4.146   5.641   1.575  0.4144 -0.1785  0.2887
   64MOL   C23924305   4.241   5.541   1.555 -0.6354  0.1389  0.3517
   64MOL   C24024306   4.380   5.563   1.571 -0.0158  0.1228 -0.8370
   64MOL   H24124307   4.599   5.974   2.016 -2.8612 -2.6834 -0.6800
   64MOL   H24224308   4.464   5.867   1.856 -0.0313 -0.1070  0.2013
   64MOL   H24324309   4.716   5.843   1.656 -0.2825 -1.0476 -1.1541
   64MOL   H24424310   4.576   5.931   1.620  2.8765  1.3727 -0.2994
   64MOL   H24524311   4.341   5.904   1.640 -0.0378  0.1309  0.9969
   64MOL   H24624312   4.109   5.840   1.606  2.3940  2.1276 -0.2869
   64MOL   H24724313   4.044   5.607   1.573  1.5906 -3.9186 -1.0519
   64MOL   H24824314   4.202   5.447   1.521 -4.5174  2.1188 -0.9147
   64MOL   C24924315   4.482   5.452   1.546 -0.1563 -0.5233  0.3154
   64MOL   C25024316   4.552   5.391   1.659 -0.1588  0.6144  0.5065
   64MOL   O25124317   4.438   5.325   1.596  0.4367  0.0022 -0.3460
   64MOL   C25224318   4.536   5.427   1.805  0.2309  0.0031  0.0181
   64MOL   O25324319   4.512   5.311   1.872 -0.3212  0.2903 -0.1331
   64MOL   C25424320   4.611   5.227   1.921 -0.3156  0.2698 -1.0967
   64MOL   C25524321   4.747   5.260   1.918 -0.6258  0.4509 -0.4623
   64MOL   C25624322   4.843   5.193   1.999 -0.0295 -0.1788 -0.3137
   64MOL   C25724323   4.812   5.065   2.042 -0.2084  0.0976 -0.6477
   64MOL   C25824324   4.674   5.025   2.043 -0.3062 -0.3351 -0.6269
   64MOL   C25924325   4.575   5.108   1.988  0.5399 -0.2538 -0.2802
   64MOL   H26024326   4.522   5.454   1.444  0.7553  1.3277  0.6827
   64MOL   H26124327   4.653   5.368   1.624 -0.6327  1.7810 -1.7062
   64MOL   H26224328   4.447   5.488   1.819  0.8940  0.8399  0.7183
   64MOL   H26324329   4.619   5.485   1.846  0.0191 -0.2584  0.8274
   64MOL   H26424330   4.784   5.351   1.872 -0.0771 -1.4517 -3.9204
   64MOL   H26524331   4.945   5.227   2.007 -0.1561 -0.4423  4.2003
   64MOL   H26624332   4.893   5.002   2.075  0.5231  0.8171 -1.0610
   64MOL   H26724333   4.649   4.931   2.089 -0.5841 -0.3138 -0.7342
   64MOL   C26824334   4.436   5.065   2.012  0.7387 -0.3606 -0.2224
   64MOL   C26924335   4.352   5.010   1.899  0.0552  0.7396  0.0335
   64MOL   O27024336   4.425   4.922   1.989  0.6867  0.2741  0.1125
   64MOL   C27124337   4.404   5.020   1.763 -0.5793 -0.1224 -0.1118
   64MOL   O27224338   4.339   4.918   1.688  0.5559  0.0674 -0.1835
   64MOL   C27324339   4.216   4.934   1.636  0.2270  0.4698  0.2292
   64MOL   C27424340   4.156   5.062   1.602 -0.1058 -0.1809 -0.1529
   64MOL   C27524341   4.018   5.065   1.557  0.5767  0.6698  0.1445
   64MOL   C27624342   3.942   4.945   1.545 -0.3476  0.4239  0.3228
   64MOL   C27724343   4.006   4.822   1.568 -0.2618 -1.1083 -0.3950
   64MOL   C27824344   4.144   4.813   1.614 -0.0481  0.0926 -0.2911
   64MOL   H27924345   4.411   5.086   2.116 -0.7138 -2.4253 -0.1264
   64MOL   H28024346   4.244   5.007   1.905  0.0084 -2.4677 -1.7480
   64MOL   H28124347   4.512   5.004   1.760 -0.5658 -0.6098  2.5032
   64MOL   H28224348   4.370   5.114   1.719 -0.8181  0.3830  1.1427
   64MOL   H28324349   4.211   5.154   1.616 -0.8027  0.3316 -0.7559
   64MOL   H28424350   3.973   5.158   1.527  0.0887  0.7083  0.9785
   64MOL   H28524351   3.837   4.957   1.521 -0.9994 -0.9741  2.3270
   64MOL   H28624352   3.951   4.730   1.557 -1.4643 -0.4866  0.3314
   64MOL   C28724353   4.201   4.677   1.646 -0.5031 -0.0260  0.0863
   64MOL   C28824354   4.218   4.623   1.785  0.3464  0.3893  0.1930
   64MOL   O28924355   4.106   4.597   1.708  0.6750 -0.2464 -0.4210
   64MOL   C29024356   4.184   4.695   1.913  0.4692 -0.0902 -0.1883
   64MOL   O29124357   4.117   4.624   2.011  0.2394  0.0321 -0.5025
   64MOL   C29224358   4.185   4.534   2.096  0.4864  0.0950 -0.0301
   64MOL   C29324359   4.326   4.515   2.086  0.0856  0.4184  0.2265
   64MOL   C29424360   4.391   4.422   2.170  0.6275 -0.2835  0.3203
   64MOL   C29524361   4.320   4.347   2.268  0.4548  0.0063 -0.1035
   64MOL   C29624362   4.179   4.365   2.276  0.3845  1.0640 -0.3044
   64MOL   C29724363   4.115   4.458   2.189 -0.1215 -0.0775 -0.1055
   64MOL   H29824364   4.258   4.628   1.567  2.5823  1.6497  1.1620
   64MOL   H29924365   4.280   4.535   1.801  0.2638  0.4750  1.0397
   64MOL   H30024366   4.118   4.777   1.887  1.7188  1.4651  1.4238
   64MOL   H30124367   4.280   4.733   1.950 -0.3802 -0.0364  2.0435
   64MOL   H30224368   4.389   4.560   2.010  2.1138 -1.8175  0.5274
   64MOL   H30324369   4.498   4.409   2.162  0.3730 -0.7914 -2.5673
   64MOL   H30424370   4.374   4.290   2.342 -1.6668 -0.2449  1.2882
   64MOL   H30524371   4.116   4.311   2.345  0.3001  0.7164 -0.6516
   64MOL   C30624372   3.964   4.474   2.197  0.6821 -0.5950  0.9587
   64MOL   C30724373   3.861   4.472   2.081 -0.4629 -0.0373 -0.4101
   64MOL   O30824374   3.890   4.357   2.164  0.3092 -0.2037 -0.2560
   64MOL   C30924375   3.895   4.431   1.936 -0.4170  0.7889  0.1533
   64MOL   O31024376   3.783   4.380   1.872 -0.3925 -0.3669  0.5629
   64MOL   C31124377   3.800   4.351   1.739 -0.8525 -0.5658 -0.0730
   64MOL   C31224378   3.932   4.341   1.671  0.6936 -0.1681  0.4838
   64MOL   C31324379   3.937   4.304   1.535 -0.6871 -0.3778  0.6764
   64MOL   C31424380   3.818   4.264   1.471  0.5889 -0.6104  0.2750
   64MOL   C31524381   3.693   4.278   1.538 -0.1689  0.3216 -0.0257
   64MOL   C31624382   3.682   4.321   1.669 -0.3126 -0.5994  0.1773
   64MOL   H31724383   3.935   4.502   2.298  0.5856 -1.9015  1.3082
   64MOL   H31824384   3.776   4.536   2.105  1.3568  2.2499  0.1488
   64MOL   H31924385   3.987   4.373   1.934 -0.8476  0.1325 -0.9040
   64MOL   H32024386   3.927   4.522   1.886  0.5028  0.1521 -0.4267
   64MOL   H32124387   4.027   4.359   1.719  0.2796 -0.4518  1.4202
   64MOL   H32224388   4.035   4.295   1.491 -1.0642 -0.5917 -0.1242
   64MOL   H32324389   3.826   4.227   1.370 -0.8975 -1.7099  0.5449
   64MOL   H32424390   3.602   4.252   1.484 -0.2087  2.3277 -0.9906
   64MOL   C32524391   3.548   4.343   1.734  0.6500  0.2409  0.0549
   64MOL   C32624392   3.505   4.483   1.769 -0.2170 -0.1962  0.4253
   64MOL   O32724393   3.442   4.409   1.661  0.4136 -0.5365  0.1330
   64MOL   C32824394   3.551   4.620   1.720  0.3771 -0.1043 -0.5031
   64MOL   O32924395   3.630   4.616   1.602 -0.0447  0.2714  0.1933
   64MOL   C33024396   3.638   4.735   1.535 -0.2345  0.9203 -0.1407
   64MOL   C33124397   3.596   4.861   1.593  0.3728 -0.9763 -0.0432
   64MOL   C33224398   3.600   4.974   1.512  0.7244 -0.4118 -0.0730
   64MOL   C33324399   3.642   4.968   1.383 -0.5984 -0.1529 -0.3293
   64MOL   C33424400   3.677   4.851   1.321 -0.4040  0.0829  0.2601
   64MOL   C33524401   3.678   4.731   1.397 -0.7922 -0.2166 -0.5476
   64MOL   H33624402   3.519   4.266   1.805  0.6122  1.5616  1.5014
   64MOL   H33724403   3.448   4.497   1.861 -2.0145  0.0362 -0.7059
   64MOL   H33824404   3.608   4.660   1.803 -2.4923 -0.2027  1.6045
   64MOL   H33924405   3.460   4.679   1.706 -0.2465 -0.3707  2.2484
   64MOL   H34024406   3.566   4.867   1.697  0.3356 -2.2204  0.0262
   64MOL   H34124407   3.558   5.067   1.547 -2.0494 -0.2500 -3.5303
   64MOL   H34224408   3.643   5.059   1.324  2.5729  0.4801  0.6052
   64MOL   H34324409   3.701   4.852   1.216  4.3869  2.6596  1.2309
   64MOL   C34424410   3.717   4.604   1.335  0.4291  0.2885 -0.1942
   64MOL   C34524411   3.611   4.512   1.274 -0.4696 -0.5087  0.8154
   64MOL   O34624412   3.692   4.603   1.196  0.1952 -0.4344 -0.2736
   64MOL   C34724413   3.462   4.538   1.269 -0.2926  0.1263 -0.0412
   64MOL   O34824414   3.401   4.416   1.219  0.4012  0.3717 -0.5246
   64MOL   C34924415   3.266   4.402   1.200 -0.3670  0.1622 -0.0516
   64MOL   C35024416   3.181   4.515   1.198  0.9350 -0.2608 -0.2316
   64MOL   C35124417   3.051   4.503   1.161 -0.1187  0.4417  0.3144
   64MOL   C35224418   3.001   4.379   1.123 -1.3020  0.4507 -0.9718
   64MOL   C35324419   3.083   4.264   1.124  0.2437 -0.5734 -0.3170
   64MOL   C35424420   3.217   4.275   1.160 -0.3150 -0.8911 -0.3619
   64MOL   H35524421   3.812   4.566   1.370  0.1341 -0.4102 -0.1486
   64MOL   H35624422   3.638   4.407   1.276 -0.8071 -0.6033  0.5174
   64MOL   H35724423   3.439   4.615   1.195  2.2160  1.5759  0.6098
   64MOL   H35824424   3.421   4.571   1.365 -1.3825 -1.7228  0.1498
   64MOL   H35924425   3.219   4.613   1.224 -0.6653  0.5867 -1.0245
   64MOL   H36024426   2.989   4.592   1.166  0.1607  0.6562  0.0062
   64MOL   H36124427   2.896   4.375   1.101 -1.6452  2.5132  0.1718
   64MOL   H36224428   3.056   4.165   1.090 -0.9222  0.0211 -1.1519
   64MOL   C36324429   3.307   4.161   1.150  0.0611  0.4569  0.2846
   64MOL   C36424430   3.349   4.095   1.274 -0.7196 -0.3683 -0.0612
   64MOL   O36524431   3.252   4.038   1.189  0.3824 -0.1613 -0.2364
   64MOL   C36624432   3.305   4.133   1.421  1.2979 -0.2332 -0.1680
   64MOL   O36724433   3.325   4.036   1.522  0.3036  0.3859  0.6955
   64MOL   C36824434   3.257   3.917   1.523 -0.0763 -0.2524 -0.6004
   64MOL   C36924435   3.145   3.890   1.439  0.5776  0.6826  0.9650
   64MOL   C37024436   3.082   3.764   1.436  0.5945  0.2135  0.6391
   64MOL   C37124437   3.131   3.665   1.521 -0.0470  0.2768 -1.1705
   64MOL   C37224438   3.238   3.697   1.617  0.0648 -0.0746  0.7262
   64MOL   C37324439   3.304   3.820   1.608 -0.1406  0.0250  0.1263
   64MOL   H37424440   3.365   4.153   1.059 -0.0014 -2.6451  0.4422
   64MOL   H37524441   3.438   4.033   1.264 -0.2377  0.5900 -1.9092
   64MOL   H37624442   3.204   4.175   1.415  0.9963 -1.0860 -1.4072
   64MOL   H37724443   3.366   4.216   1.456  0.7317  2.6912 -5.4551
   64MOL   H37824444   3.113   3.971   1.375  0.4754 -1.0295 -1.2435
   64MOL   H37924445   2.997   3.745   1.372  0.7028  1.5290  0.0685
   64MOL   H38024446   3.087   3.567   1.510  0.6162 -0.2701  0.9214
   64MOL   H38124447   3.263   3.626   1.694 -0.0890  2.3002  3.0410
   64MOL   H38224448   3.381   3.839   1.681 -0.5969  0.2592  0.5539
   65MOL     C124449   6.682   3.375   5.131  0.0065  0.1499 -0.3497
   65MOL     C224450   6.623   3.438   5.006  0.2134  0.1573  0.3971
   65MOL     O324451   6.760   3.468   5.050  0.2146  0.5662 -0.4125
   65MOL     C424452   6.528   3.558   4.993  0.4013 -0.7243  0.1753
   65MOL     O524453   6.508   3.617   5.119  1.2179 -0.1958  0.4785
   65MOL     C624454   6.413   3.554   5.207 -0.9232 -0.4068  0.8987
   65MOL     C724455   6.317   3.463   5.162  0.5877  0.1684  0.0008
   65MOL     C824456   6.231   3.399   5.247 -0.1898  0.0047  0.5905
   65MOL     C924457   6.218   3.448   5.376  0.1517  0.3022 -0.2802
   65MOL    C1024458   6.311   3.544   5.417 -1.0720  0.0866 -0.0682
   65MOL    C1124459   6.405   3.602   5.332 -0.2442  0.4596 -0.7298
   65MOL    H1224460   6.709   3.270   5.127  0.8235  0.1464  3.5211
   65MOL    H1324461   6.624   3.370   4.921 -0.0740 -0.4987  0.9145
   65MOL    H1424462   6.436   3.535   4.941  0.1644  0.6702 -0.0591
   65MOL    H1524463   6.580   3.629   4.928  0.5434 -0.5311  0.4983
   65MOL    H1624464   6.321   3.428   5.060 -0.5767  0.2904 -0.0975
   65MOL    H1724465   6.162   3.322   5.213 -1.2825  0.9227  0.7080
   65MOL    H1824466   6.144   3.399   5.438  0.7149  1.1816  1.1305
   65MOL    H1924467   6.298   3.590   5.514  1.0966 -0.1613  0.3646
   65MOL    H2024468   6.675   3.411   5.233  1.9332  0.7404 -0.4001
   65MOL    C2124469   6.486   3.717   5.380  0.2958  0.0001  0.1886
   65MOL    C2224470   6.446   3.861   5.347  0.5045  0.1431 -0.1498
   65MOL    O2324471   6.408   3.799   5.470  0.2562 -0.2053  0.2881
   65MOL    C2424472   6.337   3.889   5.244 -0.9031  0.0996  0.3612
   65MOL    O2524473   6.268   4.010   5.271  0.2524  0.0855 -0.4273
   65MOL    C2624474   6.166   4.018   5.364 -0.0896 -0.3704 -0.1598
   65MOL    C2724475   6.123   3.911   5.445  0.0514  0.9952 -0.1452
   65MOL    C2824476   6.014   3.924   5.526  0.2671  0.2315 -0.2606
   65MOL    C2924477   5.939   4.045   5.521  0.1830 -0.7611 -0.5004
   65MOL    C3024478   5.980   4.153   5.443  0.9886 -0.0998  0.3831
   65MOL    C3124479   6.095   4.139   5.360  0.6634 -0.0160  0.1911
   65MOL    H3224480   6.590   3.698   5.409  0.5645 -0.9799 -1.3914
   65MOL    H3324481   6.522   3.937   5.359 -0.3076  1.1066 -1.0669
   65MOL    H3424482   6.260   3.812   5.235 -0.9398  0.4911 -3.1391
   65MOL    H3524483   6.376   3.912   5.145  1.5421 -2.6420  0.6073
   65MOL    H3624484   6.177   3.818   5.437  0.9594  1.4858  0.1433
   65MOL    H3724485   5.973   3.834   5.568 -1.2656  1.3433  0.6803
   65MOL    H3824486   5.844   4.044   5.573 -0.8915 -1.2583 -2.3922
   65MOL    H3924487   5.925   4.246   5.443  0.8485 -0.1419  2.6089
   65MOL    C4024488   6.125   4.250   5.262 -0.1098 -0.2092  0.4483
   65MOL    C4124489   6.071   4.257   5.119  0.1078 -0.3209  0.0589
   65MOL    O4224490   6.009   4.326   5.231 -0.0761 -0.2607  0.2314
   65MOL    C4324491   5.980   4.146   5.072  0.0675 -0.9267 -1.0623
   65MOL    O4424492   5.911   4.186   4.952 -0.0908 -0.2527  0.2965
   65MOL    C4524493   5.974   4.173   4.830  0.1843  0.4442  0.3385
   65MOL    C4624494   6.086   4.089   4.802 -0.0437 -0.1986  0.2620
   65MOL    C4724495   6.140   4.075   4.673 -0.8249  0.3691  0.5074
   65MOL    C4824496   6.082   4.149   4.569  0.1685 -0.4047  0.2260
   65MOL    C4924497   5.966   4.224   4.596  0.0209 -0.0586 -0.3427
   65MOL    C5024498   5.911   4.245   4.729  0.2251  0.3957 -0.0749
   65MOL    H5124499   6.206   4.318   5.291  0.0676 -0.1702 -0.1356
   65MOL    H5224500   6.129   4.309   5.043 -2.5266  1.4729 -0.8134
   65MOL    H5324501   5.902   4.128   5.145 -0.7381 -2.7416 -2.3375
   65MOL    H5424502   6.034   4.052   5.063  0.4690 -0.4943 -3.4274
   65MOL    H5524503   6.146   4.043   4.878 -1.1722 -0.4999  0.9851
   65MOL    H5624504   6.231   4.018   4.671 -0.9262  0.1427  2.0341
   65MOL    H5724505   6.114   4.153   4.466 -1.2414 -0.6703 -0.2335
   65MOL    H5824506   5.913   4.280   4.520  0.6756  0.9227 -0.0750
   65MOL    C5924507   5.782   4.327   4.755  0.0154  0.3761 -0.4142
   65MOL    C6024508   5.770   4.442   4.845  0.2362 -0.0674  0.3373
   65MOL    O6124509   5.783   4.460   4.703 -0.4957  0.1408  0.9631
   65MOL    C6224510   5.882   4.515   4.926 -0.0647  0.3835  0.1646
   65MOL    O6324511   6.002   4.510   4.851  0.2684  0.2793  0.1323
   65MOL    C6424512   6.111   4.568   4.915  0.2428  0.9898  0.4940
   65MOL    C6524513   6.111   4.656   5.026  0.0078 -0.1698 -0.1344
   65MOL    C6624514   6.232   4.709   5.084  0.4554  0.0551  0.6980
   65MOL    C6724515   6.355   4.664   5.028 -0.2705 -0.9198  0.3328
   65MOL    C6824516   6.352   4.588   4.906  0.0607  0.2533  0.0595
   65MOL    C6924517   6.234   4.535   4.857 -0.0460 -0.5252 -0.0242
   65MOL    H7024518   5.696   4.264   4.734 -0.0735  0.5969 -0.7236
   65MOL    H7124519   5.671   4.476   4.875  0.7503  1.0827  0.7784
   65MOL    H7224520   5.893   4.479   5.028  1.0489  1.5067  0.4559
   65MOL    H7324521   5.853   4.619   4.938 -1.5032  0.1393 -1.0891
   65MOL    H7424522   6.017   4.678   5.075  0.2183  1.0679 -0.2678
   65MOL    H7524523   6.238   4.775   5.170  1.5495  1.8200 -0.7002
   65MOL    H7624524   6.449   4.708   5.057  0.0692  2.3424 -4.9541
   65MOL    H7724525   6.441   4.550   4.859 -0.5256 -1.6117  0.4118
   65MOL    C7824526   6.234   4.438   4.736 -0.9497  0.0098 -0.0568
   65MOL    C7924527   6.220   4.489   4.597 -0.0498 -0.3374 -0.6993
   65MOL    O8024528   6.350   4.459   4.652 -0.2818  0.2025 -0.0327
   65MOL    C8124529   6.207   4.638   4.565  0.2243  0.0678  0.3976
   65MOL    O8224530   6.281   4.674   4.447 -0.2824 -0.3451 -0.2467
   65MOL    C8324531   6.229   4.640   4.328 -0.1664  0.0625  0.0214
   65MOL    C8424532   6.098   4.579   4.317  0.1405  0.3055 -0.0237
   65MOL    C8524533   6.046   4.553   4.187 -0.5407 -0.0157  0.3708
   65MOL    C8624534   6.120   4.589   4.072 -0.1784  0.8579 -0.0157
   65MOL    C8724535   6.248   4.651   4.082 -0.3724  0.3701 -0.2529
   65MOL    C8824536   6.299   4.681   4.211  0.0469  0.3174 -0.2317
   65MOL    H8924537   6.204   4.335   4.754 -1.0806 -0.0690 -0.7345
   65MOL    H9024538   6.179   4.424   4.520 -0.4882 -0.8233 -0.0604
   65MOL    H9124539   6.259   4.688   4.647  0.7774  0.0127  0.0809
   65MOL    H9224540   6.107   4.681   4.569  0.1499  0.0548 -1.0631
   65MOL    H9324541   6.037   4.565   4.405 -1.0826  0.2432 -0.8807
   65MOL    H9424542   5.952   4.501   4.179  0.1376 -1.1093 -0.8066
   65MOL    H9524543   6.087   4.557   3.975  0.6012  0.1318 -0.0519
   65MOL    H9624544   6.304   4.677   3.993  2.2358 -3.7680  0.0772
   65MOL    C9724545   6.426   4.762   4.224  0.0680 -0.2066  0.1818
   65MOL    C9824546   6.556   4.706   4.284  0.2222 -0.0595  0.6910
   65MOL    O9924547   6.529   4.713   4.146 -0.0147 -0.0297 -0.0395
   65MOL   C10024548   6.570   4.567   4.338 -0.0418  0.1354  0.0160
   65MOL   O10124549   6.487   4.464   4.280  0.1548  0.1797  0.4719
   65MOL   C10224550   6.473   4.341   4.347  0.3665  0.4370  0.3178
   65MOL   C10324551   6.526   4.312   4.480  0.1522 -0.4081  0.7107
   65MOL   C10424552   6.507   4.187   4.539  0.1040 -0.1779  0.0280
   65MOL   C10524553   6.455   4.081   4.459  0.0653  0.2461 -0.0088
   65MOL   C10624554   6.406   4.108   4.332 -0.0090  0.0516 -0.6460
   65MOL   C10724555   6.421   4.236   4.267 -0.3472  0.0085  0.0149
   65MOL   H10824556   6.425   4.871   4.220  2.5533 -0.2007 -3.0772
   65MOL   H10924557   6.622   4.782   4.326  2.1825 -1.1007 -0.3999
   65MOL   H11024558   6.540   4.580   4.442  2.0630  1.2649  0.5176
   65MOL   H11124559   6.675   4.538   4.342  0.0676  0.6281  0.9008
   65MOL   H11224560   6.575   4.388   4.540  0.4522  0.4650 -0.6066
   65MOL   H11324561   6.540   4.160   4.638  1.5993 -0.1058 -0.4480
   65MOL   H11424562   6.435   3.981   4.495  0.2568  0.2980  0.2450
   65MOL   H11524563   6.371   4.025   4.272 -0.7050  0.9329 -1.4902
   65MOL   C11624564   6.380   4.260   4.124  1.0714  0.3460  0.3353
   65MOL   C11724565   6.478   4.300   4.020 -0.4691 -0.0760  0.3340
   65MOL   O11824566   6.438   4.166   4.032 -0.4302 -0.0868  0.4698
   65MOL   C11924567   6.633   4.331   4.041 -0.5737  0.0458 -0.2426
   65MOL   O12024568   6.693   4.335   3.908 -0.1711 -0.1977 -0.1463
   65MOL   C12124569   6.826   4.328   3.892 -0.3212 -0.6189 -0.4843
   65MOL   C12224570   6.926   4.329   3.996  0.0435  0.8324 -0.2838
   65MOL   C12324571   7.064   4.341   3.958 -0.4337 -0.1221 -0.9581
   65MOL   C12424572   7.105   4.351   3.829 -0.0313  0.6022  0.1079
   65MOL   C12524573   7.013   4.339   3.726 -0.9117  0.0723  0.1063
   65MOL   C12624574   6.873   4.336   3.758 -0.0798  0.2942 -1.0788
   65MOL   H12724575   6.279   4.299   4.114  1.0475 -0.3494 -2.7093
   65MOL   H12824576   6.441   4.350   3.931  0.0967  1.1451  0.7610
   65MOL   H12924577   6.682   4.261   4.109 -0.3191 -0.9392 -1.4098
   65MOL   H13024578   6.642   4.432   4.079 -0.9630  0.2749 -0.7464
   65MOL   H13124579   6.904   4.342   4.101 -0.9657  1.1412 -0.5259
   65MOL   H13224580   7.134   4.359   4.038 -0.2488 -1.2303 -0.8753
   65MOL   H13324581   7.207   4.364   3.797  0.0003 -0.9718 -0.4938
   65MOL   H13424582   7.046   4.335   3.623  1.8445  1.7591  0.8515
   65MOL   C13524583   6.779   4.325   3.646  0.0604  0.2418 -0.3032
   65MOL   C13624584   6.678   4.430   3.605  0.0705  0.1393 -0.4369
   65MOL   O13724585   6.808   4.418   3.535  0.1762  0.4788  0.6580
   65MOL   C13824586   6.653   4.551   3.688  0.1098 -0.1496 -0.3891
   65MOL   O13924587   6.625   4.663   3.605  0.3142 -0.3847 -0.5402
   65MOL   C14024588   6.617   4.790   3.660 -0.3942  0.1239 -0.4219
   65MOL   C14124589   6.672   4.822   3.784 -0.0661  0.1204  0.3740
   65MOL   C14224590   6.665   4.952   3.836 -0.1123 -0.2018 -0.4393
   65MOL   C14324591   6.589   5.049   3.770 -0.1359  0.7908  0.3072
   65MOL   C14424592   6.550   5.029   3.638  0.1737  0.2488  0.3379
   65MOL   C14524593   6.568   4.896   3.579  1.4754  0.5751 -0.2343
   65MOL   H14624594   6.747   4.223   3.624  1.7264 -0.6105  1.0965
   65MOL   H14724595   6.591   4.398   3.549 -0.8750  0.7145  0.6761
   65MOL   H14824596   6.749   4.567   3.737  0.5362  0.5940 -1.4415
   65MOL   H14924597   6.577   4.528   3.762  0.6928  0.3707  0.3757
   65MOL   H15024598   6.712   4.743   3.846 -0.5059  1.1261  1.9539
   65MOL   H15124599   6.714   4.981   3.928  0.9720  1.0992 -1.3895
   65MOL   H15224600   6.580   5.147   3.815 -0.2399  0.8492  0.1570
   65MOL   H15324601   6.506   5.110   3.581 -1.6761  0.4141  1.9695
   65MOL   C15424602   6.534   4.885   3.431 -0.0728 -0.1322 -0.7395
   65MOL   C15524603   6.403   4.826   3.397  0.0098  0.2884 -0.2209
   65MOL   O15624604   6.427   4.972   3.396  0.1394  0.2855  0.2735
   65MOL   C15724605   6.301   4.783   3.496  0.5509  0.3084  0.4165
   65MOL   O15824606   6.170   4.769   3.445  0.6512  0.5028 -0.0112
   65MOL   C15924607   6.078   4.718   3.536 -0.1834 -0.0063 -0.2805
   65MOL   C16024608   6.080   4.751   3.677  0.3183  0.5567 -0.0647
   65MOL   C16124609   5.973   4.714   3.760  0.6648 -0.7942 -0.0704
   65MOL   C16224610   5.868   4.638   3.705 -0.6880  0.4034  0.1882
   65MOL   C16324611   5.861   4.602   3.570  0.2638 -0.0084  0.4102
   65MOL   C16424612   5.965   4.638   3.484 -0.2002  0.1476  0.1987
   65MOL   H16524613   6.617   4.866   3.364 -1.6874 -1.0076 -2.5514
   65MOL   H16624614   6.395   4.791   3.294 -0.9326  0.7708 -0.3115
   65MOL   H16724615   6.294   4.857   3.576 -1.4453  0.0519  0.5066
   65MOL   H16824616   6.336   4.685   3.529 -0.2030 -0.4288 -0.9426
   65MOL   H16924617   6.156   4.816   3.718 -0.1850  1.0400  0.0972
   65MOL   H17024618   5.978   4.742   3.864 -1.3401 -0.0513 -0.1447
   65MOL   H17124619   5.783   4.615   3.768 -0.5658  0.6891  0.4566
   65MOL   H17224620   5.775   4.550   3.529  0.9829  0.8633 -2.3252
   65MOL   C17324621   5.962   4.604   3.335  0.2561 -0.2653 -0.6364
   65MOL   C17424622   6.058   4.514   3.250 -0.2237 -0.6703  0.2916
   65MOL   O17524623   5.939   4.466   3.314 -0.1059  0.2679  0.5941
   65MOL   C17624624   6.183   4.449   3.290 -0.0291 -0.5692  0.2885
   65MOL   O17724625   6.216   4.451   3.433  0.1970 -0.1627  0.1912
   65MOL   C17824626   6.290   4.345   3.484 -0.3761  0.3315 -0.6234
   65MOL   C17924627   6.381   4.271   3.405  0.1855  0.6649  0.2000
   65MOL   C18024628   6.458   4.164   3.455 -0.1209  0.1662 -0.2904
   65MOL   C18124629   6.451   4.134   3.588  0.3123  0.0263  0.0889
   65MOL   C18224630   6.355   4.201   3.671  0.2041  0.1328  0.0484
   65MOL   C18324631   6.281   4.307   3.621  0.8693  0.1656 -0.1649
   65MOL   H18424632   5.912   4.682   3.277 -1.0406 -0.9776 -0.4731
   65MOL   H18524633   6.048   4.526   3.142 -1.6627 -0.0718  0.4938
   65MOL   H18624634   6.266   4.497   3.237  0.2931 -0.2155  1.1022
   65MOL   H18724635   6.182   4.344   3.261 -1.4463 -0.8209  1.2330
   65MOL   H18824636   6.395   4.286   3.299 -1.5060 -1.5397 -0.3542
   65MOL   H18924637   6.531   4.109   3.397  1.9334 -1.3477  3.5472
   65MOL   H19024638   6.502   4.045   3.621 -0.5543 -0.5814 -0.1942
   65MOL   H19124639   6.351   4.178   3.777  0.4891 -0.0097  0.0283
   65MOL   C19224640   6.187   4.375   3.713 -0.2548 -0.3449  0.2083
   65MOL   C19324641   6.048   4.322   3.742 -0.2962  0.3506 -0.6904
   65MOL   O19424642   6.162   4.306   3.833  0.3981  0.5860  0.4074
   65MOL   C19524643   6.005   4.192   3.686  0.0831  0.3239  1.0614
   65MOL   O19624644   5.888   4.214   3.610  0.0148 -0.3962  0.5776
   65MOL   C19724645   5.821   4.108   3.560 -0.0587  0.0544  0.3338
   65MOL   C19824646   5.862   3.974   3.585  0.3254  0.0339 -0.4413
   65MOL   C19924647   5.790   3.863   3.533 -0.0446  0.1665  0.7073
   65MOL   C20024648   5.665   3.887   3.475  0.3343 -0.3794  0.4563
   65MOL   C20124649   5.622   4.019   3.450 -1.3367 -0.0511 -0.1793
   65MOL   C20224650   5.701   4.135   3.488  0.7464  0.5519  0.3656
   65MOL   H20324651   6.211   4.479   3.734 -1.9313  0.5976 -2.3570
   65MOL   H20424652   5.966   4.380   3.783 -0.0914  0.0619  0.1284
   65MOL   H20524653   5.966   4.131   3.767  2.8085 -0.9084  1.5091
   65MOL   H20624654   6.079   4.144   3.622 -0.4089  0.4870  0.3679
   65MOL   H20724655   5.955   3.951   3.634  0.4774  4.0812  1.4227
   65MOL   H20824656   5.831   3.764   3.545  1.6109  0.6385 -0.7206
   65MOL   H20924657   5.606   3.803   3.441  0.8868 -0.9828  0.9746
   65MOL   H21024658   5.526   4.034   3.402 -0.7239 -0.2845 -1.4840
   65MOL   C21124659   5.650   4.272   3.474 -0.2254 -0.2874 -0.2217
   65MOL   C21224660   5.653   4.337   3.338  0.2746 -0.0459 -0.3014
   65MOL   O21324661   5.532   4.280   3.394 -0.3660 -0.1994 -0.3845
   65MOL   C21424662   5.705   4.267   3.212 -0.5552 -0.4430 -0.5553
   65MOL   O21524663   5.671   4.339   3.094  0.4576 -1.2267  0.2739
   65MOL   C21624664   5.536   4.348   3.052  0.3021 -0.4361 -0.0128
   65MOL   C21724665   5.443   4.254   3.091 -0.3233 -0.2750  0.4292
   65MOL   C21824666   5.308   4.285   3.064  0.2203 -0.6208 -0.5997
   65MOL   C21924667   5.264   4.405   3.006  0.2096 -0.5275 -0.3941
   65MOL   C22024668   5.362   4.503   2.970  0.0539 -0.2753  0.1593
   65MOL   C22124669   5.497   4.474   2.994  0.0634 -0.3914  0.0760
   65MOL   H22224670   5.622   4.316   3.570  0.7627  0.5681 -0.3149
   65MOL   H22324671   5.658   4.445   3.342  0.5021 -0.0866  0.6085
   65MOL   H22424672   5.673   4.163   3.218  0.7011 -0.7596  1.0904
   65MOL   H22524673   5.812   4.275   3.227 -0.8648 -1.8329  3.0079
   65MOL   H22624674   5.476   4.171   3.151  2.4755 -1.5005 -2.6028
   65MOL   H22724675   5.239   4.206   3.093  1.5190 -0.5029  3.0531
   65MOL   H22824676   5.159   4.429   3.014  0.4065 -0.1581  1.3873
   65MOL   H22924677   5.334   4.597   2.926 -1.2046 -0.3329  0.8057
   65MOL   C23024678   5.597   4.576   2.961  0.5763  0.1645 -0.8139
   65MOL   C23124679   5.684   4.565   2.846  0.0767  0.1280  0.3027
   65MOL   O23224680   5.573   4.649   2.841 -0.1345  0.1763 -0.3533
   65MOL   C23324681   5.668   4.455   2.753  0.3887  0.1651  0.0354
   65MOL   O23424682   5.743   4.489   2.631 -0.1568  0.4870  0.1678
   65MOL   C23524683   5.753   4.392   2.539 -0.7832  0.8583 -0.4344
   65MOL   C23624684   5.715   4.259   2.557  0.1723 -0.3688 -0.6436
   65MOL   C23724685   5.730   4.164   2.456 -0.5501 -0.4055 -0.3138
   65MOL   C23824686   5.789   4.200   2.331 -0.2281  0.3245  0.2080
   65MOL   C23924687   5.822   4.336   2.307 -0.2501 -0.3296 -0.3596
   65MOL   C24024688   5.804   4.433   2.415 -0.3754  0.0889 -0.1785
   65MOL   H24124689   5.632   4.626   3.051  2.2344 -1.5961 -0.4385
   65MOL   H24224690   5.781   4.612   2.854 -0.0024  0.1914  0.8852
   65MOL   H24324691   5.563   4.445   2.723  0.0072 -0.7775  1.6169
   65MOL   H24424692   5.693   4.361   2.802  3.2158 -0.0183 -1.6406
   65MOL   H24524693   5.682   4.223   2.654 -1.9557  2.0927 -0.3848
   65MOL   H24624694   5.692   4.063   2.457  0.2114 -0.6947 -0.6085
   65MOL   H24724695   5.804   4.131   2.249  0.8720 -0.4549  1.0497
   65MOL   H24824696   5.873   4.359   2.215  1.4185  0.1339  0.6570
   65MOL   C24924697   5.838   4.574   2.387  0.3426 -0.1770  1.0649
   65MOL   C25024698   5.957   4.661   2.440  0.1447 -0.2411 -0.5027
   65MOL   O25124699   5.962   4.590   2.315 -0.4207 -0.6794 -1.0766
   65MOL   C25224700   6.043   4.621   2.556 -0.4184  0.1647 -0.5791
   65MOL   O25324701   6.160   4.697   2.555 -0.0105  0.2392  0.0349
   65MOL   C25424702   6.235   4.691   2.440 -0.3414  0.5691 -0.1994
   65MOL   C25524703   6.254   4.577   2.361 -0.1442 -0.3145 -0.5005
   65MOL   C25624704   6.329   4.589   2.244 -0.7285  0.1453  0.2485
   65MOL   C25724705   6.392   4.712   2.205 -0.4275 -0.0972 -0.4425
   65MOL   C25824706   6.388   4.825   2.295 -0.2327 -0.2285  0.2208
   65MOL   C25924707   6.305   4.815   2.409 -0.0324 -0.1529 -0.1142
   65MOL   H26024708   5.754   4.631   2.348  0.4289 -0.1437  0.9271
   65MOL   H26124709   5.934   4.766   2.426  0.5900 -0.4462 -2.9788
   65MOL   H26224710   6.073   4.517   2.570 -0.0663  0.4711  1.0623
   65MOL   H26324711   5.983   4.653   2.641  0.8609 -0.7080  0.6540
   65MOL   H26424712   6.224   4.480   2.399 -3.1874  0.0453 -1.8603
   65MOL   H26524713   6.333   4.495   2.190  0.2825  1.3569 -1.8538
   65MOL   H26624714   6.436   4.718   2.106  0.9832 -2.2099  0.0140
   65MOL   H26724715   6.434   4.918   2.265 -1.3241 -0.4142 -2.1176
   65MOL   C26824716   6.304   4.930   2.507  0.3926 -0.2645 -0.3850
   65MOL   C26924717   6.397   4.954   2.627  0.5526  0.1132 -0.9411
   65MOL   O27024718   6.416   5.013   2.493 -0.3455  0.1812  0.1441
   65MOL   C27124719   6.502   4.855   2.672 -0.1001  0.7989  0.3277
   65MOL   O27224720   6.464   4.779   2.790  0.7117 -0.2437  0.0275
   65MOL   C27324721   6.470   4.862   2.900 -0.5439  0.0525  0.3102
   65MOL   C27424722   6.596   4.919   2.942 -0.1728  0.2839  0.4188
   65MOL   C27524723   6.596   5.015   3.043  0.1785 -0.4540 -1.4024
   65MOL   C27624724   6.471   5.054   3.104 -0.0080  0.1644 -0.1315
   65MOL   C27724725   6.349   5.000   3.066 -0.8814  0.3133 -0.2034
   65MOL   C27824726   6.350   4.903   2.960  0.0570  0.4710  0.2023
   65MOL   H27924727   6.205   4.977   2.505 -0.0677 -1.2441 -0.9944
   65MOL   H28024728   6.376   5.036   2.696 -1.2089  0.5255 -1.9255
   65MOL   H28124729   6.594   4.909   2.697  0.6519 -0.7682  1.0268
   65MOL   H28224730   6.520   4.781   2.594  1.1859  2.2015 -0.7299
   65MOL   H28324731   6.687   4.885   2.895 -0.6172  0.8333 -0.8476
   65MOL   H28424732   6.689   5.062   3.069 -0.7704  0.8483 -0.2597
   65MOL   H28524733   6.464   5.132   3.178  0.9687  0.3672 -0.2453
   65MOL   H28624734   6.255   5.023   3.113 -1.1742 -1.3585  0.0738
   65MOL   C28724735   6.219   4.836   2.911  0.3139  0.6998  0.1497
   65MOL   C28824736   6.194   4.692   2.901 -0.8006 -0.2167 -0.0668
   65MOL   O28924737   6.141   4.766   3.013  0.0604  0.4103  0.4142
   65MOL   C29024738   6.284   4.577   2.936 -0.4996 -0.0994 -0.4912
   65MOL   O29124739   6.211   4.449   2.965 -0.1013  0.3312  0.7599
   65MOL   C29224740   6.292   4.331   2.982 -0.2105  0.2367 -0.3416
   65MOL   C29324741   6.432   4.331   2.981 -0.0578  0.3191  0.2385
   65MOL   C29424742   6.501   4.230   3.037 -0.4031  0.8163 -0.4321
   65MOL   C29524743   6.440   4.112   3.084  0.0668  0.9354 -0.2114
   65MOL   C29624744   6.301   4.101   3.072  0.4799 -0.0003 -0.1570
   65MOL   C29724745   6.227   4.214   3.017 -0.3195  0.0205 -0.3560
   65MOL   H29824746   6.156   4.900   2.849 -0.5507  0.4001  0.7135
   65MOL   H29924747   6.112   4.664   2.835 -0.4916  0.0313 -0.5534
   65MOL   H30024748   6.334   4.616   3.025 -1.2471  1.3353 -0.6895
   65MOL   H30124749   6.360   4.560   2.860  1.5111 -2.5267  1.9559
   65MOL   H30224750   6.485   4.418   2.945  0.4511  0.3352  1.0136
   65MOL   H30324751   6.609   4.240   3.039 -0.4275  1.6773 -2.2109
   65MOL   H30424752   6.510   4.032   3.104 -0.2564  0.4418 -1.0224
   65MOL   H30524753   6.259   4.002   3.078 -1.1163  0.7760  2.1624
   65MOL   C30624754   6.080   4.209   3.008  0.4450 -0.3778 -0.0295
   65MOL   C30724755   5.997   4.228   2.883 -0.3426 -0.3984  0.5630
   65MOL   O30824756   6.023   4.098   2.941  0.6748 -0.5285  0.3412
   65MOL   C30924757   6.037   4.235   2.732 -0.6270 -0.8856  0.3374
   65MOL   O31024758   6.176   4.240   2.700  0.2433 -0.0809  0.1561
   65MOL   C31124759   6.217   4.220   2.570 -0.5526  0.4638  0.1222
   65MOL   C31224760   6.131   4.225   2.457 -0.9754 -0.3189  0.3961
   65MOL   C31324761   6.174   4.232   2.323  0.0856 -0.6533 -0.7298
   65MOL   C31424762   6.311   4.214   2.301 -0.5888  1.0402  0.3434
   65MOL   C31524763   6.399   4.218   2.409 -0.1257  0.0936  0.0909
   65MOL   C31624764   6.355   4.206   2.539  1.2714 -0.3676  0.7271
   65MOL   H31724765   6.032   4.236   3.102  1.0402 -1.5100  0.6086
   65MOL   H31824766   5.898   4.266   2.903 -1.0398 -2.0508  0.3523
   65MOL   H31924767   5.982   4.314   2.681 -3.3144 -1.6956  1.8938
   65MOL   H32024768   5.995   4.145   2.687 -0.2521 -0.4673 -0.8655
   65MOL   H32124769   6.026   4.247   2.469 -1.0760 -2.0429  3.2897
   65MOL   H32224770   6.106   4.243   2.239 -1.0234 -3.9393 -0.3274
   65MOL   H32324771   6.347   4.206   2.200 -0.3213  3.4259  0.2255
   65MOL   H32424772   6.504   4.202   2.389 -0.3125 -2.2360  0.9025
   65MOL   C32524773   6.447   4.188   2.657  0.3044  0.4802 -0.4247
   65MOL   C32624774   6.453   4.060   2.737  0.0298 -0.7684  0.2932
   65MOL   O32724775   6.544   4.082   2.622 -0.3285 -0.0389 -0.8481
   65MOL   C32824776   6.348   3.948   2.722 -0.1761 -0.2993 -0.1190
   65MOL   O32924777   6.392   3.824   2.764  0.0596  0.2460 -0.6457
   65MOL   C33024778   6.307   3.712   2.734  0.0601 -0.4920 -0.3680
   65MOL   C33124779   6.171   3.718   2.682  0.0738  0.1356  1.2393
   65MOL   C33224780   6.097   3.603   2.660  0.3980  0.4278  0.3434
   65MOL   C33324781   6.153   3.478   2.680 -0.4578  0.4001 -0.1346
   65MOL   C33424782   6.286   3.470   2.736  0.7777  0.3564  0.2285
   65MOL   C33524783   6.352   3.588   2.778  0.6154 -0.0554  0.5060
   65MOL   H33624784   6.487   4.284   2.690  2.8512 -0.1205 -1.6014
   65MOL   H33724785   6.501   4.050   2.834  1.0232 -0.1116 -0.1262
   65MOL   H33824786   6.312   3.937   2.619  0.2775 -2.7663 -0.0435
   65MOL   H33924787   6.266   3.967   2.791 -1.5375  0.5854 -1.9129
   65MOL   H34024788   6.126   3.814   2.660 -0.5913 -0.3653  0.3816
   65MOL   H34124789   5.997   3.615   2.620 -0.5121 -2.5798  1.5574
   65MOL   H34224790   6.110   3.382   2.658 -0.3524  0.3481 -0.1092
   65MOL   H34324791   6.332   3.375   2.758  0.0949  0.0372  0.2910
   65MOL   C34424792   6.474   3.577   2.857  0.0652 -0.3677 -0.0650
   65MOL   C34524793   6.495   3.621   3.002  0.2181  0.6658  0.0183
   65MOL   O34624794   6.466   3.483   2.963 -0.0969  0.0061  0.6714
   65MOL   C34724795   6.393   3.699   3.078 -0.0908  0.6438 -0.5768
   65MOL   O34824796   6.420   3.667   3.213  0.8011  0.2994 -0.0746
   65MOL   C34924797   6.344   3.720   3.316 -0.8661  0.6195 -0.1079
   65MOL   C35024798   6.230   3.789   3.293  0.6870 -0.4993 -0.2917
   65MOL   C35124799   6.160   3.845   3.396 -0.1889  0.8920  0.4309
   65MOL   C35224800   6.214   3.841   3.525  0.5111  0.1453 -0.5554
   65MOL   C35324801   6.322   3.757   3.553 -0.2140 -0.5164 -0.2729
   65MOL   C35424802   6.392   3.701   3.447 -0.3535  0.2149  0.2016
   65MOL   H35524803   6.557   3.559   2.790 -0.3492 -1.0281 -0.4045
   65MOL   H35624804   6.596   3.642   3.035 -0.3797 -0.1638  2.4702
   65MOL   H35724805   6.299   3.654   3.045 -0.5013  2.1778 -1.5174
   65MOL   H35824806   6.391   3.804   3.049  2.4583  0.0742 -3.0514
   65MOL   H35924807   6.189   3.797   3.193 -0.2991 -1.0048  0.0628
   65MOL   H36024808   6.076   3.901   3.358  0.2498  0.4860 -1.1906
   65MOL   H36124809   6.170   3.901   3.604 -0.6455 -1.6499  0.1831
   65MOL   H36224810   6.362   3.738   3.651  0.5472  0.5892 -0.3522
   65MOL   C36324811   6.512   3.611   3.474  0.0490  0.0332 -0.2078
   65MOL   C36424812   6.658   3.662   3.473 -0.3293  0.2745 -0.4149
   65MOL   O36524813   6.581   3.634   3.595  0.2269 -0.5347  0.7163
   65MOL   C36624814   6.700   3.805   3.439  0.0733  0.4700 -0.1717
   65MOL   O36724815   6.826   3.829   3.502 -0.2663 -0.4908 -0.0231
   65MOL   C36824816   6.831   3.865   3.633 -0.4764  0.4239  0.1503
   65MOL   C36924817   6.958   3.916   3.676 -0.2342  0.0235  0.5691
   65MOL   C37024818   6.976   3.975   3.801 -0.1688 -0.0573  0.0922
   65MOL   C37124819   6.866   3.977   3.887  0.2417 -0.2013  0.0180
   65MOL   C37224820   6.739   3.936   3.842 -0.0722  0.1793  0.3835
   65MOL   C37324821   6.721   3.879   3.718 -0.4863 -0.5740  0.6433
   65MOL   H37424822   6.497   3.506   3.452  1.2054 -0.2052  0.1267
   65MOL   H37524823   6.737   3.591   3.450  0.4149  1.7086 -2.4679
   65MOL   H37624824   6.622   3.875   3.468  0.8571  0.8514  1.0447
   65MOL   H37724825   6.727   3.806   3.333  1.0973  0.5499  0.0887
   65MOL   H37824826   7.042   3.902   3.610 -1.8901 -0.4041 -1.4882
   65MOL   H37924827   7.071   4.012   3.837 -0.4320  0.6220  0.0973
   65MOL   H38024828   6.871   4.016   3.988  1.9797  1.9234 -0.8632
   65MOL   H38124829   6.649   3.951   3.899 -1.2501 -1.0844 -1.1125
   65MOL   H38224830   6.619   3.855   3.691 -0.6245  1.0213 -0.2980
   66MOL     C124831   7.893   7.870   2.682 -0.5544 -0.3803 -0.0016
   66MOL     C224832   7.940   7.916   2.820 -0.5653  0.1379 -0.4581
   66MOL     O324833   8.016   7.829   2.737  0.2663  0.4347 -0.0774
   66MOL     C424834   7.897   7.855   2.955  0.5112  0.9080  0.5577
   66MOL     O524835   7.905   7.969   3.044  0.7168  0.9294 -0.4534
   66MOL     C624836   8.038   8.001   3.085  0.0317  0.0665 -0.4835
   66MOL     C724837   8.150   7.914   3.091  0.1069  0.4535  0.8480
   66MOL     C824838   0.104   7.962   3.136 -0.6241 -0.0513 -0.1487
   66MOL     C924839   0.124   8.100   3.173  0.1009 -0.1751 -0.0167
   66MOL    C1024840   0.010   0.012   3.159  0.3346  0.2034 -0.6480
   66MOL    C1124841   8.056   8.142   3.110  0.2633  0.9113  0.0755
   66MOL    H1224842   7.885   7.949   2.608 -0.8996  0.4454  0.9033
   66MOL    H1324843   7.977   8.018   2.822  1.9490 -0.7778  1.1536
   66MOL    H1424844   7.942   7.758   2.978 -0.9069 -0.1448 -0.9674
   66MOL    H1524845   7.792   7.826   2.951  0.8013 -0.0998  0.1011
   66MOL    H1624846   8.143   7.809   3.068 -1.4544 -0.1766  3.9228
   66MOL    H1724847   0.195   7.904   3.122  1.1406  2.4324  0.7671
   66MOL    H1824848   0.222   8.140   3.192 -0.2873  0.3722  0.8460
   66MOL    H1924849   0.019   0.115   3.190  1.3604 -0.1361  0.1776
   66MOL    H2024850   7.812   7.797   2.676 -0.3343 -0.4235 -3.0431
   66MOL    C2124851   7.951   0.074   3.083 -0.3662 -1.1534  0.2889
   66MOL    C2224852   7.854   0.107   3.179  0.3617  0.4218  0.2863
   66MOL    O2324853   7.966   0.199   3.153  0.6964  0.1217  0.4303
   66MOL    C2424854   7.847   0.044   3.314  0.2050 -0.2274  0.2896
   66MOL    O2524855   7.759   8.106   3.305 -0.0139 -0.7873  0.4841
   66MOL    C2624856   7.629   8.126   3.335  0.3227  0.2698 -0.1456
   66MOL    C2724857   7.564   0.065   3.400  0.0611 -0.2079 -0.3610
   66MOL    C2824858   7.425   0.076   3.420 -0.0645  0.8531  1.0642
   66MOL    C2924859   7.339   8.154   3.361 -1.3956 -0.1481 -0.1823
   66MOL    C3024860   7.396   8.042   3.295 -0.4553  0.5178  0.2802
   66MOL    C3124861   7.541   8.030   3.282  0.5683  0.0165  0.3218
   66MOL    H3224862   7.934   0.080   2.976  0.9084  1.1876  0.1790
   66MOL    H3324863   7.755   0.145   3.154 -0.9042 -2.1650  1.1442
   66MOL    H3424864   7.828   0.124   3.386 -1.0762 -0.7286  0.5381
   66MOL    H3524865   7.941   8.164   3.338 -0.2591 -2.4713 -2.2717
   66MOL    H3624866   7.628   0.142   3.440 -0.3597  0.8657 -1.6847
   66MOL    H3724867   7.379   0.163   3.464 -0.1419  1.3959 -0.0517
   66MOL    H3824868   7.232   8.162   3.356 -1.4146 -1.2610 -1.8751
   66MOL    H3924869   7.332   7.968   3.250  0.8107 -1.8590  2.2752
   66MOL    C4024870   7.591   7.919   3.197 -0.1304 -0.1079 -0.2155
   66MOL    C4124871   7.662   7.806   3.251  0.1104 -0.1308 -0.1017
   66MOL    O4224872   7.521   7.795   3.215  0.1285 -0.1695 -1.0316
   66MOL    C4324873   7.678   7.790   3.403  0.0237  0.0057 -0.0150
   66MOL    O4424874   7.752   7.666   3.434 -0.5948 -0.4543 -0.8047
   66MOL    C4524875   7.884   7.674   3.465 -0.0719  0.4805 -0.5592
   66MOL    C4624876   7.972   7.759   3.395 -0.1095  0.1579  0.0639
   66MOL    C4724877   8.104   7.774   3.430 -0.1760 -0.2913 -0.3636
   66MOL    C4824878   8.163   7.701   3.537  0.5269 -0.0642  0.8161
   66MOL    C4924879   8.083   7.604   3.592 -0.4983  0.0294 -0.1294
   66MOL    C5024880   7.947   7.581   3.554 -0.1862 -0.1708 -0.2154
   66MOL    H5124881   7.608   7.947   3.094  2.1753  0.9342  0.4143
   66MOL    H5224882   7.729   7.750   3.187  1.4596 -0.2555  1.3842
   66MOL    H5324883   7.581   7.795   3.452 -0.2934  2.0459 -0.7931
   66MOL    H5424884   7.735   7.873   3.447 -0.9262  1.1839 -0.9903
   66MOL    H5524885   7.927   7.819   3.317  0.2495  0.6811  0.2586
   66MOL    H5624886   0.005   7.842   3.385 -0.6556 -0.4720 -1.4211
   66MOL    H5724887   0.098   7.715   3.562  0.8053  0.7697 -0.7301
   66MOL    H5824888   8.136   7.538   3.659 -0.2833 -0.6280 -0.9299
   66MOL    C5924889   7.865   7.473   3.601 -0.3791 -0.3768 -0.0544
   66MOL    C6024890   7.894   7.328   3.593  0.5346 -1.1412 -0.1570
   66MOL    O6124891   7.927   7.401   3.710 -0.4115  0.6615  0.2750
   66MOL    C6224892   8.011   7.264   3.524 -0.0593  0.0340 -0.2591
   66MOL    O6324893   8.055   7.152   3.597  0.3165  0.1221  0.4372
   66MOL    C6424894   0.008   7.158   3.659 -0.2379 -0.4013 -0.2548
   66MOL    C6524895   0.113   7.258   3.636  0.2076 -0.4209 -0.3964
   66MOL    C6624896   0.244   7.245   3.695  0.1876 -0.8442 -0.2346
   66MOL    C6724897   0.272   7.128   3.766 -0.5300 -0.2969  0.3339
   66MOL    C6824898   0.165   7.037   3.802  0.1233 -0.3907  0.4128
   66MOL    C6924899   0.037   7.054   3.749 -0.1839  0.6579  1.0987
   66MOL    H7024900   7.765   7.507   3.628  0.0342  0.3150  0.6087
   66MOL    H7124901   7.806   7.264   3.604  1.5834 -2.9297 -1.6593
   66MOL    H7224902   8.092   7.331   3.494 -1.9654  3.3247  1.6983
   66MOL    H7324903   7.966   7.216   3.437 -0.1732 -0.7705  0.2467
   66MOL    H7424904   0.102   7.347   3.576  1.1816 -0.2554 -0.3433
   66MOL    H7524905   0.316   7.325   3.696 -1.7128  0.9429 -2.3155
   66MOL    H7624906   0.364   7.112   3.819 -1.4257 -2.0393  1.4355
   66MOL    H7724907   0.185   6.946   3.856  2.8476  0.9687  1.7752
   66MOL    C7824908   8.092   6.962   3.789  0.2212 -0.1053  0.8373
   66MOL    C7924909   8.045   6.862   3.694 -0.1213  0.5770 -0.5100
   66MOL    O8024910   8.133   6.828   3.812 -0.2336 -0.6213 -0.7055
   66MOL    C8124911   8.091   6.842   3.555 -0.2408  0.0051 -0.4214
   66MOL    O8224912   8.075   6.716   3.494 -0.2867 -0.0593  0.3619
   66MOL    C8324913   8.155   6.612   3.539 -0.7256 -0.5670 -0.4304
   66MOL    C8424914   0.084   6.607   3.636 -0.1314 -0.0235 -0.3132
   66MOL    C8524915   0.154   6.487   3.668  0.6336  0.5710 -0.6383
   66MOL    C8624916   0.122   6.365   3.606 -0.5102 -0.0687 -0.1346
   66MOL    C8724917   0.027   6.367   3.503  0.6453  0.2180  0.2005
   66MOL    C8824918   8.125   6.487   3.471  0.3505  0.5839 -0.5113
   66MOL    H8924919   8.017   7.009   3.852 -2.8315 -0.5143 -2.4105
   66MOL    H9024920   7.950   6.813   3.714 -0.2286  1.3183  0.8119
   66MOL    H9124921   0.029   6.856   3.562  0.4025 -3.3209 -2.6751
   66MOL    H9224922   8.059   6.924   3.490 -2.5092 -0.6093 -0.1170
   66MOL    H9324923   0.121   6.702   3.672  0.1874  0.1258 -1.0385
   66MOL    H9424924   0.235   6.481   3.739  0.6541  0.7682 -0.6448
   66MOL    H9524925   0.183   6.280   3.633 -0.7221 -0.6444 -1.4159
   66MOL    H9624926   0.015   6.275   3.449 -1.5685  0.3678  0.4208
   66MOL    C9724927   8.018   6.485   3.367  0.3828  0.9320 -0.2710
   66MOL    C9824928   8.040   6.563   3.240  0.1006  0.1136 -0.3810
   66MOL    O9924929   8.066   6.423   3.246  0.4656  0.4016 -0.4098
   66MOL   C10024930   8.165   6.645   3.203 -0.2302 -0.1846 -0.0398
   66MOL   O10124931   8.167   6.783   3.240 -0.3236 -0.0803  0.1424
   66MOL   C10224932   8.116   6.878   3.155  0.3439 -0.2319 -0.7340
   66MOL   C10324933   8.024   6.845   3.046 -0.0595 -0.3262  1.0616
   66MOL   C10424934   7.972   6.949   2.971 -0.0556 -0.0940  0.7835
   66MOL   C10524935   8.007   7.081   2.984  0.5030 -1.0897  0.2974
   66MOL   C10624936   8.097   7.117   3.090 -0.3283 -0.9038  0.7197
   66MOL   C10724937   8.150   7.016   3.174  0.8569  0.0519 -0.1613
   66MOL   H10824938   7.922   6.446   3.402  0.9296 -0.1221  0.0768
   66MOL   H10924939   7.952   6.580   3.177 -0.9439 -0.8014  0.8060
   66MOL   H11024940   0.013   6.628   3.096  2.2914 -1.1328  0.4807
   66MOL   H11124941   0.079   6.600   3.257  1.3435  0.7076 -1.6653
   66MOL   H11224942   8.005   6.743   3.016  0.9562 -0.3856  0.6050
   66MOL   H11324943   7.905   6.927   2.888  0.8929  0.5532 -0.1667
   66MOL   H11424944   7.979   7.163   2.920 -0.7293 -1.9307 -0.2526
   66MOL   H11524945   8.130   7.219   3.094  1.2926 -1.3891 -0.0413
   66MOL   C11624946   0.096   7.056   3.270 -0.4793  0.0762 -0.1824
   66MOL   C11724947   0.239   7.052   3.239  0.2159 -0.0748  0.7674
   66MOL   O11824948   0.168   7.176   3.236  0.1413  0.1326  0.2900
   66MOL   C11924949   0.286   7.014   3.101  0.2831  0.2666 -0.4253
   66MOL   O12024950   0.334   6.880   3.108  0.5847  0.0752 -0.1945
   66MOL   C12124951   0.465   6.853   3.133  0.0741  0.4373  0.3224
   66MOL   C12224952   0.568   6.897   3.043 -0.4373  0.6047 -0.2887
   66MOL   C12324953   0.699   6.856   3.062 -0.1170 -0.4444  0.2763
   66MOL   C12424954   0.721   6.768   3.164  0.0333 -0.3164  0.0421
   66MOL   C12524955   0.619   6.721   3.250  0.4144 -0.8463  0.0566
   66MOL   C12624956   0.488   6.769   3.239  0.9969 -0.2821  0.0710
   66MOL   H12724957   0.070   7.054   3.376 -1.8750 -1.7294 -0.5472
   66MOL   H12824958   0.305   7.046   3.326 -1.2710  0.0003  1.9249
   66MOL   H12924959   0.362   7.082   3.062  1.7464 -1.3718 -0.5389
   66MOL   H13024960   0.200   7.020   3.036  0.4815  0.3495 -0.6803
   66MOL   H13124961   0.552   6.954   2.952  2.0931  0.0187 -1.1418
   66MOL   H13224962   0.778   6.882   2.992 -0.8674 -0.4177 -0.5570
   66MOL   H13324963   0.826   6.742   3.174  0.0498 -0.4790 -0.5615
   66MOL   H13424964   0.654   6.664   3.335  3.4087 -0.3067 -0.7452
   66MOL   C13524965   0.377   6.731   3.331  0.6592 -0.0535  0.5685
   66MOL   C13624966   0.355   6.578   3.371  0.0452  0.2063 -0.4546
   66MOL   O13724967   0.437   6.667   3.445  0.2182  0.3322  0.4539
   66MOL   C13824968   0.424   6.464   3.300 -0.4778 -0.3428 -0.4570
   66MOL   O13924969   0.436   6.477   3.158 -0.0425  0.4859 -0.8055
   66MOL   C14024970   0.330   6.466   3.076  0.2356 -0.2616 -0.4232
   66MOL   C14124971   0.217   6.388   3.112 -0.2333 -0.2937 -0.6016
   66MOL   C14224972   0.113   6.360   3.021  0.3092 -0.2300 -0.4091
   66MOL   C14324973   0.119   6.423   2.893  0.2106  0.1660 -0.2440
   66MOL   C14424974   0.230   6.498   2.851 -0.3491 -0.1196 -0.4401
   66MOL   C14524975   0.333   6.521   2.945  0.5662  0.1498  0.5693
   66MOL   H14624976   0.308   6.810   3.360  0.5626  0.4180 -0.9205
   66MOL   H14724977   0.265   6.555   3.426 -0.7655  1.1072 -1.3752
   66MOL   H14824978   0.370   6.372   3.322  1.8611 -1.3577  1.2672
   66MOL   H14924979   0.525   6.458   3.342 -0.6365  3.1270  0.5909
   66MOL   H15024980   0.207   6.341   3.209  0.1387 -2.0993 -1.4312
   66MOL   H15124981   0.025   6.304   3.050  0.5893 -1.3428 -1.7010
   66MOL   H15224982   0.039   6.398   2.824 -0.3918 -0.2190  0.5958
   66MOL   H15324983   0.228   6.539   2.751 -2.7262  0.7069 -0.0859
   66MOL   C15424984   0.449   6.606   2.909 -0.1899  0.0249 -0.1536
   66MOL   C15524985   0.593   6.562   2.890  0.1702 -0.4814 -1.0658
   66MOL   O15624986   0.504   6.563   2.778 -0.1449 -0.0005 -0.3082
   66MOL   C15724987   0.642   6.427   2.938 -0.1295  0.2098 -0.0802
   66MOL   O15824988   0.757   6.396   2.853 -0.1222  0.0865  0.1192
   66MOL   C15924989   0.864   6.482   2.853 -0.0887  0.5319 -0.0501
   66MOL   C16024990   0.899   6.557   2.964  0.5114 -0.0764 -0.3510
   66MOL   C16124991   1.008   6.644   2.957  0.7803  0.3188 -0.5655
   66MOL   C16224992   1.083   6.664   2.838  0.2143  0.4733 -0.0974
   66MOL   C16324993   1.052   6.579   2.736  0.0019  0.1537  0.5201
   66MOL   C16424994   0.945   6.486   2.735 -0.1740  0.1405 -0.4468
   66MOL   H16524995   0.424   6.712   2.910  1.2804  0.3800 -0.5895
   66MOL   H16624996   0.664   6.643   2.901 -0.4988 -0.0738  0.3216
   66MOL   H16724997   0.572   6.344   2.934  1.1052 -0.8570  0.0295
   66MOL   H16824998   0.676   6.426   3.041 -0.3182  2.7575  0.0304
   66MOL   H16924999   0.839   6.561   3.053  2.2500 -2.0087  0.9512
   66MOL   H17025000   1.029   6.708   3.042  2.0665 -3.4383  2.0649
   66MOL   H17125001   1.163   6.735   2.824  1.0417 -0.3865  0.2423
   66MOL   H17225002   1.116   6.592   2.650  2.4106 -1.6437  1.9697
   66MOL   C17325003   0.911   6.397   2.621 -0.1251 -0.1516 -0.1135
   66MOL   C17425004   0.852   6.464   2.496 -0.6824  0.4002 -0.1639
   66MOL   O17525005   0.982   6.413   2.507 -0.3281  0.0855  0.1531
   66MOL   C17625006   0.837   6.613   2.496  0.2535  0.4600  0.1493
   66MOL   O17725007   0.784   6.670   2.376  1.0052  0.2877  0.2693
   66MOL   C17825008   0.648   6.688   2.373 -0.4498  0.0052 -0.9527
   66MOL   C17925009   0.552   6.625   2.459  0.2681 -0.3440 -0.4153
   66MOL   C18025010   0.414   6.657   2.441 -0.0265 -0.3760  0.5347
   66MOL   C18125011   0.374   6.746   2.343  0.7293 -0.2242 -0.7743
   66MOL   C18225012   0.463   6.798   2.253  0.5233 -0.0957  0.5875
   66MOL   C18325013   0.600   6.762   2.259  0.8919 -0.3150 -0.7983
   66MOL   H18425014   0.877   6.297   2.647  2.4341 -1.3923 -1.3395
   66MOL   H18525015   0.808   6.408   2.413 -0.0687 -1.2217  0.5946
   66MOL   H18625016   0.936   6.656   2.512  1.3682 -0.5398 -3.6603
   66MOL   H18725017   0.795   6.642   2.592 -0.2053  0.6594 -0.1119
   66MOL   H18825018   0.571   6.569   2.550 -2.4510 -1.3166 -0.3822
   66MOL   H18925019   0.354   6.608   2.516  0.8779 -2.4240 -0.0477
   66MOL   H19025020   0.269   6.762   2.324  0.5000 -1.2268 -0.3720
   66MOL   H19125021   0.426   6.858   2.171  1.2662  0.1140  0.3956
   66MOL   C19225022   0.705   6.802   2.162 -0.5019  1.2283 -0.2143
   66MOL   C19325023   0.742   6.723   2.037  0.9322 -0.1383 -0.2765
   66MOL   O19425024   0.642   6.828   2.036 -0.2054 -0.4604  0.6449
   66MOL   C19525025   0.690   6.584   2.022 -0.5558 -0.4708  0.7041
   66MOL   O19625026   0.691   6.551   1.880 -0.1462 -0.2543 -0.1481
   66MOL   C19725027   0.808   6.526   1.809  0.6982  0.0921  0.7384
   66MOL   C19825028   0.930   6.518   1.878  0.1524  0.3870 -0.5307
   66MOL   C19925029   1.049   6.485   1.813  0.6826  0.4267  0.7991
   66MOL   C20025030   1.044   6.442   1.675  0.1388  0.6459  0.5190
   66MOL   C20125031   0.923   6.463   1.599  0.1549  0.0440 -0.2924
   66MOL   C20225032   0.810   6.498   1.670 -0.0149 -0.6685  0.1630
   66MOL   H20325033   0.772   6.882   2.194 -0.7991  0.5762  2.1363
   66MOL   H20425034   0.837   6.744   1.988  0.0423  0.7097 -1.6561
   66MOL   H20525035   0.590   6.586   2.066 -0.6651  0.5516  0.4118
   66MOL   H20625036   0.746   6.518   2.089 -0.3654 -0.6103  0.4060
   66MOL   H20725037   0.939   6.528   1.985  0.5801 -0.2556 -0.5030
   66MOL   H20825038   1.132   6.463   1.879  0.0936 -3.0996  0.4622
   66MOL   H20925039   1.139   6.409   1.636 -0.5141 -0.7418  0.0595
   66MOL   H21025040   0.911   6.425   1.498 -0.5781 -0.1288 -0.1400
   66MOL   C21125041   0.679   6.503   1.597 -0.5441  0.2168 -0.0680
   66MOL   C21225042   0.618   6.631   1.546 -0.7488 -0.1980  1.0051
   66MOL   O21325043   0.693   6.541   1.454 -0.2689  0.2404 -0.3229
   66MOL   C21425044   0.676   6.766   1.549  0.3913  0.4271 -0.0706
   66MOL   O21525045   0.573   6.852   1.505 -0.2626 -0.2293  0.0065
   66MOL   C21625046   0.468   6.870   1.590  0.2670  0.3187  0.2675
   66MOL   C21725047   0.459   6.816   1.729  0.1456 -0.2749  0.4780
   66MOL   C21825048   0.360   6.855   1.817 -0.4434 -0.0984 -0.1979
   66MOL   C21925049   0.260   6.944   1.766  0.1052  0.0867 -0.1231
   66MOL   C22025050   0.266   6.996   1.632  0.4857 -0.0756 -0.0150
   66MOL   C22125051   0.363   6.958   1.547  0.3155 -0.0863 -0.4450
   66MOL   H22225052   0.615   6.417   1.617  0.6698 -0.5842  0.4372
   66MOL   H22325053   0.510   6.625   1.539 -0.9858  2.5988  1.6540
   66MOL   H22425054   0.760   6.772   1.480 -0.0435  1.2255 -0.5461
   66MOL   H22525055   0.712   6.785   1.650  1.0748  3.4571 -0.8211
   66MOL   H22625056   0.542   6.762   1.770 -0.5672 -2.0633 -0.3760
   66MOL   H22725057   0.364   6.824   1.920 -0.7325  1.2081  0.2130
   66MOL   H22825058   0.174   6.973   1.825  0.7061 -0.5969  1.0958
   66MOL   H22925059   0.193   7.072   1.609 -0.3378 -1.7281 -3.2130
   66MOL   C23025060   0.383   7.024   1.416  0.4277 -0.1205  0.6291
   66MOL   C23125061   0.365   6.971   1.281  0.1275  0.0191 -0.5019
   66MOL   O23225062   0.253   7.024   1.345  0.4834 -0.3254  0.6208
   66MOL   C23325063   0.346   6.823   1.262  0.5146  0.1004  0.6445
   66MOL   O23425064   0.453   6.760   1.193  0.1415 -0.1018 -0.4310
   66MOL   C23525065   0.473   6.771   1.059 -0.1691  0.1910 -0.3631
   66MOL   C23625066   0.387   6.842   0.975  0.1332  0.6014 -0.1463
   66MOL   C23725067   0.421   6.856   0.838 -0.5783 -1.4451  0.2657
   66MOL   C23825068   0.535   6.807   0.786 -0.4507 -0.7585 -0.5983
   66MOL   C23925069   0.616   6.725   0.862 -0.1007  0.0942  0.3500
   66MOL   C24025070   0.589   6.711   1.001  0.3657 -0.0830  0.0480
   66MOL   H24125071   0.421   7.124   1.435  2.0496 -0.6727  0.3076
   66MOL   H24225072   0.392   7.028   1.192  0.5637  1.8219  0.7758
   66MOL   H24325073   0.252   6.793   1.216  0.9253  0.4740 -0.4420
   66MOL   H24425074   0.342   6.774   1.360  0.5172 -0.8627  0.1686
   66MOL   H24525075   0.294   6.886   1.008 -0.3330 -1.2655  1.1018
   66MOL   H24625076   0.356   6.915   0.775  3.2479  1.7377 -0.8773
   66MOL   H24725077   0.560   6.829   0.683 -2.2748 -1.1794 -1.1381
   66MOL   H24825078   0.703   6.677   0.818 -1.8213 -2.3490 -0.4873
   66MOL   C24925079   0.680   6.628   1.091 -0.5928 -0.0351  0.0129
   66MOL   C25025080   0.641   6.486   1.137  0.7305 -0.8507 -0.2114
   66MOL   O25125081   0.732   6.502   1.027 -0.1215 -0.1802  0.1844
   66MOL   C25225082   0.506   6.420   1.105  0.5289  0.2200  0.1589
   66MOL   O25325083   0.517   6.275   1.110 -0.7092  0.3579 -0.2453
   66MOL   C25425084   0.565   6.209   1.003 -0.2860  0.3847 -0.0115
   66MOL   C25525085   0.584   6.265   0.877  0.3130  0.3393 -0.8366
   66MOL   C25625086   0.640   6.184   0.774  0.2625 -0.2827  1.5703
   66MOL   C25725087   0.668   6.043   0.794 -0.4951 -0.1388  0.3673
   66MOL   C25825088   0.643   5.990   0.924 -0.3535 -0.0310  0.4048
   66MOL   C25925089   0.582   6.068   1.027 -0.1094  0.0017 -0.2222
   66MOL   H26025090   0.757   6.683   1.144  0.1114 -1.3308  0.3578
   66MOL   H26125091   0.689   6.451   1.228  0.6566 -1.6835 -0.4839
   66MOL   H26225092   0.459   6.462   1.017  0.7823  1.3453  0.5492
   66MOL   H26325093   0.443   6.449   1.189 -0.4805 -2.3449  0.3342
   66MOL   H26425094   0.544   6.364   0.861 -1.0925 -0.1646 -0.4355
   66MOL   H26525095   0.669   6.230   0.681 -2.6491 -1.6846 -0.1097
   66MOL   H26625096   0.703   5.972   0.720 -1.2627  2.5385 -2.7123
   66MOL   H26725097   0.663   5.885   0.940  0.2805 -0.4734 -2.8417
   66MOL   C26825098   0.555   6.009   1.164 -0.2284 -0.3142  0.2469
   66MOL   C26925099   0.439   5.924   1.206 -0.2229 -0.0197 -0.2362
   66MOL   O27025100   0.561   5.863   1.156  0.0555  0.0572 -0.5145
   66MOL   C27125101   0.315   5.916   1.120 -0.0797 -0.1994  0.1250
   66MOL   O27225102   0.225   5.812   1.167  0.3901  0.3199  0.5198
   66MOL   C27325103   0.248   5.686   1.121 -0.3566  0.7344 -0.0929
   66MOL   C27425104   0.359   5.644   1.035 -0.6768 -0.6544  1.0007
   66MOL   C27525105   0.376   5.510   1.001 -0.5565 -0.0862  0.3373
   66MOL   C27625106   0.293   5.410   1.047 -0.3852 -0.3593  0.0125
   66MOL   C27725107   0.179   5.449   1.128  0.2413  0.0276  0.5788
   66MOL   C27825108   0.162   5.584   1.163 -0.3473 -1.1838 -0.7004
   66MOL   H27925109   0.633   6.044   1.231 -0.1571  1.4941 -0.7480
   66MOL   H28025110   0.425   5.912   1.314 -2.2913  1.6465 -0.2737
   66MOL   H28125111   0.333   5.905   1.013  1.3742 -2.3869  0.5441
   66MOL   H28225112   0.267   6.010   1.145  0.2284  0.6060 -2.2356
   66MOL   H28325113   0.412   5.724   0.985  0.0931 -0.2509  2.4248
   66MOL   H28425114   0.452   5.472   0.934 -0.4694  0.4157  0.1502
   66MOL   H28525115   0.316   5.306   1.028 -0.3733 -0.3468 -0.0411
   66MOL   H28625116   0.110   5.370   1.155  0.2990 -0.2458 -0.0631
   66MOL   C28725117   0.046   5.626   1.250  0.0214  0.1183 -0.6870
   66MOL   C28825118   8.110   5.713   1.190  1.0181  0.0329  0.5119
   66MOL   O28925119   8.096   5.574   1.202 -0.2518 -0.1195  0.3765
   66MOL   C29025120   8.100   5.763   1.051  0.2885  0.4919 -0.8740
   66MOL   O29125121   7.986   5.853   1.021 -0.2895  0.6427  0.1307
   66MOL   C29225122   7.862   5.806   1.052  0.0216 -0.4944  0.1265
   66MOL   C29325123   7.821   5.671   1.044  0.4869  0.0502 -0.1193
   66MOL   C29425124   7.690   5.635   1.071  0.9136  0.8858  0.1757
   66MOL   C29525125   7.592   5.731   1.107 -1.7276 -0.2023 -0.0026
   66MOL   C29625126   7.629   5.868   1.123 -0.2028 -0.1036  0.8492
   66MOL   C29725127   7.762   5.899   1.093  0.3268  0.0096  0.1340
   66MOL   H29825128   0.049   5.610   1.358  0.6047  0.0045 -0.7178
   66MOL   H29925129   8.069   5.769   1.275  1.4069 -1.8471  1.9709
   66MOL   H30025130   8.097   5.674   0.989  0.7006  0.9351 -1.5356
   66MOL   H30125131   0.024   5.813   1.027  0.0701  1.1017 -0.4713
   66MOL   H30225132   7.885   5.593   1.008 -0.6486  0.0451 -2.2026
   66MOL   H30325133   7.661   5.535   1.039 -0.0332  1.2898 -0.2572
   66MOL   H30425134   7.487   5.708   1.119 -1.4479 -2.0062 -0.7751
   66MOL   H30525135   7.557   5.947   1.140 -1.1399 -1.0807  1.5488
   66MOL   C30625136   7.805   6.043   1.113 -0.3696 -0.0653  0.3202
   66MOL   C30725137   7.843   6.143   1.009  0.0028  0.2254 -0.2674
   66MOL   O30825138   7.710   6.133   1.060 -0.0477 -0.2767  0.1041
   66MOL   C30925139   7.850   6.119   0.852  0.0396  0.0519  0.4781
   66MOL   O31025140   7.885   6.248   0.796 -0.3173 -0.0386 -0.2481
   66MOL   C31125141   7.997   6.321   0.825 -0.3328  0.1628  0.1544
   66MOL   C31225142   8.106   6.269   0.891  0.5240  0.2943 -0.3086
   66MOL   C31325143   0.056   6.345   0.916 -0.4584  0.4292  0.2138
   66MOL   C31425144   0.066   6.470   0.856 -0.6435  0.0357  0.1151
   66MOL   C31525145   8.121   6.524   0.783 -0.9901  1.0864  0.3476
   66MOL   C31625146   8.007   6.446   0.764  0.7707 -0.2582 -0.4478
   66MOL   H31725147   7.822   6.070   1.217 -0.6723  2.1923 -0.1879
   66MOL   H31825148   7.902   6.222   1.055 -0.4252  0.6196 -0.3871
   66MOL   H31925149   7.754   6.086   0.813  0.4874 -0.8222  0.1053
   66MOL   H32025150   7.918   6.038   0.826 -0.7190 -0.8848  1.4052
   66MOL   H32125151   8.101   6.170   0.934  0.9422  0.1971 -0.4759
   66MOL   H32225152   0.138   6.298   0.969 -0.1168  0.0531 -0.6386
   66MOL   H32325153   0.152   6.530   0.879  0.5248 -1.3740 -0.5039
   66MOL   H32425154   8.128   6.619   0.732 -0.0522  0.1684 -1.3023
   66MOL   C32525155   7.901   6.494   0.670 -0.2963  0.0054  0.4323
   66MOL   C32625156   7.756   6.523   0.701  0.1689 -0.0054  0.2190
   66MOL   O32725157   7.851   6.625   0.714 -0.4356 -0.5472  0.2915
   66MOL   C32825158   7.690   6.482   0.831  0.9367  0.7049  0.0825
   66MOL   O32925159   7.566   6.568   0.849 -0.0622 -0.1307 -0.5072
   66MOL   C33025160   7.465   6.514   0.930 -0.7877 -0.3159 -0.0850
   66MOL   C33125161   7.497   6.435   1.045  0.4699  0.1139 -0.2871
   66MOL   C33225162   7.398   6.392   1.135 -0.3451 -0.6721  0.3868
   66MOL   C33325163   7.270   6.442   1.119  0.1857  0.2440  0.2583
   66MOL   C33425164   7.234   6.526   1.015  0.3412 -0.1057  0.1568
   66MOL   C33525165   7.334   6.565   0.914 -0.1374  0.3679 -0.0715
   66MOL   H33625166   7.928   6.490   0.564 -3.0194  1.7623 -0.3972
   66MOL   H33725167   7.696   6.549   0.615  2.0256  1.4312 -0.6935
   66MOL   H33825168   7.756   6.493   0.917 -1.1325 -1.2825  1.9889
   66MOL   H33925169   7.644   6.384   0.819 -0.9197  1.3749  1.4119
   66MOL   H34025170   7.594   6.390   1.054  0.4064 -0.8086 -3.5151
   66MOL   H34125171   7.417   6.331   1.222 -0.1929 -1.1362  0.0276
   66MOL   H34225172   7.194   6.421   1.193 -2.1111  1.5005 -1.6422
   66MOL   H34325173   7.135   6.569   1.013 -0.4634 -1.8954 -0.2739
   66MOL   C34425174   7.285   6.647   0.795  0.4094 -0.9672 -0.0638
   66MOL   C34525175   7.271   6.593   0.660  0.6358  0.2078  0.4818
   66MOL   O34625176   7.157   6.601   0.749 -0.7154  0.0286 -0.0639
   66MOL   C34725177   7.305   6.450   0.637  0.3093  0.3626 -1.2781
   66MOL   O34825178   7.277   6.411   0.505 -0.4671 -0.0835  0.2213
   66MOL   C34925179   7.384   6.405   0.418 -0.5464 -0.9077  0.1868
   66MOL   C35025180   7.479   6.509   0.406  0.7209  0.0419  0.3786
   66MOL   C35125181   7.596   6.495   0.334 -0.5615 -0.2524  0.8891
   66MOL   C35225182   7.615   6.387   0.253  0.2814  0.1289 -0.2339
   66MOL   C35325183   7.517   6.282   0.257  0.5012 -0.0461  0.1247
   66MOL   C35425184   7.402   6.292   0.337 -0.4472 -0.5499 -0.6919
   66MOL   H35525185   7.297   6.755   0.806  0.1144 -1.0274  0.9110
   66MOL   H35625186   7.281   6.668   0.582 -1.9780  1.3679  1.2316
   66MOL   H35725187   7.242   6.393   0.705  0.8189  0.3875 -0.7830
   66MOL   H35825188   7.408   6.428   0.667  0.2979  2.5102  0.4222
   66MOL   H35925189   7.462   6.598   0.465  1.5203  0.7385 -0.4318
   66MOL   H36025190   7.662   6.579   0.348 -0.9665 -0.1044  2.0637
   66MOL   H36125191   7.709   6.382   0.200  0.5070  2.3087 -0.1077
   66MOL   H36225192   7.537   6.204   0.184 -1.6324  1.9182 -2.6258
   66MOL   C36325193   7.306   6.168   0.348 -0.3579  0.0854  0.2141
   66MOL   C36425194   7.164   6.162   0.295  0.0091  0.8655  0.3390
   66MOL   O36525195   7.273   6.123   0.214  0.3473  0.3955  0.2592
   66MOL   C36625196   7.086   6.275   0.240  0.2325  0.2378 -0.7145
   66MOL   O36725197   6.952   6.236   0.239  0.2584  0.1494 -0.4323
   66MOL   C36825198   6.901   6.185   0.121  1.1662 -0.2269 -0.1246
   66MOL   C36925199   6.762   6.172   0.120  0.3857  0.2182 -0.3285
   66MOL   C37025200   6.694   6.120   0.005 -0.1991 -0.6564  0.1794
   66MOL   C37125201   6.771   6.091   8.063  0.8687 -0.9091  0.2111
   66MOL   C37225202   6.909   6.093   8.068  0.1225 -0.3466  0.5779
   66MOL   C37325203   6.976   6.142   0.011  0.2938  0.6465  0.6659
   66MOL   H37425204   7.348   6.087   0.408 -2.5041  0.1859  1.9115
   66MOL   H37525205   7.109   6.078   0.338 -0.9662  1.1221 -0.3760
   66MOL   H37625206   7.129   6.325   0.153 -1.1937  1.1631 -0.9015
   66MOL   H37725207   7.092   6.354   0.316 -1.5904  0.9183 -1.2424
   66MOL   H37825208   6.698   6.196   0.203  1.7724  0.3470  0.7245
   66MOL   H37925209   6.586   6.122   0.001 -0.1648  0.1603 -0.4470
   66MOL   H38025210   6.721   6.065   7.972 -0.6093  2.9959 -0.2126
   66MOL   H38125211   6.959   6.064   7.976 -0.2180 -0.5178  0.4473
   66MOL   H38225212   7.083   6.138   0.001 -0.0508 -1.2465 -3.3433
   67MOL     C125213   5.615   4.815   6.427 -0.4991 -0.1855  0.1493
   67MOL     C225214   5.708   4.731   6.345  0.4843  0.0098 -0.1540
   67MOL     O325215   5.725   4.741   6.483  0.2522  0.3114 -0.3022
   67MOL     C425216   5.831   4.780   6.270 -0.1344 -0.6244 -0.5362
   67MOL     O525217   5.860   4.911   6.308  0.2626 -0.2039  0.5956
   67MOL     C625218   5.974   4.966   6.253  0.2284 -0.6949 -0.1345
   67MOL     C725219   6.052   4.902   6.154  0.3869 -0.5133  0.4730
   67MOL     C825220   6.161   4.966   6.097  0.1122  0.3253 -0.0125
   67MOL     C925221   6.198   5.097   6.138  0.2362 -0.0796 -0.2977
   67MOL    C1025222   6.122   5.170   6.232  0.4610 -0.2161 -0.2291
   67MOL    C1125223   6.002   5.105   6.287 -0.5420  0.3112 -0.5852
   67MOL    H1225224   5.523   4.770   6.463 -1.2903  2.4480  1.6142
   67MOL    H1325225   5.673   4.636   6.306  2.2947 -1.2311  1.1623
   67MOL    H1425226   5.811   4.761   6.164  0.8736 -0.6560 -0.7286
   67MOL    H1525227   5.907   4.711   6.307 -1.7133 -1.9970  0.1893
   67MOL    H1625228   6.041   4.796   6.137 -0.6893 -0.2817 -0.3301
   67MOL    H1725229   6.223   4.909   6.030 -0.5594  3.0356 -3.0430
   67MOL    H1825230   6.286   5.140   6.094 -0.2832 -0.4445 -1.7340
   67MOL    H1925231   6.145   5.273   6.254 -0.1699 -0.2830  0.7780
   67MOL    H2025232   5.623   4.924   6.432  0.8207 -0.2141 -1.0343
   67MOL    C2125233   5.914   5.185   6.380  0.5535  0.1486 -0.1684
   67MOL    C2225234   5.890   5.152   6.526 -0.3277  1.2672  0.0778
   67MOL    O2325235   5.986   5.247   6.483 -0.6778  0.2670 -0.5201
   67MOL    C2425236   5.943   5.029   6.588  0.2455 -0.1060  0.0298
   67MOL    O2525237   5.864   5.026   6.710 -0.4226  0.4343 -0.2905
   67MOL    C2625238   5.906   4.948   6.823 -0.5685 -0.1671 -0.3861
   67MOL    C2725239   6.036   4.894   6.833 -0.1603 -0.0688 -0.3471
   67MOL    C2825240   6.071   4.810   6.937  0.0197 -0.2698  0.0444
   67MOL    C2925241   5.983   4.795   7.047  0.9242  0.0444  0.6768
   67MOL    C3025242   5.859   4.864   7.048 -0.5404 -0.8193 -1.0339
   67MOL    C3125243   5.819   4.938   6.935 -0.7249 -0.8575 -0.2332
   67MOL    H3225244   5.848   5.256   6.330  0.6405  0.8018  0.6276
   67MOL    H3325245   5.793   5.185   6.563 -0.0201  1.4833  0.6934
   67MOL    H3425246   6.051   5.036   6.598  0.1733  1.2916 -0.0669
   67MOL    H3525247   5.911   4.941   6.531 -2.1286  1.3097 -0.8908
   67MOL    H3625248   6.104   4.912   6.751  1.1270  0.9018  0.9022
   67MOL    H3725249   6.166   4.757   6.937 -0.3030 -0.8709  1.5105
   67MOL    H3825250   6.014   4.744   7.137 -0.9886  0.9818  1.9088
   67MOL    H3925251   5.783   4.866   7.125  0.0710 -2.4248 -0.3733
   67MOL    C4025252   5.688   5.000   6.920  0.7464  0.0172  0.8492
   67MOL    C4125253   5.549   4.937   6.915  0.9561  0.1694  0.3132
   67MOL    O4225254   5.610   4.995   7.032 -0.6995 -0.0782 -0.1619
   67MOL    C4325255   5.527   4.785   6.915 -0.2800 -0.8684  0.6866
   67MOL    O4425256   5.406   4.754   6.986 -0.3804  0.4181 -0.1410
   67MOL    C4525257   5.384   4.627   7.036  0.0508 -0.0871  0.6968
   67MOL    C4625258   5.436   4.514   6.966 -0.2885 -0.1326  0.2420
   67MOL    C4725259   5.410   4.382   7.012  0.0517 -0.0051  0.4126
   67MOL    C4825260   5.338   4.368   7.131 -0.4245  0.3935  0.2918
   67MOL    C4925261   5.278   4.479   7.195  0.2202 -0.4413 -0.0333
   67MOL    C5025262   5.309   4.606   7.154 -1.0792  0.1030  0.5124
   67MOL    H5125263   5.706   5.105   6.898 -0.4064  0.1600  0.5527
   67MOL    H5225264   5.472   4.996   6.865 -0.7070 -0.9226  1.5483
   67MOL    H5325265   5.609   4.735   6.966 -1.9100 -0.9990  3.2491
   67MOL    H5425266   5.524   4.751   6.811 -0.6020  0.0988  0.3804
   67MOL    H5525267   5.498   4.517   6.878 -0.9472  1.7404 -0.1886
   67MOL    H5625268   5.454   4.295   6.966 -0.7590 -1.1642  1.8040
   67MOL    H5725269   5.316   4.266   7.160  0.7698 -0.7035 -2.5019
   67MOL    H5825270   5.210   4.460   7.276  0.5643 -1.7501 -0.0315
   67MOL    C5925271   5.246   4.720   7.234 -0.4732  0.1019  0.0630
   67MOL    C6025272   5.127   4.787   7.180 -0.5423  0.5817  0.4978
   67MOL    O6125273   5.110   4.691   7.278 -0.1861  0.7396  0.0010
   67MOL    C6225274   5.056   4.763   7.047  0.0199 -0.6219  0.0978
   67MOL    O6325275   4.933   4.842   7.043  0.2239 -0.1828 -0.1070
   67MOL    C6425276   4.855   4.827   6.933 -0.7132  0.5338  0.2971
   67MOL    C6525277   4.904   4.806   6.800 -0.1341 -0.9074  0.0504
   67MOL    C6625278   4.813   4.820   6.686  0.2479  0.4655 -0.0557
   67MOL    C6725279   4.676   4.838   6.707  0.5437 -0.2922 -0.4651
   67MOL    C6825280   4.627   4.833   6.842 -0.2364  0.0869 -0.2997
   67MOL    C6925281   4.714   4.834   6.955 -0.1045 -0.4181  1.1609
   67MOL    H7025282   5.308   4.763   7.313 -0.8039  0.8473 -0.0895
   67MOL    H7125283   5.107   4.884   7.224  1.8580  0.9896  0.7842
   67MOL    H7225284   5.048   4.654   7.036  0.6263 -0.5981 -0.5738
   67MOL    H7325285   5.114   4.794   6.960 -0.6608  2.9879  0.8629
   67MOL    H7425286   5.009   4.809   6.775 -0.3815  3.1824 -0.8894
   67MOL    H7525287   4.840   4.849   6.586  0.8101  0.3655  0.0619
   67MOL    H7625288   4.608   4.854   6.625 -0.6460  3.2699  1.1049
   67MOL    H7725289   4.520   4.835   6.862 -0.4103 -0.6465 -1.1750
   67MOL    C7825290   4.653   4.824   7.084 -0.0159  0.3399 -0.3215
   67MOL    C7925291   4.638   4.931   7.191  0.2046  0.3817  0.7764
   67MOL    O8025292   4.539   4.916   7.090 -0.1983 -0.3208 -0.2641
   67MOL    C8125293   4.720   5.064   7.192  0.1218  0.1718 -0.1902
   67MOL    O8225294   4.623   5.176   7.195 -0.1453  0.2148  0.3191
   67MOL    C8325295   4.512   5.184   7.280  0.3269  0.5858  0.9460
   67MOL    C8425296   4.521   5.132   7.413 -0.1166 -0.1676  0.2381
   67MOL    C8525297   4.419   5.157   7.505  0.2734 -0.8714 -0.2483
   67MOL    C8625298   4.301   5.222   7.465  0.7227 -0.6409 -0.8797
   67MOL    C8725299   4.293   5.276   7.331 -0.3765  0.4407  0.6718
   67MOL    C8825300   4.400   5.266   7.242  0.0264  0.5264 -0.4866
   67MOL    H8925301   4.635   4.720   7.107  0.4519  0.0085 -1.3813
   67MOL    H9025302   4.610   4.896   7.290  1.0972 -2.5837  0.0171
   67MOL    H9125303   4.772   5.071   7.097 -0.2321 -2.9916 -0.6520
   67MOL    H9225304   4.789   5.073   7.276  1.0574 -1.9148 -0.7198
   67MOL    H9325305   4.612   5.083   7.444  0.2267  0.2076 -0.1799
   67MOL    H9425306   4.421   5.128   7.608 -2.1457 -1.0030 -0.1970
   67MOL    H9525307   4.218   5.231   7.534  1.0676 -0.4203 -0.4919
   67MOL    H9625308   4.204   5.327   7.299 -1.1110 -1.3306 -0.1987
   67MOL    C9725309   4.401   5.349   7.112  0.0380  0.1321  0.0701
   67MOL    C9825310   4.378   5.291   6.973 -0.1235  0.4481 -0.6361
   67MOL    O9925311   4.272   5.343   7.051 -0.0810 -0.0391 -0.5801
   67MOL   C10025312   4.375   5.141   6.956  0.3784 -0.0992  0.0974
   67MOL   O10125313   4.329   5.108   6.828 -0.0316  0.4089  0.5665
   67MOL   C10225314   4.200   5.101   6.799  0.5745 -0.0044  0.1689
   67MOL   C10325315   4.136   5.214   6.762  0.5599  0.0377  0.3998
   67MOL   C10425316   3.999   5.219   6.741  1.0703  1.2405 -0.0050
   67MOL   C10525317   3.922   5.101   6.771  0.4047 -0.1000 -0.1897
   67MOL   C10625318   3.987   4.983   6.812  0.4133  0.1271  0.0460
   67MOL   C10725319   4.122   4.985   6.830  0.3388 -0.5637  0.2735
   67MOL   H10825320   4.446   5.448   7.117 -0.2201  0.2175  0.8751
   67MOL   H10925321   4.401   5.346   6.882 -1.1698 -0.5852 -1.5396
   67MOL   H11025322   4.318   5.088   7.032  0.4821 -0.9301 -0.3962
   67MOL   H11125323   4.481   5.116   6.969  0.8894  1.8063 -0.2138
   67MOL   H11225324   4.188   5.301   6.726 -0.7434  0.4377 -0.5223
   67MOL   H11325325   3.955   5.308   6.698  0.7502  1.5359  0.9131
   67MOL   H11425326   3.821   5.093   6.735  0.0965  2.1466  0.0774
   67MOL   H11525327   3.929   4.894   6.829  1.0260 -0.2752  0.0199
   67MOL   C11625328   4.190   4.873   6.892 -0.1136 -0.0675 -0.5968
   67MOL   C11725329   4.204   4.844   7.039 -0.1523 -0.5525  0.2443
   67MOL   O11825330   4.104   4.775   6.952 -0.0844  0.0838 -0.3436
   67MOL   C11925331   4.139   4.911   7.157  0.4141  0.3228  0.8548
   67MOL   O12025332   4.084   4.816   7.246 -0.2435  0.2015 -0.1961
   67MOL   C12125333   4.161   4.750   7.337  0.2651 -0.0752 -0.1322
   67MOL   C12225334   4.301   4.772   7.352 -0.5014  0.1820 -0.0542
   67MOL   C12325335   4.378   4.700   7.451 -0.0209 -0.0835 -0.0235
   67MOL   C12425336   4.312   4.607   7.532 -0.6042 -0.2949  0.2088
   67MOL   C12525337   4.179   4.576   7.514  0.6815 -0.3438 -0.1379
   67MOL   C12625338   4.102   4.649   7.423  1.1816  0.3689 -0.4703
   67MOL   H12725339   4.273   4.844   6.828 -0.9116 -0.9969 -1.2259
   67MOL   H12825340   4.290   4.783   7.067 -0.3602 -0.1936  1.7237
   67MOL   H12925341   4.056   4.972   7.120  2.7386  2.3848 -1.0694
   67MOL   H13025342   4.214   4.979   7.196 -0.0252  0.9240  0.6618
   67MOL   H13125343   4.342   4.839   7.278 -1.0452  2.2479  1.4651
   67MOL   H13225344   4.481   4.726   7.472 -0.4669  1.4771  0.3533
   67MOL   H13325345   4.367   4.552   7.607 -0.3080  1.1703  1.0909
   67MOL   H13425346   4.133   4.498   7.572 -4.2042  2.9186  0.7086
   67MOL   C13525347   3.950   4.627   7.419  0.6161  0.1882  0.5559
   67MOL   C13625348   3.881   4.552   7.304  0.3465 -0.1350  0.3203
   67MOL   O13725349   3.924   4.490   7.423  0.3351  0.2433  0.4828
   67MOL   C13825350   3.957   4.509   7.181 -0.0554 -0.0242 -0.7298
   67MOL   O13925351   3.883   4.396   7.140 -0.0490 -0.0303  0.1706
   67MOL   C14025352   3.915   4.346   7.017 -0.3156 -0.0043 -0.2450
   67MOL   C14125353   3.990   4.415   6.919  0.0598 -0.3028 -0.0273
   67MOL   C14225354   4.011   4.361   6.792 -0.6249  0.2537 -0.1242
   67MOL   C14325355   3.961   4.240   6.759 -0.1807  0.0556 -0.0499
   67MOL   C14425356   3.886   4.164   6.851 -0.2821 -0.1220  0.6283
   67MOL   C14525357   3.864   4.219   6.978 -0.4136 -0.1140 -0.9566
   67MOL   H14625358   3.893   4.682   7.493  1.4746  2.3796 -0.3696
   67MOL   H14725359   3.774   4.570   7.291  0.6668  1.0954 -0.6477
   67MOL   H14825360   4.056   4.471   7.210 -0.1633 -1.3832 -2.0807
   67MOL   H14925361   3.949   4.593   7.112  0.0740 -0.2529 -1.0262
   67MOL   H15025362   4.039   4.510   6.930 -0.6734  0.3587 -2.1557
   67MOL   H15125363   4.081   4.405   6.722  0.4318 -1.0012  0.1267
   67MOL   H15225364   3.981   4.197   6.662 -1.2072 -3.0937  1.0737
   67MOL   H15325365   3.849   4.065   6.827 -0.2861 -0.3666  1.5912
   67MOL   C15425366   3.793   4.137   7.081 -0.4743  0.2600 -0.2882
   67MOL   C15525367   3.651   4.157   7.114  0.4771 -0.1838 -0.3111
   67MOL   O15625368   3.691   4.052   7.029 -0.3113  0.2355 -0.1604
   67MOL   C15725369   3.575   4.275   7.048  0.1308 -0.9279 -0.1712
   67MOL   O15825370   3.440   4.247   7.042 -0.1023  0.1660  0.5122
   67MOL   C15925371   3.354   4.255   7.152  0.1725  0.4030  0.3755
   67MOL   C16025372   3.390   4.305   7.277 -0.6350  0.0240 -0.2556
   67MOL   C16125373   3.292   4.311   7.381  0.7792 -0.4518  0.0200
   67MOL   C16225374   3.165   4.256   7.358  0.0849 -0.0399  0.0797
   67MOL   C16325375   3.131   4.204   7.236  0.2586  0.1521 -0.1702
   67MOL   C16425376   3.218   4.209   7.129  0.3168 -0.9356 -0.4701
   67MOL   H16525377   3.859   4.092   7.155 -2.2726  0.8419  1.7169
   67MOL   H16625378   3.622   4.137   7.217 -0.7473  0.3431 -0.5395
   67MOL   H16725379   3.611   4.278   6.945  1.2214  2.5051  0.2310
   67MOL   H16825380   3.599   4.367   7.102  1.6287 -0.7714 -1.0772
   67MOL   H16925381   3.489   4.341   7.303 -0.9774 -0.1492  1.3595
   67MOL   H17025382   3.318   4.342   7.481 -2.6814  0.9958  0.5227
   67MOL   H17125383   3.102   4.240   7.445 -0.1775  0.8068  0.0405
   67MOL   H17225384   3.038   4.149   7.227  1.3184 -1.9058  1.0655
   67MOL   C17325385   3.183   4.163   6.997 -0.2494  0.4837  0.7496
   67MOL   C17425386   3.228   4.039   6.929  0.0834 -0.2081 -0.0416
   67MOL   O17525387   3.104   4.039   7.002  0.5036 -0.2299  0.9668
   67MOL   C17625388   3.344   3.965   6.981 -0.3879 -0.1015 -0.2751
   67MOL   O17725389   3.316   3.832   6.936 -0.3344 -0.2205 -0.1751
   67MOL   C17825390   3.386   3.732   7.001  0.1693 -0.5878  0.0457
   67MOL   C17925391   3.514   3.755   7.053  0.3779  0.3347 -0.0288
   67MOL   C18025392   3.588   3.648   7.113 -0.5219 -0.2805  0.2913
   67MOL   C18125393   3.529   3.524   7.119 -0.2372  0.1163  0.1269
   67MOL   C18225394   3.409   3.498   7.058  0.1229 -0.0198  0.6677
   67MOL   C18325395   3.335   3.602   7.002  0.6859  0.0277 -0.3251
   67MOL   H18425396   3.135   4.236   6.933 -0.9895 -0.2289  0.4747
   67MOL   H18525397   3.217   4.025   6.822 -2.0981 -0.9019  0.2399
   67MOL   H18625398   3.341   3.963   7.090  0.3142 -1.3119 -0.2688
   67MOL   H18725399   3.439   4.003   6.942  0.0541 -1.1130 -0.2102
   67MOL   H18825400   3.549   3.857   7.048 -0.6050  0.7905  1.8832
   67MOL   H18925401   3.687   3.666   7.151  0.1229 -0.6746 -1.1656
   67MOL   H19025402   3.589   3.441   7.152 -0.9172 -0.5512 -0.3008
   67MOL   H19125403   3.368   3.398   7.068 -2.4660  1.1128  1.8775
   67MOL   C19225404   3.201   3.579   6.935 -0.2651  0.1648 -0.9561
   67MOL   C19325405   3.197   3.550   6.785  0.2966 -0.7844 -0.2156
   67MOL   O19425406   3.171   3.453   6.886 -0.0282 -0.5053 -0.2013
   67MOL   C19525407   3.306   3.540   6.689 -0.0475 -0.0456  0.0981
   67MOL   O19625408   3.272   3.480   6.571  0.6973  0.0036  0.0190
   67MOL   C19725409   3.227   3.345   6.571  0.0946 -0.1204  0.2997
   67MOL   C19825410   3.241   3.254   6.676  0.4014  0.3089 -0.2875
   67MOL   C19925411   3.214   3.117   6.654 -0.3208  0.0961  0.5119
   67MOL   C20025412   3.152   3.076   6.539  0.1507  0.5392 -0.5617
   67MOL   C20125413   3.121   3.170   6.436  0.2729 -0.1318 -0.4069
   67MOL   C20225414   3.162   3.303   6.450 -0.1238  0.1002  0.0358
   67MOL   H20325415   3.122   3.618   6.998  2.0917  0.5006  1.8987
   67MOL   H20425416   3.107   3.594   6.743 -0.1945  1.3900  2.9609
   67MOL   H20525417   3.389   3.484   6.731  0.4991 -0.3296 -1.3406
   67MOL   H20625418   3.333   3.643   6.663 -0.8109  0.3872  0.9780
   67MOL   H20725419   3.288   3.282   6.769  1.2385 -2.6493  0.2347
   67MOL   H20825420   3.239   3.039   6.725 -2.2493  0.3597  1.5164
   67MOL   H20925421   3.123   2.974   6.522  0.1996  0.2431  1.0883
   67MOL   H21025422   3.065   3.141   6.348  2.4402 -1.6429 -1.3435
   67MOL   C21125423   3.124   3.403   6.342 -0.2408 -0.4898 -0.2142
   67MOL   C21225424   3.218   3.450   6.230 -0.3082  0.5591  0.1931
   67MOL   O21325425   3.123   3.348   6.207  0.9137 -0.0333  0.6436
   67MOL   C21425426   3.358   3.400   6.191 -0.2324 -0.1347  0.1871
   67MOL   O21525427   3.389   3.270   6.244 -0.2369 -0.3261 -0.0678
   67MOL   C21625428   3.506   3.205   6.209 -0.0334  0.0107  0.3365
   67MOL   C21725429   3.624   3.276   6.168  0.5654  0.5386  0.5506
   67MOL   C21825430   3.738   3.203   6.116 -0.0961  0.4916  0.1986
   67MOL   C21925431   3.733   3.064   6.110  0.0932 -0.3502  0.0968
   67MOL   C22025432   3.618   2.997   6.159  0.3878  0.7828  0.0348
   67MOL   C22125433   3.507   3.067   6.205 -0.8694  0.3702 -0.1516
   67MOL   H22225434   3.041   3.467   6.372 -0.8508 -2.3141  2.0845
   67MOL   H22325435   3.194   3.546   6.184  2.1032  1.0614 -0.1029
   67MOL   H22425436   3.428   3.474   6.231 -1.4960  0.9878  0.3705
   67MOL   H22525437   3.374   3.387   6.084  2.6769  0.1302  0.5529
   67MOL   H22625438   3.636   3.384   6.171 -1.0074  0.6717  2.9597
   67MOL   H22725439   3.829   3.261   6.105 -0.4943  1.3701  1.4140
   67MOL   H22825440   3.825   3.017   6.077 -0.6908 -1.7939 -0.0456
   67MOL   H22925441   3.603   2.891   6.141 -1.4213  1.3624 -2.1282
   67MOL   C23025442   3.391   2.991   6.267 -0.5367 -0.0788 -0.0593
   67MOL   C23125443   3.262   2.979   6.198  0.7361 -0.1646  0.7647
   67MOL   O23225444   3.363   2.879   6.186 -0.5037  0.5770  0.2005
   67MOL   C23325445   3.222   3.048   6.067  1.1631  0.0677  0.8274
   67MOL   O23425446   3.139   2.974   5.970 -0.2252 -0.0915  0.7412
   67MOL   C23525447   3.197   2.865   5.906  0.2426 -0.6128 -0.3527
   67MOL   C23625448   3.336   2.844   5.884 -0.3678 -0.0599  0.2524
   67MOL   C23725449   3.386   2.723   5.835 -0.3131  0.3185 -0.0471
   67MOL   C23825450   3.297   2.613   5.812  0.8848 -0.2713 -0.1167
   67MOL   C23925451   3.162   2.629   5.836 -0.2333 -0.0795  0.3174
   67MOL   C24025452   3.108   2.757   5.880  0.0739 -0.0574  1.2410
   67MOL   H24125453   3.403   2.967   6.372 -3.1926  0.7931  0.4932
   67MOL   H24225454   3.177   2.941   6.255  0.1537 -1.5780 -0.9703
   67MOL   H24325455   3.310   3.094   6.020  2.1687 -1.2897  1.3424
   67MOL   H24425456   3.153   3.127   6.095  2.2186  1.2800  0.0535
   67MOL   H24525457   3.404   2.923   5.911 -0.1968 -0.3434  0.6629
   67MOL   H24625458   3.493   2.716   5.828 -0.2410 -0.2132  1.5415
   67MOL   H24725459   3.344   2.519   5.785  0.9887 -0.6170  1.1797
   67MOL   H24825460   3.094   2.546   5.823 -0.8334  0.0451  2.4739
   67MOL   C24925461   2.959   2.777   5.896 -0.1297  0.9449 -0.3338
   67MOL   C25025462   2.872   2.794   5.779 -0.1044 -0.5869  0.0050
   67MOL   O25125463   2.878   2.676   5.849  0.4402 -0.1468 -0.1377
   67MOL   C25225464   2.924   2.776   5.640  0.1852 -0.6914  0.4576
   67MOL   O25325465   2.858   2.857   5.540 -0.0730  0.8653  1.1157
   67MOL   C25425466   2.883   2.990   5.540 -0.2723  0.0544 -0.1638
   67MOL   C25525467   2.995   3.046   5.596 -0.2244 -0.1912  0.0355
   67MOL   C25625468   3.005   3.187   5.592 -0.4052 -0.5318 -0.2628
   67MOL   C25725469   2.911   3.270   5.525  0.0988  0.5701  0.2069
   67MOL   C25825470   2.801   3.203   5.467 -0.1211 -0.6331 -0.1337
   67MOL   C25925471   2.792   3.064   5.465  0.0131  0.0726 -0.1140
   67MOL   H26025472   2.924   2.840   5.978 -0.7104 -1.6149  1.4576
   67MOL   H26125473   2.783   2.856   5.790  1.0007  1.0465 -0.1301
   67MOL   H26225474   2.900   2.673   5.614  1.3003 -0.4564 -1.5196
   67MOL   H26325475   3.032   2.780   5.636  0.2231 -1.7615  0.2586
   67MOL   H26425476   3.072   2.988   5.644 -1.4105 -1.0729  0.8970
   67MOL   H26525477   3.096   3.227   5.637  0.2117 -0.7242 -1.3313
   67MOL   H26625478   2.936   3.375   5.519  0.0527  0.5206 -0.9077
   67MOL   H26725479   2.721   3.253   5.416 -0.9510  0.6004  2.3055
   67MOL   C26825480   2.677   3.006   5.401  0.3501 -0.1335 -0.2762
   67MOL   C26925481   2.563   2.932   5.470 -0.4146  0.4778 -1.0364
   67MOL   O27025482   2.556   3.072   5.429 -0.3903 -0.4648 -0.3310
   67MOL   C27125483   2.555   2.905   5.619 -0.1096  0.1581 -0.5847
   67MOL   O27225484   2.422   2.852   5.652 -0.5340  0.0296 -0.6525
   67MOL   C27325485   2.306   2.929   5.646 -0.1777 -0.6737 -0.3818
   67MOL   C27425486   2.304   3.070   5.670 -0.9352 -1.2445  0.7226
   67MOL   C27525487   2.186   3.144   5.660 -0.4093 -0.0043 -0.0699
   67MOL   C27625488   2.070   3.084   5.619 -0.6245  0.1509  0.1882
   67MOL   C27725489   2.066   2.948   5.594 -0.6522 -0.2555  0.8894
   67MOL   C27825490   2.186   2.867   5.609  1.0404 -0.0910  0.0466
   67MOL   H27925491   2.703   3.001   5.295  0.4172  2.7746 -0.4553
   67MOL   H28025492   2.505   2.868   5.404  3.4703 -1.9250 -2.3167
   67MOL   H28125493   2.581   2.995   5.676  0.2169  0.8299 -1.7872
   67MOL   H28225494   2.632   2.830   5.637 -2.5794 -1.8454  2.1124
   67MOL   H28325495   2.400   3.114   5.697 -0.8329 -0.8468 -0.2437
   67MOL   H28425496   2.190   3.248   5.687 -0.0655  0.2785 -1.1919
   67MOL   H28525497   1.982   3.146   5.610 -0.0422  1.1555  1.3008
   67MOL   H28625498   1.972   2.899   5.574 -0.6329 -0.5874  1.5832
   67MOL   C28725499   2.186   2.725   5.572  0.4061  0.2028  0.2916
   67MOL   C28825500   2.148   2.609   5.662  0.0105  0.0398 -0.3354
   67MOL   O28925501   2.055   2.664   5.568  1.2232 -0.2180 -0.2547
   67MOL   C29025502   2.103   2.621   5.811  0.1359 -0.1718 -0.0712
   67MOL   O29125503   2.060   2.505   5.875  0.0618  0.7328  0.2932
   67MOL   C29225504   2.010   2.514   6.003  0.1677 -0.1973  0.9611
   67MOL   C29325505   2.023   2.637   6.074  0.4854  0.5473 -0.2315
   67MOL   C29425506   1.985   2.637   6.210 -0.3675  0.0274 -0.1542
   67MOL   C29525507   1.958   2.520   6.277  0.5763  0.0833  0.9670
   67MOL   C29625508   1.936   2.400   6.204  0.1632 -0.1869 -0.6612
   67MOL   C29725509   1.960   2.397   6.066  0.8437  0.1335 -0.7824
   67MOL   H29825510   2.242   2.713   5.480 -0.1854 -0.3121 -0.0005
   67MOL   H29925511   2.173   2.507   5.633 -2.2347 -0.5639 -0.1971
   67MOL   H30025512   2.015   2.686   5.811  0.4892  0.3145  0.0992
   67MOL   H30125513   2.180   2.673   5.867 -1.2280  0.8289  0.9139
   67MOL   H30225514   2.061   2.727   6.029 -0.3164  1.4554  0.8656
   67MOL   H30325515   1.992   2.723   6.275  2.0109 -1.1567  1.2146
   67MOL   H30425516   1.941   2.524   6.384 -2.1391 -1.1920  0.6213
   67MOL   H30525517   1.901   2.315   6.261 -1.1047  0.4946 -0.4037
   67MOL   C30625518   1.934   2.266   5.993  0.0154  0.4718  0.0356
   67MOL   C30725519   2.035   2.146   5.987 -0.3142 -0.3448  0.2562
   67MOL   O30825520   1.919   2.146   6.071  0.1693 -0.1021 -0.2665
   67MOL   C30925521   2.179   2.137   6.054 -1.1726  0.1215  0.6699
   67MOL   O31025522   2.233   2.264   6.078  0.8951  0.8307  0.1828
   67MOL   C31125523   2.302   2.339   5.982  0.1905  0.5959  0.0457
   67MOL   C31225524   2.330   2.289   5.848  0.8641 -0.3800 -0.3545
   67MOL   C31325525   2.410   2.366   5.762 -0.6804  0.5222  0.5679
   67MOL   C31425526   2.459   2.489   5.805  0.1801  1.2512  0.4469
   67MOL   C31525527   2.435   2.537   5.933 -1.1107 -0.4669  0.2188
   67MOL   C31625528   2.356   2.461   6.022 -0.0194 -0.5232  0.5957
   67MOL   H31725529   1.855   2.276   5.919 -0.5835  2.7241  0.9294
   67MOL   H31825530   2.036   2.097   5.890  0.3167  0.4264 -0.1221
   67MOL   H31925531   2.247   2.065   6.008 -0.7335  0.3864  0.9085
   67MOL   H32025532   2.172   2.090   6.152  1.3349 -1.7864 -0.0084
   67MOL   H32125533   2.292   2.192   5.821  0.5199 -0.4255  0.2689
   67MOL   H32225534   2.432   2.337   5.660 -1.2296  1.0300  0.3013
   67MOL   H32325535   2.525   2.545   5.740  1.5082 -0.6405  0.1272
   67MOL   H32425536   2.474   2.633   5.961  1.1269 -1.4436  0.5232
   67MOL   C32525537   2.323   2.511   6.160  0.0759  0.0086  0.2201
   67MOL   C32625538   2.368   2.439   6.279  0.6384 -0.2430 -0.7323
   67MOL   O32725539   2.435   2.551   6.235  0.0251  0.6657 -0.0244
   67MOL   C32825540   2.465   2.322   6.280  0.0027 -0.0166 -0.2657
   67MOL   O32925541   2.499   2.293   6.413 -0.3933 -0.0555  0.4747
   67MOL   C33025542   2.610   2.225   6.445 -0.2978  0.4609  0.4319
   67MOL   C33125543   2.693   2.158   6.352 -0.0764 -0.0501 -0.5972
   67MOL   C33225544   2.810   2.093   6.392 -0.5484  1.0065 -0.8371
   67MOL   C33325545   2.854   2.100   6.530 -0.1253 -0.1815 -0.0025
   67MOL   C33425546   2.775   2.162   6.624 -0.2629  0.4080 -0.0085
   67MOL   C33525547   2.656   2.229   6.577  0.9513  0.6471  0.1388
   67MOL   H33625548   2.242   2.583   6.166 -0.0845 -0.1137 -0.4961
   67MOL   H33725549   2.302   2.441   6.366 -0.5046 -0.7213 -1.5796
   67MOL   H33825550   2.556   2.351   6.227 -0.1014  0.5974 -0.1157
   67MOL   H33925551   2.426   2.231   6.235  0.6277 -1.2387  1.5833
   67MOL   H34025552   2.677   2.157   6.245  1.1819  0.8957 -0.8068
   67MOL   H34125553   2.871   2.047   6.316 -0.8435 -0.8811  0.0402
   67MOL   H34225554   2.948   2.049   6.546  0.5838  0.2630 -2.4391
   67MOL   H34325555   2.802   2.146   6.728  1.3714  0.5014 -0.4084
   67MOL   C34425556   2.565   2.293   6.682 -0.0153 -0.3636 -0.3271
   67MOL   C34525557   2.474   2.206   6.765  0.2994 -0.1635 -0.1255
   67MOL   O34625558   2.600   2.245   6.811 -0.3062  0.4525  0.6848
   67MOL   C34725559   2.463   2.059   6.755 -0.3689 -0.7186  0.0912
   67MOL   O34825560   2.327   2.011   6.765 -0.1463 -0.1712  0.4224
   67MOL   C34925561   2.239   2.042   6.661  0.2344  0.1129  0.2526
   67MOL   C35025562   2.247   2.126   6.549 -0.2858 -0.3654 -0.0005
   67MOL   C35125563   2.140   2.156   6.456  1.1550 -0.1803  0.0785
   67MOL   C35225564   2.018   2.098   6.486  0.3932 -0.7569  0.0007
   67MOL   C35325565   2.007   2.011   6.596 -0.1260 -0.1150 -0.1810
   67MOL   C35425566   2.114   1.976   6.679 -0.2708  0.3386  0.6377
   67MOL   H35525567   2.548   2.400   6.676 -2.2599 -0.7555 -1.5744
   67MOL   H35625568   2.391   2.259   6.810  1.1147  0.7155  0.3520
   67MOL   H35725569   2.521   2.011   6.834  1.0849 -2.6849 -2.0803
   67MOL   H35825570   2.505   2.030   6.659 -1.4175  0.6243 -0.7892
   67MOL   H35925571   2.345   2.170   6.537 -0.0517 -0.5011  1.3234
   67MOL   H36025572   2.148   2.222   6.371  0.5327 -0.8850 -0.5310
   67MOL   H36125573   1.938   2.125   6.419 -1.6808  0.6853  2.9549
   67MOL   H36225574   1.917   1.956   6.620 -2.1909  1.7977 -3.1346
   67MOL   C36325575   2.102   1.868   6.782  0.1687  0.3356 -0.0569
   67MOL   C36425576   2.069   1.884   6.928 -0.1925  0.3005 -0.3956
   67MOL   O36525577   1.967   1.848   6.827  0.2535 -0.2165 -0.0788
   67MOL   C36625578   2.055   2.019   7.003  0.8350 -0.2217 -0.4442
   67MOL   O36725579   2.054   1.998   7.141 -0.1863  0.3959  0.0791
   67MOL   C36825580   1.953   1.922   7.197 -0.3349 -0.0218  0.6529
   67MOL   C36925581   1.975   1.869   7.324 -0.3059  0.0763  0.3065
   67MOL   C37025582   1.880   1.792   7.382  0.2568  0.3310  0.3789
   67MOL   C37125583   1.762   1.760   7.316 -0.4682  0.1277 -0.0563
   67MOL   C37225584   1.734   1.808   7.189  0.0714 -0.2805  0.0939
   67MOL   C37325585   1.830   1.888   7.128 -0.1611  0.4568 -0.5954
   67MOL   H37425586   2.149   1.777   6.743 -2.7459 -1.3055  0.1206
   67MOL   H37525587   2.081   1.796   6.991  1.1269  1.0100  0.3671
   67MOL   H37625588   1.964   2.073   6.975  1.9513  1.1853 -1.3996
   67MOL   H37725589   2.146   2.074   6.982  0.4573  0.4247 -0.3812
   67MOL   H37825590   2.069   1.881   7.376 -0.1706 -1.4907  0.4529
   67MOL   H37925591   1.899   1.754   7.481  2.4945  0.6478  0.0984
   67MOL   H38025592   1.686   1.711   7.376 -1.0838  2.2002  0.8727
   67MOL   H38125593   1.634   1.796   7.149 -0.3879  1.6007  0.6268
   67MOL   H38225594   1.812   1.928   7.029 -0.9563 -2.1159 -1.5408
   68MOL     C125595   6.182   7.479   2.734  0.5713  0.0024 -0.2014
   68MOL     C225596   6.148   7.622   2.749  0.6303  0.2079  1.3037
   68MOL     O325597   6.054   7.530   2.694 -0.2861  0.0531 -0.0206
   68MOL     C425598   6.183   7.730   2.648  0.5512 -0.2944 -0.3229
   68MOL     O525599   6.261   7.692   2.540 -0.0212 -0.0936  0.1657
   68MOL     C625600   6.392   7.656   2.557 -0.3238  0.0384  0.5968
   68MOL     C725601   6.485   7.722   2.640  0.0177  0.0013 -0.4498
   68MOL     C825602   6.611   7.662   2.648 -0.3974  0.0215 -0.4789
   68MOL     C925603   6.656   7.555   2.570  0.1301  0.1154 -0.2625
   68MOL    C1025604   6.565   7.500   2.480 -0.1160 -0.6110  0.2063
   68MOL    C1125605   6.431   7.547   2.474 -0.6052  0.5855 -0.0756
   68MOL    H1225606   6.190   7.428   2.830 -1.1029 -1.5623 -0.8548
   68MOL    H1325607   6.128   7.650   2.852 -0.5328 -0.2028  1.2028
   68MOL    H1425608   6.209   7.823   2.698  3.4751  0.5393 -3.1571
   68MOL    H1525609   6.088   7.752   2.601 -0.3169 -1.3161  0.9341
   68MOL    H1625610   6.458   7.814   2.689  1.1419  1.1641 -1.9764
   68MOL    H1725611   6.677   7.710   2.719  0.1743 -0.0787 -0.9331
   68MOL    H1825612   6.758   7.521   2.572  0.1127  0.0867  0.6053
   68MOL    H1925613   6.594   7.422   2.412  2.2577 -1.1543  1.7766
   68MOL    H2025614   6.245   7.445   2.652  1.4079  1.2938 -0.1072
   68MOL    C2125615   6.332   7.486   2.381  0.7384 -0.7365  0.4118
   68MOL    C2225616   6.287   7.560   2.258 -0.2154  0.4216 -0.3648
   68MOL    O2325617   6.386   7.453   2.253 -0.1040 -0.4827  0.1760
   68MOL    C2425618   6.330   7.697   2.221 -0.2357 -0.1902 -0.1133
   68MOL    O2525619   6.289   7.730   2.089 -0.2690 -0.0104  0.4951
   68MOL    C2625620   6.347   7.694   1.966 -0.9282 -0.4059 -0.5242
   68MOL    C2725621   6.472   7.625   1.970 -0.5323 -1.1775 -0.1362
   68MOL    C2825622   6.523   7.572   1.845 -0.3547 -0.1841  0.3148
   68MOL    C2925623   6.454   7.593   1.726  1.0392 -1.2589  0.1401
   68MOL    C3025624   6.331   7.665   1.729  0.6889 -0.2817  0.3745
   68MOL    C3125625   6.275   7.719   1.847 -0.8249 -0.4393  0.4314
   68MOL    H3225626   6.266   7.409   2.420  0.0410 -1.4701 -2.1366
   68MOL    H3325627   6.186   7.535   2.228 -0.6719  1.4440  0.3060
   68MOL    H3425628   6.437   7.713   2.220 -0.4098  1.0223 -1.3192
   68MOL    H3525629   6.279   7.754   2.299 -2.1072 -0.6660 -0.9625
   68MOL    H3625630   6.525   7.612   2.063  0.6121 -0.5488 -0.6877
   68MOL    H3725631   6.618   7.521   1.851 -0.6169 -1.0536 -2.3183
   68MOL    H3825632   6.489   7.552   1.632  1.0289 -0.0746 -0.3989
   68MOL    H3925633   6.278   7.683   1.637  1.3901 -2.6641 -0.5371
   68MOL    C4025634   6.142   7.787   1.860 -0.2471 -0.2709  0.7953
   68MOL    C4125635   6.129   7.938   1.860  0.0964 -0.6432  0.0619
   68MOL    O4225636   6.112   7.862   1.740 -0.0107 -0.2214  0.2384
   68MOL    C4325637   6.241   8.041   1.853 -0.1652  0.9127  0.0089
   68MOL    O4425638   6.191   8.167   1.819 -0.3444  0.4880 -0.1547
   68MOL    C4525639   6.201   0.043   1.689 -0.3169 -0.2580  0.1266
   68MOL    C4625640   6.206   8.127   1.580 -0.2410 -0.4978 -0.1731
   68MOL    C4725641   6.237   0.004   1.451  0.7425  0.2006  0.3715
   68MOL    C4825642   6.260   0.139   1.438  0.3100 -0.2151  0.5816
   68MOL    C4925643   6.245   0.232   1.543  0.3411 -0.3281 -0.1821
   68MOL    C5025644   6.216   0.183   1.676 -0.0251 -0.1113  0.1922
   68MOL    H5125645   6.058   7.723   1.889 -1.6894  0.4915 -1.5715
   68MOL    H5225646   6.038   7.981   1.901  0.9867  1.2083  0.1230
   68MOL    H5325647   6.326   7.997   1.800  0.2185 -1.3207  2.4076
   68MOL    H5425648   6.289   8.050   1.950  0.4171  2.1096 -0.3743
   68MOL    H5525649   6.178   8.023   1.590  0.3537 -0.6943 -0.5665
   68MOL    H5625650   6.242   8.110   1.364 -0.9269 -1.7312  1.6648
   68MOL    H5725651   6.292   0.181   1.344  0.6485  0.9300  1.1918
   68MOL    H5825652   6.260   0.338   1.536  1.7813 -0.4616  0.6671
   68MOL    C5925653   6.222   0.281   1.793 -0.3930 -0.2217 -0.0366
   68MOL    C6025654   6.362   0.319   1.845 -0.2221  0.2598 -0.2668
   68MOL    O6125655   6.279   0.412   1.773 -0.2814  0.8875 -0.2218
   68MOL    C6225656   6.488   0.263   1.777 -0.1850  0.3150  0.1668
   68MOL    O6325657   6.609   0.310   1.843  0.2467 -0.2297 -0.4478
   68MOL    C6425658   6.724   0.297   1.773  0.3047  0.1505 -0.5563
   68MOL    C6525659   6.741   0.198   1.668  0.4681 -0.8411 -0.1059
   68MOL    C6625660   6.866   0.185   1.603 -0.1892  0.6974 -0.6515
   68MOL    C6725661   6.971   0.277   1.633  0.3850  0.2453  0.6762
   68MOL    C6825662   6.947   0.386   1.718 -0.3972  0.0769 -0.5922
   68MOL    C6925663   6.828   0.391   1.796  0.3576 -0.7311  0.7081
   68MOL    H7025664   6.140   0.265   1.863 -1.2422 -1.4590 -1.2958
   68MOL    H7125665   6.373   0.327   1.953  1.5751 -0.6089 -0.3647
   68MOL    H7225666   6.478   0.296   1.673  0.3287 -0.1864 -0.0438
   68MOL    H7325667   6.497   0.155   1.780 -1.4924  0.1648 -0.9438
   68MOL    H7425668   6.670   0.118   1.655  2.3151 -2.6533  0.5203
   68MOL    H7525669   6.878   0.114   1.523 -0.7220  0.4356 -0.5052
   68MOL    H7625670   7.064   0.275   1.578  2.2020  3.2397  3.4694
   68MOL    H7725671   7.022   0.463   1.733 -0.4545  0.2360 -1.1023
   68MOL    C7825672   6.826   0.489   1.903  0.0347  0.0939 -0.0254
   68MOL    C7925673   6.841   0.450   2.050 -0.1348  0.0627 -0.1121
   68MOL    O8025674   6.952   0.498   1.975 -0.3627  0.0023  0.0290
   68MOL    C8125675   6.852   0.305   2.095 -0.2735 -0.5378 -0.1412
   68MOL    O8225676   6.908   0.281   2.223 -0.4305 -0.2249  0.0495
   68MOL    C8325677   7.047   0.293   2.244  0.0909 -0.3757  0.0873
   68MOL    C8425678   7.147   0.323   2.150 -0.0853  0.2196  0.7700
   68MOL    C8525679   7.282   0.343   2.196  0.1999 -0.5676 -0.2371
   68MOL    C8625680   7.314   0.320   2.329 -0.4095  0.0557 -0.5151
   68MOL    C8725681   7.221   0.278   2.424  0.2915 -0.2189 -0.1440
   68MOL    C8825682   7.090   0.271   2.382  0.5498 -0.3102 -0.4305
   68MOL    H8925683   6.792   0.589   1.875 -1.4763 -0.7954 -1.4460
   68MOL    H9025684   6.803   0.525   2.119 -0.9894 -0.4012 -0.0574
   68MOL    H9125685   6.901   0.259   2.010  0.5772  1.9207 -1.0134
   68MOL    H9225686   6.752   0.261   2.088 -0.5963  0.2478 -0.5224
   68MOL    H9325687   7.114   0.339   2.048 -2.2982 -0.3481  1.3705
   68MOL    H9425688   7.347   0.387   2.122 -0.2224 -0.4163 -0.5206
   68MOL    H9525689   7.418   0.331   2.358  0.1494  0.3298 -2.5618
   68MOL    H9625690   7.254   0.263   2.526 -0.9498  0.7781  0.4200
   68MOL    C9725691   6.981   0.226   2.479 -0.2312  0.5685 -0.1151
   68MOL    C9825692   6.963   0.079   2.511 -0.5568 -0.1140  0.4283
   68MOL    O9925693   7.028   0.172   2.602  0.6817 -0.0111 -0.1794
   68MOL   C10025694   7.053   8.141   2.462 -0.4312  0.8312  0.0125
   68MOL   O10125695   7.006   8.017   2.513 -0.6240  0.4221  0.2974
   68MOL   C10225696   7.045   7.960   2.635  0.1925 -0.0735  0.2323
   68MOL   C10325697   7.118   8.043   2.729  0.1883  0.4142  0.3586
   68MOL   C10425698   7.149   7.987   2.852  0.6540 -0.3732 -0.1076
   68MOL   C10525699   7.112   7.852   2.879 -0.0378 -0.0951  0.3686
   68MOL   C10625700   7.040   7.768   2.788  0.3819  0.4212  0.5241
   68MOL   C10725701   7.015   7.821   2.655  0.0529 -0.9007  0.0439
   68MOL   H10825702   6.894   0.292   2.481 -1.2302 -0.7466  0.4462
   68MOL   H10925703   6.874   0.042   2.563 -0.6506 -2.0730 -1.0612
   68MOL   H11025704   7.161   8.147   2.476 -0.5588  2.0402  0.5367
   68MOL   H11125705   7.044   8.151   2.354 -0.8984 -0.1404 -0.0461
   68MOL   H11225706   7.147   8.146   2.713  1.2872  0.0828  0.1482
   68MOL   H11325707   7.190   8.051   2.930 -1.0917 -1.9089  2.1278
   68MOL   H11425708   7.122   7.809   2.978  2.2742 -2.1489 -0.7261
   68MOL   H11525709   7.009   7.668   2.812  1.1445 -0.2697 -1.2530
   68MOL   C11625710   6.938   7.747   2.550  0.0302  0.5055  0.1707
   68MOL   C11725711   7.000   7.702   2.419 -0.6375 -0.1200 -0.2057
   68MOL   O11825712   6.981   7.616   2.530  0.2670  0.1192  0.1404
   68MOL   C11925713   7.146   7.730   2.388 -0.4512 -0.2294  1.0986
   68MOL   O12025714   7.187   7.658   2.276  0.1876 -0.0144 -0.4328
   68MOL   C12125715   7.251   7.533   2.285  0.0293 -0.5063  0.6236
   68MOL   C12225716   7.266   7.462   2.407  0.0001  1.1721  0.0327
   68MOL   C12325717   7.323   7.342   2.409  0.5284 -0.2770 -0.1425
   68MOL   C12425718   7.364   7.271   2.290 -0.8397 -0.5576 -0.1411
   68MOL   C12525719   7.364   7.349   2.171 -0.0141  0.2137  0.1917
   68MOL   C12625720   7.308   7.481   2.165  0.3190  0.1819  0.6657
   68MOL   H12725721   6.831   7.757   2.566  0.0926 -0.5253  1.2522
   68MOL   H12825722   6.936   7.686   2.332 -0.7069  2.4045 -0.6465
   68MOL   H12925723   7.207   7.727   2.479  0.0745  0.8719  0.7819
   68MOL   H13025724   7.149   7.835   2.361  1.4822  0.4870  3.8498
   68MOL   H13125725   7.230   7.509   2.498 -1.1475  2.5510 -1.0830
   68MOL   H13225726   7.324   7.287   2.503  0.5578 -1.0996 -0.6191
   68MOL   H13325727   7.401   7.170   2.284 -0.0804 -0.3782  1.2389
   68MOL   H13425728   7.416   7.303   2.089 -0.3793  0.7374 -0.3362
   68MOL   C13525729   7.294   7.542   2.028  0.2776 -0.2063  0.1597
   68MOL   C13625730   7.397   7.633   1.971 -0.5649  0.2130  0.0368
   68MOL   O13725731   7.392   7.485   1.944 -0.1217 -0.4683 -0.0454
   68MOL   C13825732   7.528   7.673   2.026 -0.5959 -0.1038  0.4614
   68MOL   O13925733   7.598   7.744   1.922 -0.4120 -0.3580 -0.1246
   68MOL   C14025734   7.688   7.838   1.941 -0.3635  0.8177 -0.4958
   68MOL   C14125735   7.780   7.821   2.050  0.2354  0.3099 -0.2770
   68MOL   C14225736   7.879   7.926   2.069 -0.0492 -0.1814 -0.2697
   68MOL   C14325737   7.891   8.041   1.986 -0.5579  0.7762  0.2131
   68MOL   C14425738   7.807   8.046   1.876 -0.1490  0.3431  0.5213
   68MOL   C14525739   7.713   7.941   1.844 -0.5717  0.2544 -0.5397
   68MOL   H14625740   7.194   7.536   1.986  0.7643  0.2793 -1.0993
   68MOL   H14725741   7.369   7.696   1.887  0.1948 -0.6910 -0.9152
   68MOL   H14825742   7.579   7.588   2.070 -0.3194 -0.1439  0.0697
   68MOL   H14925743   7.504   7.740   2.108 -0.8880  0.4822 -0.0975
   68MOL   H15025744   7.776   7.743   2.125  2.2272 -0.7330 -1.2091
   68MOL   H15125745   7.940   7.926   2.158 -1.1045 -0.0808  0.4594
   68MOL   H15225746   7.957   8.119   2.020 -1.2007  0.7347  1.6407
   68MOL   H15325747   7.810   8.138   1.818  1.7717 -0.8999 -1.3990
   68MOL   C15425748   7.632   7.968   1.725  0.2158 -0.0928 -0.3853
   68MOL   C15525749   7.687   8.005   1.591 -0.7278 -0.0943  0.0618
   68MOL   O15625750   7.642   7.867   1.624  0.3130 -0.4685  0.1589
   68MOL   C15725751   7.841   8.009   1.555  0.7001 -0.1639  0.3185
   68MOL   O15825752   7.896   8.136   1.596 -0.2221  0.4726  0.6084
   68MOL   C15925753   7.869   0.078   1.518  0.2964  0.2213 -0.1045
   68MOL   C16025754   7.791   0.078   1.400 -0.1621  0.2111  1.1144
   68MOL   C16125755   7.743   0.197   1.346  0.4950 -0.0840  0.2826
   68MOL   C16225756   7.779   0.318   1.402 -1.3353  0.4090  0.0687
   68MOL   C16325757   7.871   0.321   1.510  0.9783 -0.6622 -0.4797
   68MOL   C16425758   7.923   0.202   1.561 -0.4429  0.5945  0.1360
   68MOL   H16525759   7.532   8.001   1.751  1.0078  2.0502  0.0829
   68MOL   H16625760   7.620   8.046   1.515 -1.5231 -0.2871  0.6492
   68MOL   H16725761   7.855   7.984   1.450 -1.2794  2.5262 -0.6498
   68MOL   H16825762   7.882   7.938   1.627 -0.6528 -0.4358  0.8377
   68MOL   H16925763   7.745   8.165   1.348  0.5755  0.2722  0.3598
   68MOL   H17025764   7.665   0.197   1.271  0.5142 -0.0927  0.2629
   68MOL   H17125765   7.738   0.408   1.359 -0.6403  0.3713 -0.6919
   68MOL   H17225766   7.904   0.414   1.556  2.4934 -1.4048 -0.0307
   68MOL   C17325767   8.019   0.208   1.675  0.4154 -0.2408 -0.0065
   68MOL   C17425768   8.168   0.186   1.678 -0.4642  0.4635  0.0758
   68MOL   O17525769   8.119   0.315   1.655  1.0117 -0.5382  0.4385
   68MOL   C17625770   0.091   0.136   1.564 -0.1458 -0.3456  0.4772
   68MOL   O17725771   0.026   0.150   1.441 -0.1004 -0.6578 -0.3338
   68MOL   C17825772   0.068   0.128   1.318  0.0687 -0.5424  0.1424
   68MOL   C17925773   0.162   0.025   1.293 -0.4266  0.0701  0.1468
   68MOL   C18025774   0.208   0.007   1.162  0.3847 -0.0293  1.0068
   68MOL   C18125775   0.162   0.087   1.057 -0.1549 -0.6053  0.6600
   68MOL   C18225776   0.085   0.198   1.082 -0.0637 -0.0125 -0.2381
   68MOL   C18325777   0.037   0.217   1.215  0.0552  0.8353 -0.6328
   68MOL   H18425778   7.956   0.201   1.764  0.0987  2.0879 -0.0053
   68MOL   H18525779   0.049   0.172   1.773 -0.0217  1.6218  0.0150
   68MOL   H18625780   0.116   0.031   1.583 -0.9956 -0.6132  0.1664
   68MOL   H18725781   0.187   0.186   1.563 -0.2902 -0.0258 -2.2812
   68MOL   H18825782   0.196   8.124   1.367  1.0062 -0.0110 -0.5512
   68MOL   H18925783   0.274   8.093   1.144 -1.1685 -0.9863 -0.3257
   68MOL   H19025784   0.204   0.065   0.961 -0.2118 -2.0502  0.9574
   68MOL   H19125785   0.074   0.276   1.008  2.3721  0.1727 -0.4555
   68MOL   C19225786   8.125   0.339   1.239  0.7972  0.8265  0.2322
   68MOL   C19325787   0.005   0.458   1.315 -0.9006  0.5235 -0.1139
   68MOL   O19425788   0.017   0.451   1.171 -0.3062 -0.3231  0.3137
   68MOL   C19525789   0.132   0.466   1.395 -0.5123  0.0298  0.3638
   68MOL   O19625790   0.155   0.589   1.463  0.4943 -0.6795  0.7507
   68MOL   C19725791   0.255   0.673   1.429  0.2101  0.0571 -0.0712
   68MOL   C19825792   0.321   0.659   1.300 -0.0452  0.6223  0.6689
   68MOL   C19925793   0.416   0.755   1.258  0.4013  0.2698  0.4053
   68MOL   C20025794   0.456   0.858   1.348  0.2488 -0.5086  0.0238
   68MOL   C20125795   0.399   0.864   1.472 -0.1218 -0.4636 -0.5691
   68MOL   C20225796   0.296   0.779   1.517  0.6931 -0.6933 -0.0509
   68MOL   H20325797   8.023   0.325   1.205  1.2574 -1.3461 -0.3361
   68MOL   H20425798   8.090   0.510   1.358 -1.2880 -0.2464  0.0577
   68MOL   H20525799   0.214   0.429   1.335 -2.1561  0.1647 -2.0336
   68MOL   H20625800   0.127   0.390   1.473  0.1082 -0.7829 -0.3836
   68MOL   H20725801   0.307   0.579   1.229 -1.5855 -0.0157  1.6586
   68MOL   H20825802   0.460   0.754   1.159 -2.7351 -1.1826 -1.0290
   68MOL   H20925803   0.527   0.928   1.306  1.3061 -1.4350  0.2217
   68MOL   H21025804   0.445   0.927   1.547  0.0876  0.3779 -1.3951
   68MOL   C21125805   0.227   0.798   1.650  0.0371  0.7257  0.3094
   68MOL   C21225806   0.220   0.693   1.754 -0.1773  0.5377 -0.0391
   68MOL   O21325807   0.319   0.795   1.762 -0.1931 -0.8445  0.1022
   68MOL   C21425808   0.265   0.550   1.744 -0.0362  0.0327 -0.3855
   68MOL   O21525809   0.255   0.494   1.875 -0.2131 -0.2925 -0.2730
   68MOL   C21625810   0.307   0.365   1.902  0.1211  0.3414  0.3070
   68MOL   C21725811   0.350   0.277   1.799  0.3252 -0.3798 -0.0673
   68MOL   C21825812   0.396   0.150   1.820  0.5706  0.0904  0.2626
   68MOL   C21925813   0.409   0.116   1.957 -0.5513 -0.2446 -0.9578
   68MOL   C22025814   0.354   0.195   2.060  0.5502  0.8689  0.0824
   68MOL   C22125815   0.307   0.322   2.037 -0.4864 -0.5503  0.0334
   68MOL   H22225816   0.142   0.866   1.646 -0.0427  0.6296  0.3701
   68MOL   H22325817   0.128   0.702   1.812 -2.0355 -0.4638 -2.7263
   68MOL   H22425818   0.366   0.553   1.704  0.3102  2.2851  0.6102
   68MOL   H22525819   0.191   0.496   1.685  0.5596 -1.3598  0.1141
   68MOL   H22625820   0.353   0.308   1.696  1.6568 -1.4670 -0.3720
   68MOL   H22725821   0.423   0.090   1.735 -1.8290  1.5562 -1.6296
   68MOL   H22825822   0.455   0.024   1.991 -0.2626  0.3653  0.3282
   68MOL   H22925823   0.363   0.154   2.160  2.1053 -1.4276 -0.9586
   68MOL   C23025824   0.261   0.414   2.145  0.1693 -0.7009 -0.4531
   68MOL   C23125825   0.111   0.422   2.179 -0.4349  0.0503  0.1331
   68MOL   O23225826   0.205   0.342   2.253 -1.0096  0.1625 -0.6032
   68MOL   C23325827   0.000   0.342   2.102  0.0282 -0.1599  0.7191
   68MOL   O23425828   8.052   0.327   2.172 -0.0524  0.0139 -0.1524
   68MOL   C23525829   8.036   0.206   2.239  0.3674 -0.3373  0.1853
   68MOL   C23625830   8.132   0.106   2.248  0.0107  0.2205 -0.1487
   68MOL   C23725831   8.098   8.145   2.304 -0.1651  0.4781  0.3228
   68MOL   C23825832   7.965   8.118   2.358 -0.3883  0.3169  0.4621
   68MOL   C23925833   7.870   0.053   2.356  0.0063 -0.3340 -0.3499
   68MOL   C24025834   7.905   0.180   2.293  0.5662 -0.5739 -0.2665
   68MOL   H24125835   0.328   0.495   2.171  0.8420 -1.2667 -0.4087
   68MOL   H24225836   0.087   0.522   2.212  0.2694  0.1462  0.3692
   68MOL   H24325837   0.039   0.254   2.049 -1.9573 -0.9863  0.6126
   68MOL   H24425838   8.140   0.411   2.023  1.8710  0.1311  0.2415
   68MOL   H24525839   0.061   0.117   2.206  0.4868  2.1252  1.3666
   68MOL   H24625840   8.161   8.058   2.300 -0.9664 -0.0432 -1.3622
   68MOL   H24725841   7.942   8.022   2.401 -2.5243  0.9853  0.8941
   68MOL   H24825842   7.771   0.041   2.398 -0.0990  1.4544 -0.0465
   68MOL   C24925843   7.797   0.287   2.282 -0.5842 -0.8006  0.3189
   68MOL   C25025844   7.730   0.333   2.149  0.4622 -0.2413  0.2741
   68MOL   O25125845   7.676   0.227   2.234  0.1706  0.0172 -0.4446
   68MOL   C25225846   7.766   0.284   2.007  0.2805 -0.1578  0.2959
   68MOL   O25325847   7.684   0.322   1.898 -0.5493 -0.7088 -0.0445
   68MOL   C25425848   7.693   0.451   1.845  0.0261 -0.3436  0.1610
   68MOL   C25525849   7.756   0.560   1.910  0.2017 -0.5353 -0.1021
   68MOL   C25625850   7.760   0.691   1.850  0.4648  0.1675  0.6996
   68MOL   C25725851   7.703   0.712   1.722  0.4801 -0.2948 -0.2214
   68MOL   C25825852   7.633   0.612   1.661 -0.2211 -0.4526 -0.2746
   68MOL   C25925853   7.629   0.487   1.726  0.8429 -0.5829 -0.6657
   68MOL   H26025854   7.796   0.362   2.361  1.1671 -0.9855  0.5414
   68MOL   H26125855   7.675   0.427   2.146  2.5530  0.9734 -0.2816
   68MOL   H26225856   7.772   0.175   1.997  0.0348 -0.3404  2.0646
   68MOL   H26325857   7.867   0.322   1.990  0.6161 -0.2292  2.0779
   68MOL   H26425858   7.815   0.553   2.000 -0.7997 -2.9714  0.4179
   68MOL   H26525859   7.810   0.775   1.895  0.5631  0.4487  0.0773
   68MOL   H26625860   7.699   0.807   1.670 -0.4114 -0.7384 -1.0022
   68MOL   H26725861   7.584   0.619   1.565 -4.0395 -1.8415  1.4656
   68MOL   C26825862   7.556   0.374   1.661 -0.2510  0.3771 -0.6068
   68MOL   C26925863   7.442   0.297   1.721  0.2093  0.1230  0.7226
   68MOL   O27025864   7.423   0.421   1.650  0.0198  0.1593  0.3969
   68MOL   C27125865   7.376   0.303   1.860  0.0984  0.3166  0.7698
   68MOL   O27225866   7.392   0.186   1.938  0.0508  0.2029 -0.3999
   68MOL   C27325867   7.319   0.074   1.904  0.3710  0.3617  0.8976
   68MOL   C27425868   7.201   0.072   1.825  0.6013 -0.0057 -1.1726
   68MOL   C27525869   7.137   8.125   1.799  0.7320  0.0154  0.3721
   68MOL   C27625870   7.191   8.004   1.846 -0.1328 -0.2098 -0.2956
   68MOL   C27725871   7.301   8.004   1.931 -0.2748  0.0243 -0.1288
   68MOL   C27825872   7.367   8.126   1.971 -0.6689 -0.6207  0.1798
   68MOL   H27925873   7.594   0.332   1.568 -2.1798  0.0335 -1.2667
   68MOL   H28025874   7.398   0.220   1.659  2.9978 -0.1567 -0.9635
   68MOL   H28125875   7.271   0.329   1.844 -0.3639 -0.9783  1.5503
   68MOL   H28225876   7.405   0.386   1.924 -0.1701 -0.0076  1.3201
   68MOL   H28325877   7.144   0.156   1.788  0.5418  0.3567 -0.2597
   68MOL   H28425878   7.047   8.125   1.739  1.0944 -2.5391 -0.2535
   68MOL   H28525879   7.140   7.914   1.816 -1.0642  0.4596 -0.7477
   68MOL   H28625880   7.348   7.917   1.974  0.4297  0.2192 -0.4859
   68MOL   C28725881   7.489   8.133   2.061  0.2827  0.4576  0.2528
   68MOL   C28825882   7.479   8.117   2.208  0.9937 -0.2014 -0.3850
   68MOL   O28925883   7.508   8.008   2.126 -0.3347  0.3853  0.1003
   68MOL   C29025884   7.359   8.112   2.286  0.1985  0.0078 -0.2046
   68MOL   O29125885   7.386   8.030   2.404  0.1856 -0.3209  0.1186
   68MOL   C29225886   7.471   8.078   2.500 -0.4072  0.1987 -0.0169
   68MOL   C29325887   7.521   0.042   2.507  0.3673  0.4616  1.0854
   68MOL   C29425888   7.592   0.085   2.621 -0.2922  0.3627  0.0635
   68MOL   C29525889   7.630   8.159   2.718  0.9536  0.0092 -0.0857
   68MOL   C29625890   7.579   8.026   2.714 -0.0164 -0.4255 -0.3702
   68MOL   C29725891   7.495   7.987   2.603 -0.1685  0.7638  0.1964
   68MOL   H29825892   7.574   0.015   2.017  0.0915  0.6212  0.0734
   68MOL   H29925893   7.565   8.156   2.262 -1.1903  1.0715  2.2820
   68MOL   H30025894   7.277   8.054   2.243 -2.5105  2.7921  1.0305
   68MOL   H30125895   7.330   0.044   2.312  0.8927  0.3133 -0.6044
   68MOL   H30225896   7.495   0.117   2.435  0.4528 -0.8062 -0.2947
   68MOL   H30325897   7.615   0.190   2.624 -2.0730  0.7988 -0.5517
   68MOL   H30425898   7.692   0.021   2.801  2.5708 -1.6968 -0.5929
   68MOL   H30525899   7.593   7.958   2.797  1.5792 -0.0892 -0.3547
   68MOL   C30625900   7.445   7.847   2.601 -0.7835  0.1242  0.5168
   68MOL   C30725901   7.493   7.744   2.500  0.1465  0.0051  1.0306
   68MOL   O30825902   7.539   7.739   2.632 -0.3001  0.1401  0.2511
   68MOL   C30925903   7.595   7.772   2.389 -0.1820  0.4657  0.2913
   68MOL   O31025904   7.658   7.653   2.344 -0.3032  0.5346  0.5196
   68MOL   C31125905   7.791   7.636   2.370 -0.5199 -0.1781 -0.4654
   68MOL   C31225906   7.886   7.743   2.364  0.0334  0.4216  0.2418
   68MOL   C31325907   8.023   7.713   2.366  0.0495 -0.3924 -0.6667
   68MOL   C31425908   8.067   7.577   2.364  0.7067  0.1681 -1.1536
   68MOL   C31525909   7.979   7.473   2.362  1.1183  1.0391 -0.7174
   68MOL   C31625910   7.840   7.501   2.374  0.4966  0.3277 -0.0831
   68MOL   H31725911   7.353   7.838   2.659 -1.4344 -0.8139 -0.6526
   68MOL   H31825912   7.422   7.664   2.478  2.5293 -2.1625  1.0655
   68MOL   H31925913   7.656   7.853   2.428 -0.5025  1.3564 -1.0026
   68MOL   H32025914   7.548   7.818   2.302  1.6715  0.4578 -0.7505
   68MOL   H32125915   7.862   7.849   2.362  0.1954  0.4931  1.6651
   68MOL   H32225916   8.099   7.789   2.362  0.5517 -0.6666  2.4261
   68MOL   H32325917   0.003   7.557   2.371  0.6776  0.3424 -0.0961
   68MOL   H32425918   8.012   7.370   2.363 -1.6750  0.0857  2.2120
   68MOL   C32525919   7.742   7.385   2.380 -0.4023  0.8549  0.4175
   68MOL   C32625920   7.735   7.260   2.296  0.7442 -0.3351  0.5924
   68MOL   O32725921   7.801   7.266   2.422 -0.1055  0.5243 -0.4004
   68MOL   C32825922   7.819   7.235   2.174 -0.2940 -0.1280  0.5070
   68MOL   O32925923   7.833   7.094   2.158  0.1051 -0.2381 -0.3182
   68MOL   C33025924   7.964   7.046   2.159 -0.4648  0.4516  0.0418
   68MOL   C33125925   8.038   7.075   2.273  0.4387 -0.4475 -0.1595
   68MOL   C33225926   0.002   7.038   2.280  0.4643 -0.3925 -0.6159
   68MOL   C33325927   0.059   6.980   2.170  0.4989 -0.1184  0.3792
   68MOL   C33425928   8.154   6.936   2.058  0.2507 -0.7693 -0.0565
   68MOL   C33525929   8.018   6.976   2.052  0.1365  0.8607 -0.4062
   68MOL   H33625930   7.650   7.414   2.431  0.2017  1.4585  1.1751
   68MOL   H33725931   7.637   7.212   2.297  0.8535 -0.5783 -0.1208
   68MOL   H33825932   7.909   7.296   2.166  0.0053 -0.6204  0.0575
   68MOL   H33925933   7.766   7.254   2.080  0.7977 -0.5358 -0.1951
   68MOL   H34025934   7.986   7.114   2.360 -1.4186  0.7665 -1.7733
   68MOL   H34125935   0.056   7.074   2.366  0.8211 -0.8333 -0.6496
   68MOL   H34225936   0.165   6.960   2.157  0.7583  1.0276  0.6181
   68MOL   H34325937   0.033   6.895   1.970 -1.3335 -1.2898 -0.7126
   68MOL   C34425938   7.953   6.955   1.917  0.3276 -0.3569 -0.0458
   68MOL   C34525939   7.949   7.059   1.809  0.1119  0.2558  0.0583
   68MOL   O34625940   8.042   6.952   1.806 -0.2328 -0.0569 -0.7615
   68MOL   C34725941   8.014   7.198   1.818 -0.2845  0.4193 -0.2526
   68MOL   O34825942   7.939   7.290   1.742  0.0559  0.3721  0.5044
   68MOL   C34925943   7.980   7.315   1.614  0.3896  0.3387  0.6437
   68MOL   C35025944   8.048   7.219   1.534 -0.0743  0.5986  0.0060
   68MOL   C35125945   8.082   7.256   1.400 -0.5607 -0.3983 -0.0984
   68MOL   C35225946   8.017   7.364   1.338  0.5069 -0.5281  0.3451
   68MOL   C35325947   7.941   7.455   1.416 -0.2962  0.0507  0.1112
   68MOL   C35425948   7.931   7.437   1.553 -0.0303  0.6692 -0.0985
   68MOL   H35525949   7.896   6.862   1.911  0.0213 -0.0312 -3.0941
   68MOL   H35625950   7.862   7.052   1.744  0.8745  2.4744 -1.2658
   68MOL   H35725951   8.118   7.188   1.787 -0.7021 -1.5146 -1.1379
   68MOL   H35825952   8.012   7.248   1.914  0.7354  0.1260 -0.0705
   68MOL   H35925953   8.092   7.126   1.564  0.8956  1.3543  0.9491
   68MOL   H36025954   8.150   7.198   1.340 -0.5111 -1.6335  1.1404
   68MOL   H36125955   8.033   7.390   1.235  0.0071 -0.0429  0.3882
   68MOL   H36225956   7.908   7.546   1.368 -1.1529 -0.7004 -0.7397
   68MOL   C36325957   7.861   7.538   1.642 -0.0332  0.2335 -0.1344
   68MOL   C36425958   7.925   7.610   1.752  0.0240  0.1538 -0.0459
   68MOL   O36525959   7.912   7.674   1.627  0.6270 -0.3146 -0.2254
   68MOL   C36625960   8.064   7.569   1.808 -0.4659  0.9044  0.5884
   68MOL   O36725961   8.095   7.646   1.926 -0.4493  0.0916  0.5898
   68MOL   C36825962   8.145   7.771   1.913  0.4606 -0.1018 -0.3196
   68MOL   C36925963   0.019   7.833   2.032 -0.2037  0.2786  0.0738
   68MOL   C37025964   0.085   7.958   2.026  0.0729 -0.5008  0.0342
   68MOL   C37125965   0.086   8.027   1.904 -0.4179 -0.7464  1.1346
   68MOL   C37225966   0.029   7.971   1.789 -0.1714  0.9538  0.5264
   68MOL   C37325967   8.150   7.839   1.788 -0.0367  0.1123  0.4083
   68MOL   H37425968   7.753   7.534   1.636  0.0680 -1.4592 -0.9968
   68MOL   H37525969   7.861   7.640   1.834  2.0127  2.0063  0.8916
   68MOL   H37625970   8.131   7.567   1.722 -0.9391 -2.2197  0.1998
   68MOL   H37725971   8.066   7.469   1.853  3.8904  0.8778  0.4921
   68MOL   H37825972   0.004   7.790   2.130 -0.8652  0.9104  0.2602
   68MOL   H37925973   0.130   7.990   2.118  0.0463 -0.7485  0.1320
   68MOL   H38025974   0.129   8.126   1.898  1.7690 -1.7949 -1.8133
   68MOL   H38125975   0.038   8.022   1.694  0.8875  0.2857  0.2499
   68MOL   H38225976   8.116   7.789   1.699 -1.5036 -2.8288  2.5085
   69MOL     C125977   4.179   1.270   1.448 -0.2757 -0.8547  0.1421
   69MOL     C225978   4.239   1.236   1.576 -0.3978  0.0069 -0.1858
   69MOL     O325979   4.289   1.177   1.460  0.2996 -0.0532 -0.0734
   69MOL     C425980   4.163   1.150   1.676  0.5316 -0.4270 -0.3592
   69MOL     O525981   4.236   1.119   1.791 -1.0244 -0.0732 -0.5264
   69MOL     C625982   4.331   1.021   1.786  0.6250 -0.5778  0.4910
   69MOL     C725983   4.359   0.940   1.674 -0.0273  0.2929 -0.6498
   69MOL     C825984   4.451   0.837   1.675  0.0937  0.2887  0.1343
   69MOL     C925985   4.535   0.818   1.789 -0.1976  0.0513  0.0242
   69MOL    C1025986   4.518   0.906   1.894  0.1853 -1.1251 -0.1519
   69MOL    C1125987   4.411   0.992   1.900  0.3304  1.7046 -0.4717
   69MOL    H1225988   4.204   1.370   1.413  0.4009 -0.1526  2.5422
   69MOL    H1325989   4.301   1.317   1.614 -1.7381  0.4748  1.0622
   69MOL    H1425990   4.117   1.061   1.635  0.3331 -0.8769  0.8278
   69MOL    H1525991   4.080   1.207   1.719 -0.1422 -1.6220 -0.0520
   69MOL    H1625992   4.313   0.962   1.579  0.4702  0.9714 -0.7444
   69MOL    H1725993   4.467   0.771   1.592  1.6972 -1.7713  2.0151
   69MOL    H1825994   4.611   0.742   1.780 -2.1355 -2.1500  1.6675
   69MOL    H1925995   4.589   0.901   1.975 -0.0698  0.5746  0.1863
   69MOL    H2025996   4.087   1.221   1.417 -0.4773 -1.1464  1.1852
   69MOL    C2125997   4.386   1.068   2.024 -0.1281 -0.1793 -0.0437
   69MOL    C2225998   4.282   1.031   2.130 -0.5362  0.2281  0.4294
   69MOL    O2325999   4.421   1.007   2.145 -0.3359 -0.2016 -0.3461
   69MOL    C2426000   4.186   0.922   2.118 -0.2765 -0.2159  0.4275
   69MOL    O2526001   4.064   0.948   2.045 -0.1781  0.2383  0.0966
   69MOL    C2626002   3.968   0.849   2.046 -0.1136 -0.1765 -0.4295
   69MOL    C2726003   3.985   0.725   2.121 -0.6464 -0.2440  0.3128
   69MOL    C2826004   3.884   0.630   2.124 -0.2730 -0.2426 -0.1916
   69MOL    C2926005   3.765   0.659   2.059 -1.0100 -0.0852 -0.3493
   69MOL    C3026006   3.739   0.776   1.990  0.1654 -0.5113  0.1102
   69MOL    C3126007   3.849   0.865   1.971 -0.3156  0.1069 -0.0617
   69MOL    H3226008   4.442   1.162   2.020  1.2785 -0.9141  1.6470
   69MOL    H3326009   4.241   1.112   2.190 -0.0998  0.0965  0.9136
   69MOL    H3426010   4.162   0.889   2.219  0.3117 -1.9088  0.0378
   69MOL    H3526011   4.245   0.839   2.078  0.8865  0.3734  0.8901
   69MOL    H3626012   4.081   0.698   2.162 -1.7375 -0.7927  2.5670
   69MOL    H3726013   3.898   0.534   2.170 -2.9096 -1.0305 -0.9412
   69MOL    H3826014   3.679   0.594   2.054 -0.8030 -0.2874 -1.7000
   69MOL    H3926015   3.641   0.789   1.946 -1.0103  0.7900  2.9947
   69MOL    C4026016   3.823   0.986   1.886  0.8674 -0.1396 -0.0773
   69MOL    C4126017   3.868   0.991   1.743 -0.1113  0.4099  0.4408
   69MOL    O4226018   3.731   0.953   1.782 -0.0775  0.3811  0.1793
   69MOL    C4326019   3.942   0.870   1.681  0.1072  0.3487  0.5527
   69MOL    O4426020   3.974   0.880   1.543  0.5192  0.0421  0.4492
   69MOL    C4526021   3.886   0.837   1.447  0.3974  0.5766  0.7468
   69MOL    C4626022   3.753   0.791   1.463  0.0395 -0.0788  0.0717
   69MOL    C4726023   3.673   0.749   1.354  0.5043 -1.1148  0.6460
   69MOL    C4826024   3.724   0.762   1.227 -0.5764  0.3469 -0.5705
   69MOL    C4926025   3.854   0.804   1.202 -0.3441 -0.4229  0.9296
   69MOL    C5026026   3.933   0.845   1.312 -0.3118  0.2915  0.9051
   69MOL    H5126027   3.812   1.081   1.939 -0.0048 -0.4457  0.3023
   69MOL    H5226028   3.871   1.079   1.679 -0.2702 -1.5407 -2.3656
   69MOL    H5326029   3.883   0.780   1.692  2.2091 -1.0774  0.4820
   69MOL    H5426030   4.035   0.848   1.735  0.2548  0.8517  0.5084
   69MOL    H5526031   3.708   0.786   1.561  0.7542 -1.2218  0.3600
   69MOL    H5626032   3.571   0.716   1.367 -0.3111  2.1523  3.0826
   69MOL    H5726033   3.663   0.744   1.140 -0.1814 -1.1613 -0.5400
   69MOL    H5826034   3.882   0.813   1.098 -0.9376 -1.2477  0.6938
   69MOL    C5926035   4.077   0.889   1.295 -0.2220  0.2838  0.0766
   69MOL    C6026036   4.190   0.792   1.284 -1.0873  0.0468 -0.6570
   69MOL    O6126037   4.134   0.854   1.166  0.7176  0.4625  0.3090
   69MOL    C6226038   4.179   0.638   1.305 -0.9638 -0.1740  0.2062
   69MOL    O6326039   4.304   0.581   1.299 -0.0625  0.8361 -0.4417
   69MOL    C6426040   4.308   0.442   1.295 -0.4252  0.0175  0.1616
   69MOL    C6526041   4.200   0.367   1.336  0.2266 -0.7230  0.2035
   69MOL    C6626042   4.202   0.227   1.327 -0.1100 -0.1758  0.6278
   69MOL    C6726043   4.319   0.166   1.272 -0.5274 -0.2357 -0.0819
   69MOL    C6826044   4.430   0.249   1.228 -0.5374  0.7296  0.3468
   69MOL    C6926045   4.430   0.387   1.246 -0.3073  0.0532  0.0516
   69MOL    H7026046   4.098   0.991   1.326  1.5090 -0.5780  1.9327
   69MOL    H7126047   4.278   0.843   1.323 -0.1514 -0.5485 -1.9913
   69MOL    H7226048   4.102   0.603   1.238 -1.1909  0.7867 -0.0476
   69MOL    H7326049   4.145   0.623   1.408 -0.2102 -2.8725  0.0895
   69MOL    H7426050   4.107   0.409   1.373  0.3322 -0.5922  0.3219
   69MOL    H7526051   4.116   0.178   1.371  0.3496 -0.5933  1.0699
   69MOL    H7626052   4.328   0.059   1.266  2.2905  0.0097 -0.8575
   69MOL    H7726053   4.517   0.204   1.183 -2.7373 -0.7359 -2.5532
   69MOL    C7826054   4.544   0.473   1.201  0.6345  0.0900  0.9321
   69MOL    C7926055   4.645   0.545   1.286 -0.2938  0.2691  0.4714
   69MOL    O8026056   4.669   0.416   1.235  0.2739  0.4201 -0.0486
   69MOL    C8126057   4.643   0.535   1.437  1.0622  0.0920 -0.1006
   69MOL    O8226058   4.764   0.579   1.494  0.1256  0.0736 -0.1521
   69MOL    C8326059   4.769   0.587   1.630 -0.7282 -0.0551 -0.3747
   69MOL    C8426060   4.704   0.488   1.709  0.4858 -0.0993 -0.0421
   69MOL    C8526061   4.699   0.502   1.847  0.2761  0.8593  0.3461
   69MOL    C8626062   4.781   0.594   1.908 -0.4813 -0.4549  0.0687
   69MOL    C8726063   4.857   0.682   1.827  0.5366  0.1899  0.4763
   69MOL    C8826064   4.849   0.678   1.689 -1.0241 -0.1177  0.1176
   69MOL    H8926065   4.537   0.492   1.095 -1.1610 -3.6450  0.3301
   69MOL    H9026066   4.704   0.621   1.235 -1.1197 -0.5339 -1.7499
   69MOL    H9126067   4.632   0.427   1.453  1.7308 -0.0939 -0.8327
   69MOL    H9226068   4.559   0.588   1.481  1.6922  0.6862  0.4004
   69MOL    H9326069   4.657   0.404   1.660  2.1676 -1.5586  0.8249
   69MOL    H9426070   4.640   0.442   1.914 -2.1021  0.8508 -1.6826
   69MOL    H9526071   4.787   0.596   2.016  0.0040  0.9050  0.0187
   69MOL    H9626072   4.915   0.761   1.873 -1.5136  1.3359  1.1280
   69MOL    C9726073   4.949   0.755   1.598  0.8734  0.5137 -0.1004
   69MOL    C9826074   4.937   0.902   1.571 -0.5896 -0.5156 -1.1089
   69MOL    O9926075   5.026   0.852   1.675 -0.3956 -0.0052  0.2062
   69MOL   C10026076   4.827   0.989   1.633 -0.4236 -0.5287  0.7495
   69MOL   O10126077   4.877   1.121   1.643 -0.4689 -0.4823  0.5350
   69MOL   C10226078   4.789   1.218   1.691 -0.3399 -0.0062 -0.9774
   69MOL   C10326079   4.656   1.189   1.720 -0.0166  0.6219  0.3234
   69MOL   C10426080   4.568   1.285   1.765  0.0185 -0.6321  0.0139
   69MOL   C10526081   4.614   1.414   1.771  0.5036 -0.7221  0.1726
   69MOL   C10626082   4.749   1.450   1.747 -1.1863  0.1886  0.0961
   69MOL   C10726083   4.842   1.347   1.715  0.2258  1.0105 -0.0533
   69MOL   H10826084   5.014   0.695   1.536  1.3361  1.5324 -0.6197
   69MOL   H10926085   5.001   0.940   1.491 -0.8458 -0.8397 -1.4735
   69MOL   H11026086   4.801   0.956   1.733 -1.9379 -0.4643  0.3918
   69MOL   H11126087   4.736   0.984   1.572  0.9443  2.9917 -1.7537
   69MOL   H11226088   4.613   1.091   1.708  0.0505  0.4255  1.6445
   69MOL   H11326089   4.463   1.267   1.781  0.4264 -1.4276  1.9822
   69MOL   H11426090   4.545   1.498   1.777  0.4743 -0.5843 -1.8571
   69MOL   H11526091   4.782   1.552   1.761  0.7676 -0.5283  0.8574
   69MOL   C11626092   4.984   1.386   1.692 -0.1873  0.3941 -0.5442
   69MOL   C11726093   5.073   1.374   1.577 -0.2073 -0.1278  0.0958
   69MOL   O11826094   4.991   1.488   1.594  0.5730  0.3632  0.6352
   69MOL   C11926095   5.059   1.290   1.444 -0.3787  0.2747 -0.5582
   69MOL   O12026096   4.922   1.271   1.408 -0.3934  0.5680  0.4094
   69MOL   C12126097   4.891   1.270   1.273  0.0932  0.0794  0.1297
   69MOL   C12226098   4.987   1.255   1.170 -0.2627 -0.3844  0.8002
   69MOL   C12326099   4.955   1.271   1.031 -0.7164  1.0013 -0.0135
   69MOL   C12426100   4.819   1.283   0.991 -0.0931  0.5385 -0.4591
   69MOL   C12526101   4.722   1.282   1.089 -0.1142  0.3757  0.6295
   69MOL   C12626102   4.758   1.277   1.224  0.0765 -0.1202 -0.2588
   69MOL   H12726103   5.036   1.408   1.785 -2.6913 -2.6602  1.7002
   69MOL   H12826104   5.175   1.409   1.594 -0.6021  0.8470  0.4710
   69MOL   H12926105   5.113   1.195   1.450 -0.1547  0.4648  0.4577
   69MOL   H13026106   5.121   1.333   1.366 -0.0244 -1.3621 -1.2148
   69MOL   H13126107   5.092   1.237   1.192  0.1709 -0.0318 -0.8532
   69MOL   H13226108   5.033   1.256   0.958 -1.6865 -1.7571 -0.5425
   69MOL   H13326109   4.781   1.313   0.894  0.4249  2.9572  0.0512
   69MOL   H13426110   4.619   1.304   1.063  0.0694  1.5348  0.8291
   69MOL   C13526111   4.657   1.274   1.330  0.1338 -0.3089 -0.0975
   69MOL   C13626112   4.579   1.392   1.357  0.6398 -0.2622 -0.0708
   69MOL   O13726113   4.524   1.288   1.276  0.0191 -0.2982 -0.1059
   69MOL   C13826114   4.586   1.521   1.276  0.4714  0.6250  0.2650
   69MOL   O13926115   4.510   1.631   1.325  0.4684 -0.2727  0.1129
   69MOL   C14026116   4.589   1.707   1.412  0.2758 -0.0465 -0.0886
   69MOL   C14126117   4.690   1.659   1.496 -0.1986  1.2379 -0.2676
   69MOL   C14226118   4.766   1.746   1.573 -0.0491 -0.2679 -1.3434
   69MOL   C14326119   4.732   1.883   1.582 -0.4723 -0.6652  0.5590
   69MOL   C14426120   4.617   1.928   1.513  0.5705 -0.3642 -0.1224
   69MOL   C14526121   4.544   1.841   1.431 -0.3152 -0.0142 -0.3499
   69MOL   H14626122   4.667   1.196   1.406  4.2997  0.0945 -0.1155
   69MOL   H14726123   4.531   1.389   1.454 -1.2818 -1.2264 -1.0164
   69MOL   H14826124   4.538   1.506   1.180  0.7657 -3.4059  0.6301
   69MOL   H14926125   4.690   1.545   1.253  1.0488 -2.6334 -0.8000
   69MOL   H15026126   4.723   1.557   1.507 -0.0582  1.2377 -0.6877
   69MOL   H15126127   4.854   1.710   1.624 -0.8830 -0.7427 -0.2206
   69MOL   H15226128   4.797   1.944   1.642  0.1279 -3.1376  2.5069
   69MOL   H15326129   4.590   2.030   1.535 -1.6094 -0.7484 -0.9299
   69MOL   C15426130   4.416   1.883   1.379 -0.0550  0.6150 -0.0115
   69MOL   C15526131   4.285   1.829   1.427  0.0037  0.0529 -0.8445
   69MOL   O15626132   4.331   1.968   1.463  0.1809  0.7187 -0.1088
   69MOL   C15726133   4.290   1.724   1.540 -0.0554  0.1941 -0.3131
   69MOL   O15826134   4.161   1.717   1.601 -0.0642  0.5584 -0.0564
   69MOL   C15926135   4.055   1.666   1.540  0.2732 -0.4123 -0.0175
   69MOL   C16026136   4.065   1.595   1.418 -0.2893  0.3659  0.4358
   69MOL   C16126137   3.953   1.538   1.357  0.2609 -0.2074  0.1010
   69MOL   C16226138   3.826   1.555   1.418 -0.0603  0.0650  0.1363
   69MOL   C16326139   3.814   1.627   1.538  0.6249  0.1665  0.2424
   69MOL   C16426140   3.927   1.684   1.601 -0.6397  0.2459 -0.8654
   69MOL   H16526141   4.420   1.925   1.278  0.8680  0.2105 -0.1465
   69MOL   H16626142   4.206   1.823   1.353 -0.8960  0.6713  0.0504
   69MOL   H16726143   4.362   1.753   1.618  1.4518  0.5288 -1.8057
   69MOL   H16826144   4.320   1.622   1.515 -0.9201 -0.3857  0.9684
   69MOL   H16926145   4.161   1.567   1.378 -0.5437 -0.3213  0.2923
   69MOL   H17026146   3.962   1.475   1.269  0.7696 -1.1498  0.8256
   69MOL   H17126147   3.736   1.505   1.385 -0.7715  0.9689  0.6920
   69MOL   H17226148   3.713   1.649   1.567  0.9707  1.4941  0.4795
   69MOL   C17326149   3.891   1.755   1.730 -0.4059  0.4130  0.1448
   69MOL   C17426150   3.943   1.899   1.755  0.6476  0.7281  0.3571
   69MOL   O17526151   3.807   1.865   1.713 -0.1291  0.7050 -0.1611
   69MOL   C17626152   4.029   1.977   1.652 -0.0841  1.0152  0.2465
   69MOL   O17726153   4.036   2.112   1.672  0.2197  0.5682  0.2414
   69MOL   C17826154   3.948   2.199   1.613  0.0077  0.1921 -0.4521
   69MOL   C17926155   3.827   2.163   1.542  0.7679  0.1960  1.0645
   69MOL   C18026156   3.750   2.263   1.484  0.0201  0.0304 -0.1755
   69MOL   C18126157   3.770   2.398   1.513  0.2560 -0.1470  1.1831
   69MOL   C18226158   3.879   2.433   1.600 -0.2387 -0.5956  0.4538
   69MOL   C18326159   3.966   2.334   1.648 -0.0424 -0.5816 -0.1974
   69MOL   H18426160   3.860   1.687   1.809 -1.7095  0.7180 -0.1081
   69MOL   H18526161   3.954   1.936   1.856 -0.1719  0.3830  0.5825
   69MOL   H18626162   4.003   1.951   1.550 -0.5754  0.8269  0.4146
   69MOL   H18726163   4.127   1.940   1.683 -0.7818  1.0141  2.6116
   69MOL   H18826164   3.807   2.061   1.515  0.6595  0.2714  0.8540
   69MOL   H18926165   3.659   2.241   1.430  2.0930  0.1797 -3.8807
   69MOL   H19026166   3.699   2.471   1.478  0.6474  0.2033  1.1014
   69MOL   H19126167   3.903   2.537   1.617 -1.5958 -0.4302  1.4289
   69MOL   C19226168   4.080   2.379   1.741  0.1526 -0.2403  0.8576
   69MOL   C19326169   4.225   2.366   1.715  0.1654 -0.3109  0.6901
   69MOL   O19426170   4.151   2.488   1.692  0.2390 -0.4224 -0.2070
   69MOL   C19526171   4.278   2.296   1.585 -0.4521 -0.4874  0.0943
   69MOL   O19626172   4.405   2.351   1.567  0.5580 -0.0667  0.1931
   69MOL   C19726173   4.444   2.370   1.438  0.0665 -0.6265  0.7718
   69MOL   C19826174   4.555   2.297   1.383 -0.2446 -0.3214 -0.0829
   69MOL   C19926175   4.589   2.319   1.248  0.2500 -0.7888 -0.1347
   69MOL   C20026176   4.525   2.415   1.177  0.3638 -0.1546  0.2204
   69MOL   C20126177   4.422   2.491   1.234  0.2682 -0.6141 -0.5807
   69MOL   C20226178   4.385   2.477   1.366 -0.0261 -0.4457  0.1640
   69MOL   H20326179   4.054   2.393   1.845 -0.8904  1.0487  0.4373
   69MOL   H20426180   4.298   2.391   1.792 -0.4171  1.2223  0.7568
   69MOL   H20526181   4.205   2.312   1.506 -0.5510  0.6910  0.4142
   69MOL   H20626182   4.298   2.194   1.615  3.0105  0.5073  1.4538
   69MOL   H20726183   4.610   2.230   1.447 -1.2327 -0.2183  0.8961
   69MOL   H20826184   4.664   2.262   1.194  0.5307  0.2982 -0.9166
   69MOL   H20926185   4.547   2.426   1.072 -1.8206  0.3764 -0.2103
   69MOL   H21026186   4.372   2.567   1.175 -0.1238  0.2348  0.8440
   69MOL   C21126187   4.273   2.561   1.423 -0.6271  0.2738 -0.3558
   69MOL   C21226188   4.305   2.673   1.528 -0.3741  0.0053 -0.4628
   69MOL   O21326189   4.275   2.699   1.386  0.6221  0.2184  0.1428
   69MOL   C21426190   4.441   2.695   1.584 -0.0652  0.3717 -0.1537
   69MOL   O21526191   4.470   2.828   1.588  0.0732 -0.3655 -0.0483
   69MOL   C21626192   4.601   2.872   1.592 -0.0060  0.9812 -0.0081
   69MOL   C21726193   4.711   2.783   1.625  0.3593 -0.2212  0.6689
   69MOL   C21826194   4.843   2.836   1.618 -0.1976  0.1968  0.3387
   69MOL   C21926195   4.874   2.965   1.589 -0.1612 -0.5438  0.3647
   69MOL   C22026196   4.768   3.048   1.563 -0.7940 -0.4145  0.1805
   69MOL   C22126197   4.631   3.001   1.560  0.2818  1.1042 -0.2469
   69MOL   H22226198   4.172   2.521   1.419 -0.5556 -0.1122  1.4161
   69MOL   H22326199   4.219   2.708   1.585 -0.8883 -0.7347 -0.7672
   69MOL   H22426200   4.513   2.637   1.526  0.8767  0.0600  1.2960
   69MOL   H22526201   4.454   2.646   1.680 -1.4392  1.7678  0.7507
   69MOL   H22626202   4.704   2.683   1.665  0.0927  0.5341  2.5928
   69MOL   H22726203   4.929   2.772   1.636  0.2224  0.6929  0.1155
   69MOL   H22826204   4.976   2.997   1.573 -0.8740  1.2542 -0.7317
   69MOL   H22926205   4.790   3.152   1.543 -1.1521 -0.1172  1.2929
   69MOL   C23026206   4.522   3.099   1.532  0.4323  0.5296 -0.1574
   69MOL   C23126207   4.413   3.132   1.633  0.0832  0.0468  0.0389
   69MOL   O23226208   4.526   3.223   1.602 -0.0150  0.0161  0.5412
   69MOL   C23326209   4.401   3.081   1.774  0.5109 -0.3899 -0.2632
   69MOL   O23426210   4.277   3.123   1.837 -0.7701  0.6308 -0.0355
   69MOL   C23526211   4.155   3.058   1.810  0.2744 -0.3082  0.0723
   69MOL   C23626212   4.137   2.983   1.693 -0.7305 -0.0610  0.1403
   69MOL   C23726213   4.019   2.913   1.678  0.1206  0.7607  0.1059
   69MOL   C23826214   3.910   2.927   1.765  0.6389  1.4380 -0.3290
   69MOL   C23926215   3.930   2.991   1.889  0.8602 -0.4780  0.3168
   69MOL   C24026216   4.051   3.058   1.914 -0.5606 -0.0553  0.2057
   69MOL   H24126217   4.476   3.091   1.434  0.5121  1.8461 -0.3160
   69MOL   H24226218   4.315   3.144   1.587 -0.5737 -0.9002  1.1426
   69MOL   H24326219   4.488   3.111   1.832  0.2991  2.8931 -1.5145
   69MOL   H24426220   4.412   2.973   1.765  2.2069 -0.3663  1.2174
   69MOL   H24526221   4.218   2.968   1.624 -1.1224  0.1304 -0.3671
   69MOL   H24626222   4.000   2.863   1.584 -0.3791  2.0720 -0.5158
   69MOL   H24726223   3.821   2.871   1.740  1.2440 -0.4321  1.5582
   69MOL   H24826224   3.847   2.989   1.958 -0.0957 -0.7787 -0.8416
   69MOL   C24926225   4.084   3.126   2.046 -0.3666  0.0722 -0.1260
   69MOL   C25026226   4.046   3.067   2.180 -0.5267  0.5960 -0.0489
   69MOL   O25126227   4.179   3.053   2.124  0.4579 -1.4650 -0.5412
   69MOL   C25226228   3.969   2.939   2.209 -0.0924 -0.5723 -0.4612
   69MOL   O25326229   3.978   2.911   2.348 -0.0955 -0.1698 -0.1355
   69MOL   C25426230   4.095   2.882   2.408 -0.0305  0.3285  0.0444
   69MOL   C25526231   4.199   2.806   2.344  0.0123 -0.1978 -0.1318
   69MOL   C25626232   4.317   2.786   2.423 -0.4474 -0.0581  0.2087
   69MOL   C25726233   4.329   2.828   2.554  0.2768  0.4785 -0.0920
   69MOL   C25826234   4.224   2.884   2.620  0.0115  0.6085  0.2500
   69MOL   C25926235   4.104   2.915   2.551 -0.5393  0.1491  0.3206
   69MOL   H26026236   4.109   3.231   2.033 -0.3358 -0.0250 -0.8608
   69MOL   H26126237   4.018   3.152   2.241 -0.0675 -0.1048  1.1635
   69MOL   H26226238   3.995   2.852   2.149  2.4242  0.5602 -1.0961
   69MOL   H26326239   3.862   2.951   2.191  0.1238  0.3319 -1.1845
   69MOL   H26426240   4.202   2.768   2.243  4.6150 -1.1908  0.2845
   69MOL   H26526241   4.388   2.728   2.367  1.6569  3.5123 -1.0297
   69MOL   H26626242   4.425   2.813   2.602 -1.1059 -2.0072  2.0027
   69MOL   H26726243   4.239   2.903   2.725 -0.0576  1.0824  0.1763
   69MOL   C26826244   3.992   2.991   2.611 -0.2247 -0.5088  0.1070
   69MOL   C26926245   3.903   2.929   2.717  0.2892 -0.4257  0.2869
   69MOL   O27026246   4.002   3.027   2.747 -0.0182  0.1949 -0.3131
   69MOL   C27126247   3.920   2.784   2.774 -0.5116 -0.0505 -0.1106
   69MOL   O27226248   3.817   2.707   2.723  0.5750  0.0057  0.3424
   69MOL   C27326249   3.840   2.640   2.603  0.2410 -0.5103  0.7785
   69MOL   C27426250   3.968   2.602   2.553  0.0054  0.3522  0.7165
   69MOL   C27526251   3.982   2.521   2.435 -0.4532 -0.3783 -0.2202
   69MOL   C27626252   3.867   2.476   2.363  0.1119 -0.3274 -0.7945
   69MOL   C27726253   3.739   2.509   2.420  0.3387  0.5478 -0.2448
   69MOL   C27826254   3.725   2.585   2.538 -0.1725 -0.4394  0.4957
   69MOL   H27926255   3.962   3.074   2.548 -2.1566  0.3419  2.0781
   69MOL   H28026256   3.804   2.963   2.746  1.4299  2.1445  1.2995
   69MOL   H28126257   3.901   2.795   2.881 -2.9657  1.4695 -0.6474
   69MOL   H28226258   4.021   2.746   2.761 -0.8850 -0.7974 -0.8262
   69MOL   H28326259   4.062   2.645   2.585 -0.2079  2.3463 -1.2328
   69MOL   H28426260   4.082   2.494   2.405 -0.0144  0.8719  0.0939
   69MOL   H28526261   3.862   2.402   2.284 -0.4628  0.5737 -1.6171
   69MOL   H28626262   3.650   2.466   2.379  1.3598 -1.1477 -0.7140
   69MOL   C28726263   3.589   2.617   2.594  0.2188  1.1087  0.0666
   69MOL   C28826264   3.520   2.751   2.593  0.4909 -0.1030 -0.0385
   69MOL   O28926265   3.491   2.644   2.499 -0.0274 -0.5185  0.4579
   69MOL   C29026266   3.589   2.877   2.532  0.1217 -0.3542  0.0047
   69MOL   O29126267   3.485   2.971   2.496 -0.0887  0.7308  0.1438
   69MOL   C29226268   3.541   3.092   2.444  0.7377  0.2431  0.1338
   69MOL   C29326269   3.678   3.111   2.410 -0.2719  0.5313 -0.2367
   69MOL   C29426270   3.710   3.225   2.338 -0.4748  0.2407 -0.8675
   69MOL   C29526271   3.616   3.312   2.286  0.2537 -0.0808 -0.0117
   69MOL   C29626272   3.482   3.302   2.329 -0.2840 -0.6308 -0.4908
   69MOL   C29726273   3.446   3.198   2.413 -0.0257 -0.3663  0.2977
   69MOL   H29826274   3.558   2.546   2.670  0.1485  0.7923 -0.2509
   69MOL   H29926275   3.451   2.763   2.676  1.0147 -1.2602  0.5834
   69MOL   H30026276   3.651   2.843   2.449  1.0376  2.1303 -0.3491
   69MOL   H30126277   3.647   2.926   2.610  0.3966  0.3919 -0.6736
   69MOL   H30226278   3.756   3.039   2.430  0.1929  0.8134 -1.0065
   69MOL   H30326279   3.812   3.245   2.308  0.2044  0.8888  1.7186
   69MOL   H30426280   3.649   3.387   2.216  0.4106 -0.2286 -0.0956
   69MOL   H30526281   3.404   3.367   2.290 -0.6666  0.2982  1.7508
   69MOL   C30626282   3.300   3.181   2.455  0.8008  0.8420  0.5936
   69MOL   C30726283   3.219   3.269   2.548  0.5669  0.7940  0.0243
   69MOL   O30826284   3.220   3.280   2.402 -0.3535 -0.4922  0.3110
   69MOL   C30926285   3.272   3.372   2.636  0.2968  0.3305  0.7206
   69MOL   O31026286   3.198   3.488   2.644  0.2713  0.2896  0.2001
   69MOL   C31126287   3.199   3.568   2.759 -0.3237  0.1436  0.6158
   69MOL   C31226288   3.290   3.549   2.864  0.3430  0.2718 -0.3675
   69MOL   C31326289   3.305   3.631   2.975 -0.0260 -0.2637  0.3115
   69MOL   C31426290   3.216   3.738   2.979 -0.5141  0.6511 -0.3300
   69MOL   C31526291   3.114   3.761   2.883  0.2839  0.5424  0.3948
   69MOL   C31626292   3.111   3.681   2.764  0.1069  0.1215  0.5749
   69MOL   H31726293   3.261   3.080   2.450 -0.6438  1.4161  0.0602
   69MOL   H31826294   3.125   3.233   2.588 -0.0279  0.4438 -1.6558
   69MOL   H31926295   3.379   3.384   2.617  0.8037 -2.2163  1.7013
   69MOL   H32026296   3.273   3.326   2.735  1.0671  2.8229  1.9040
   69MOL   H32126297   3.349   3.458   2.864 -2.2892 -1.5092 -2.1619
   69MOL   H32226298   3.380   3.616   3.051 -0.5412  0.7178  1.0383
   69MOL   H32326299   3.216   3.804   3.065 -1.7023 -0.8841  0.8750
   69MOL   H32426300   3.052   3.849   2.896  0.4085  1.1434 -2.7982
   69MOL   C32526301   3.027   3.712   2.643  0.0487  0.1957 -0.2219
   69MOL   C32626302   2.877   3.723   2.645  0.0863 -0.4627  0.2138
   69MOL   O32726303   2.959   3.841   2.648 -0.2222  0.2264  0.2417
   69MOL   C32826304   2.803   3.705   2.778 -0.7371 -0.1070 -0.5304
   69MOL   O32926305   2.672   3.744   2.753 -0.3960  0.1217  0.0317
   69MOL   C33026306   2.602   3.793   2.860  0.3451  0.1398  1.0391
   69MOL   C33126307   2.600   3.735   2.989  0.0709  0.4013  0.8147
   69MOL   C33226308   2.524   3.788   3.097 -0.0836  0.3479  0.1709
   69MOL   C33326309   2.432   3.892   3.068  0.1962 -0.4259  0.6085
   69MOL   C33426310   2.418   3.939   2.938 -1.0338 -0.1881  0.9174
   69MOL   C33526311   2.503   3.893   2.830  0.6516  0.2268 -0.2463
   69MOL   H33626312   3.074   3.694   2.547 -1.2198  0.6505 -0.9312
   69MOL   H33726313   2.821   3.704   2.554  0.1866 -0.1464  0.0861
   69MOL   H33826314   2.854   3.766   2.851  1.5435 -0.5996 -1.6554
   69MOL   H33926315   2.785   3.601   2.808 -1.2304  0.7385  2.2142
   69MOL   H34026316   2.669   3.654   3.009 -2.1942 -2.0036 -0.8373
   69MOL   H34126317   2.541   3.762   3.200  0.0612  1.1521  0.3483
   69MOL   H34226318   2.353   3.921   3.135 -0.3772 -1.5201  0.4240
   69MOL   H34326319   2.338   4.011   2.927 -1.1030  0.1385  3.2539
   69MOL   C34426320   2.479   3.949   2.695 -0.2445  0.2117 -0.3072
   69MOL   C34526321   2.416   3.854   2.602 -0.2237 -0.3599  0.7799
   69MOL   O34626322   2.335   3.960   2.662 -0.3215  0.0431  0.2281
   69MOL   C34726323   2.379   3.719   2.633  0.6680  0.4881 -0.4286
   69MOL   O34826324   2.298   3.660   2.531  0.0628  0.1714  0.4828
   69MOL   C34926325   2.358   3.613   2.414 -0.4212 -0.6432  0.3841
   69MOL   C35026326   2.493   3.587   2.396 -0.3515  0.3776 -0.2972
   69MOL   C35126327   2.547   3.560   2.273 -0.4263  0.7646 -0.4807
   69MOL   C35226328   2.459   3.535   2.165 -0.4331 -0.3050  0.2248
   69MOL   C35326329   2.319   3.554   2.189 -0.4170 -0.8800  0.0483
   69MOL   C35426330   2.265   3.606   2.310  0.4712  0.6642 -0.1911
   69MOL   H35526331   2.545   4.030   2.662 -0.8922  0.9948  0.3015
   69MOL   H35626332   2.455   3.864   2.502  2.7348 -0.2793  1.9051
   69MOL   H35726333   2.315   3.713   2.722  0.3788 -1.8795 -0.7453
   69MOL   H35826334   2.469   3.661   2.651  0.3254 -0.3990 -1.5515
   69MOL   H35926335   2.558   3.575   2.482  0.3122  0.7778 -0.7445
   69MOL   H36026336   2.651   3.534   2.260 -0.6846  0.3161 -1.8017
   69MOL   H36126337   2.492   3.498   2.069  0.3339 -0.7798  0.6648
   69MOL   H36226338   2.250   3.530   2.110  0.1864  0.7127 -0.9931
   69MOL   C36326339   2.114   3.623   2.326 -0.1049 -0.2196 -0.4069
   69MOL   C36426340   2.059   3.761   2.334 -0.2767  0.5267 -0.5604
   69MOL   O36526341   2.048   3.681   2.214 -0.3733  0.2306  0.0950
   69MOL   C36626342   2.128   3.891   2.301  0.1946  0.3831  0.3206
   69MOL   O36726343   2.052   3.981   2.220 -0.0371 -0.1777 -0.4245
   69MOL   C36826344   1.962   4.072   2.277  0.1264  0.2273 -0.3593
   69MOL   C36926345   1.923   4.181   2.194  0.3921  0.1446  0.0564
   69MOL   C37026346   1.824   4.266   2.237  0.0690 -0.8843 -0.2359
   69MOL   C37126347   1.785   4.262   2.373  0.6699 -0.1467  0.0861
   69MOL   C37226348   1.832   4.164   2.461  0.2912  0.6362 -1.0370
   69MOL   C37326349   1.915   4.060   2.411  0.1311 -0.5350  0.2406
   69MOL   H37426350   2.064   3.538   2.372 -1.3799 -0.5005 -2.2562
   69MOL   H37526351   1.957   3.779   2.367  0.1092  1.0744  0.3408
   69MOL   H37626352   2.227   3.867   2.260 -0.6360 -0.6090 -1.1517
   69MOL   H37726353   2.149   3.946   2.393  2.2011  2.2534 -1.1781
   69MOL   H37826354   1.961   4.188   2.093  1.2966  0.7936  0.4399
   69MOL   H37926355   1.813   4.354   2.174 -0.3943 -0.5271  0.3392
   69MOL   H38026356   1.719   4.338   2.411  0.8044 -0.1232  0.2740
   69MOL   H38126357   1.805   4.163   2.566 -1.0140  1.4086 -1.3559
   69MOL   H38226358   1.948   3.983   2.479  1.3188  1.4629  2.0204
   70MOL     C126359   2.385   2.942   6.227  0.3909  0.2554  0.2529
   70MOL     C226360   2.522   2.962   6.166 -0.0944 -0.4489 -0.6854
   70MOL     O326361   2.412   2.893   6.097 -0.0768 -0.0222  0.1520
   70MOL     C426362   2.649   2.872   6.192 -0.2585  0.3757 -0.1227
   70MOL     O526363   2.632   2.803   6.311  0.2187  0.2421  0.1242
   70MOL     C626364   2.706   2.846   6.416 -1.1360 -0.6193  0.7496
   70MOL     C726365   2.713   2.985   6.437 -0.3811  0.0139 -0.1699
   70MOL     C826366   2.791   3.042   6.540 -0.2332 -0.1842 -0.3349
   70MOL     C926367   2.861   2.957   6.623  0.6044  0.7434  0.7899
   70MOL    C1026368   2.857   2.816   6.601 -0.5599  0.2011 -0.0510
   70MOL    C1126369   2.777   2.762   6.502  1.0020 -0.0370 -0.2458
   70MOL    H1226370   2.312   3.021   6.232  0.7649  0.5698  0.7917
   70MOL    H1326371   2.542   3.057   6.116 -2.1268  0.1742 -0.3731
   70MOL    H1426372   2.739   2.933   6.189  1.6464 -2.4431 -1.6733
   70MOL    H1526373   2.648   2.804   6.107 -0.3441 -0.8268  0.8281
   70MOL    H1626374   2.655   3.051   6.375 -2.3804 -1.4126  0.1531
   70MOL    H1726375   2.798   3.150   6.551 -1.4352 -0.2235  0.9718
   70MOL    H1826376   2.928   3.009   6.689  0.5256  1.9777 -0.0932
   70MOL    H1926377   2.919   2.750   6.661 -1.4984 -0.0925  0.6016
   70MOL    H2026378   2.372   2.869   6.308 -1.3936  0.1925 -0.0778
   70MOL    C2126379   2.769   2.613   6.494  0.4445  0.2803  0.3359
   70MOL    C2226380   2.868   2.525   6.425  0.1739  0.5373 -0.1242
   70MOL    O2326381   2.863   2.538   6.571 -0.3808  0.2609 -0.5949
   70MOL    C2426382   3.001   2.565   6.367 -0.7618  0.0864  0.3788
   70MOL    O2526383   3.059   2.435   6.341 -0.4864  0.6791  0.4065
   70MOL    C2626384   3.178   2.432   6.272 -0.0829  0.4200  0.0287
   70MOL    C2726385   3.251   2.549   6.240 -0.4688  0.2184 -0.3417
   70MOL    C2826386   3.380   2.542   6.179  0.1694  0.1153  0.0217
   70MOL    C2926387   3.427   2.420   6.140  0.4695  0.4191  0.1750
   70MOL    C3026388   3.354   2.303   6.166 -0.5448 -0.2444 -0.3342
   70MOL    C3126389   3.232   2.307   6.230  0.3057 -0.0253 -0.3656
   70MOL    H3226390   2.666   2.577   6.502  0.2772  0.4120 -1.0423
   70MOL    H3326391   2.829   2.431   6.387  1.0797  0.2785 -0.4148
   70MOL    H3426392   3.063   2.615   6.441  0.0031 -1.5200  0.8518
   70MOL    H3526393   2.985   2.618   6.273  0.8036 -0.6861 -0.3532
   70MOL    H3626394   3.224   2.650   6.267 -2.3691  0.2108 -2.1064
   70MOL    H3726395   3.452   2.621   6.167  0.7310 -0.6902 -2.2110
   70MOL    H3826396   3.520   2.419   6.086  0.1458  0.5764 -0.3929
   70MOL    H3926397   3.395   2.212   6.125  1.7395  1.3613 -1.7376
   70MOL    C4026398   3.160   2.175   6.256 -0.3299  0.0088  0.0240
   70MOL    C4126399   3.113   2.080   6.149  0.5668  0.4685 -0.2241
   70MOL    O4226400   3.238   2.059   6.217  0.0817  0.8494 -0.4528
   70MOL    C4326401   3.121   2.102   6.002  0.4896 -0.5146  0.4813
   70MOL    O4426402   2.992   2.103   5.936 -0.7375  0.1003  0.1828
   70MOL    C4526403   2.925   2.214   5.965  0.1247 -0.3024  0.4110
   70MOL    C4626404   2.985   2.342   6.005  0.5956  0.1323 -0.1377
   70MOL    C4726405   2.902   2.450   6.052  0.9302 -0.1061  0.1253
   70MOL    C4826406   2.763   2.429   6.048 -1.1209  0.1144  0.4202
   70MOL    C4926407   2.706   2.318   5.988 -0.5426 -0.3953  0.0983
   70MOL    C5026408   2.789   2.205   5.945 -0.0856  0.1922 -0.3035
   70MOL    H5126409   3.109   2.172   6.352 -0.6928  1.8078 -0.0858
   70MOL    H5226410   3.038   2.006   6.176 -0.2328  1.6622  0.9007
   70MOL    H5326411   3.179   2.014   5.973 -0.6908 -0.0791 -3.5296
   70MOL    H5426412   3.193   2.180   5.979  0.4617 -0.6610 -0.1132
   70MOL    H5526413   3.091   2.359   6.008  0.5888  0.0725  0.4901
   70MOL    H5626414   2.930   2.547   6.090  1.1391 -0.8821  2.0003
   70MOL    H5726415   2.693   2.503   6.086 -3.4604 -0.2596 -2.9610
   70MOL    H5826416   2.599   2.309   5.978 -0.4090 -0.8571 -0.9425
   70MOL    C5926417   2.719   2.096   5.865  0.2616  0.5616  0.6506
   70MOL    C6026418   2.704   1.960   5.929 -0.3059  0.4645  0.5466
   70MOL    O6126419   2.597   2.052   5.932  0.1075  0.5764  0.1644
   70MOL    C6226420   2.778   1.923   6.050  0.2521 -0.4411 -0.5530
   70MOL    O6326421   2.763   1.786   6.096 -0.5960 -0.3745 -0.1798
   70MOL    C6426422   2.660   1.758   6.183  0.4910  0.4349 -0.2109
   70MOL    C6526423   2.538   1.829   6.176  0.2641 -0.3235  0.0199
   70MOL    C6626424   2.436   1.804   6.268  0.6411 -0.1817 -0.1216
   70MOL    C6726425   2.456   1.707   6.372 -0.2147 -0.1834  0.2926
   70MOL    C6826426   2.579   1.640   6.374  0.5930  0.6545  0.0989
   70MOL    C6926427   2.679   1.662   6.279  0.3843 -0.0148 -0.5116
   70MOL    H7026428   2.704   2.122   5.760 -1.0809  0.9959  0.9342
   70MOL    H7126429   2.683   1.872   5.868  0.2436  1.2865 -0.8547
   70MOL    H7226430   2.770   2.001   6.125 -0.7357 -0.8250 -0.2575
   70MOL    H7326431   2.882   1.924   6.016 -0.3129 -0.7885 -2.3474
   70MOL    H7426432   2.527   1.905   6.101 -5.1084  0.5667  1.5538
   70MOL    H7526433   2.345   1.862   6.262  0.5814 -0.3040 -0.4118
   70MOL    H7626434   2.389   1.695   6.455  2.0036 -0.3023  2.1175
   70MOL    H7726435   2.601   1.564   6.448  1.2404 -0.5785 -1.3424
   70MOL    C7826436   2.797   1.569   6.286 -0.5003  0.3191  0.1857
   70MOL    C7926437   2.932   1.602   6.347  0.5222 -0.3404  1.1102
   70MOL    O8026438   2.829   1.532   6.422 -0.0626  0.4909  0.2458
   70MOL    C8126439   2.965   1.741   6.393  0.7878  0.4784  0.0329
   70MOL    O8226440   3.031   1.740   6.519 -0.0019 -0.4910  0.4421
   70MOL    C8326441   3.152   1.679   6.528 -0.0404 -0.0870  0.5878
   70MOL    C8426442   3.245   1.672   6.415  0.3002 -0.4018 -0.2656
   70MOL    C8526443   3.379   1.646   6.445  0.5943 -0.8552  0.4117
   70MOL    C8626444   3.422   1.615   6.571  0.3371  0.7316  0.5270
   70MOL    C8726445   3.330   1.610   6.680 -0.0253  0.3510 -0.3778
   70MOL    C8826446   3.193   1.641   6.660 -0.1954  0.1678 -0.4777
   70MOL    H8926447   2.784   1.493   6.208 -0.9607  2.0440 -1.4571
   70MOL    H9026448   3.015   1.535   6.324  0.8496  0.7865 -1.1920
   70MOL    H9126449   2.879   1.803   6.416 -0.4095 -0.7874 -0.9808
   70MOL    H9226450   3.023   1.800   6.321  0.3957  2.0748  1.0140
   70MOL    H9326451   3.218   1.714   6.319 -1.2270 -0.7341  0.0083
   70MOL    H9426452   3.448   1.654   6.363  0.7233  0.4312  0.6424
   70MOL    H9526453   3.526   1.592   6.591 -0.1109  0.2268  2.2881
   70MOL    H9626454   3.364   1.593   6.781 -2.0946 -1.6536  0.0242
   70MOL    C9726455   3.093   1.653   6.772 -0.2825 -0.0327  0.1305
   70MOL    C9826456   3.001   1.542   6.803  0.3403  0.2543  0.3496
   70MOL    O9926457   3.122   1.565   6.878  0.3524 -0.6377 -0.3163
   70MOL   C10026458   2.999   1.401   6.721  0.2726 -0.4431 -0.9614
   70MOL   O10126459   2.901   1.311   6.774  0.3563  0.0533 -0.6593
   70MOL   C10226460   2.931   1.257   6.896  0.3016 -0.5174  0.4510
   70MOL   C10326461   3.037   1.164   6.907  0.2053  0.1043  0.4248
   70MOL   C10426462   3.066   1.109   7.038 -0.6862 -0.2097  0.5675
   70MOL   C10526463   2.989   1.143   7.142 -0.7380 -0.7927 -0.9929
   70MOL   C10626464   2.872   1.223   7.134 -0.0708  0.6494  0.1201
   70MOL   C10726465   2.839   1.270   7.005 -0.3224 -0.0962 -0.1836
   70MOL   H10826466   3.075   1.754   6.808  2.0195 -0.0447  1.4406
   70MOL   H10926467   2.913   1.582   6.852  0.3781 -0.3029  0.8845
   70MOL   H11026468   3.100   1.361   6.727  0.1976 -0.4631  0.4672
   70MOL   H11126469   2.982   1.416   6.614  1.1895  1.3524 -0.8783
   70MOL   H11226470   3.104   1.144   6.824 -1.1981 -0.8296 -0.4906
   70MOL   H11326471   3.160   1.056   7.040  0.2045  1.1102 -2.8245
   70MOL   H11426472   3.010   1.111   7.243  2.4524  0.2668 -1.2810
   70MOL   H11526473   2.803   1.237   7.216 -1.4838 -0.9691 -0.7601
   70MOL   C11626474   2.719   1.356   6.989  0.2621 -0.2808  0.1990
   70MOL   C11726475   2.585   1.311   6.941  0.5218 -0.2680 -0.0511
   70MOL   O11826476   2.619   1.319   7.081 -0.2493 -0.4590  0.0563
   70MOL   C11926477   2.545   1.166   6.907  0.1223  0.1306 -0.0036
   70MOL   O12026478   2.447   1.172   6.798  0.3690  0.6094 -0.2001
   70MOL   C12126479   2.501   1.208   6.671 -0.4607 -0.7883  1.2934
   70MOL   C12226480   2.635   1.221   6.644 -0.0873 -0.3572  0.0446
   70MOL   C12326481   2.678   1.268   6.518 -0.1674  0.0977  0.7168
   70MOL   C12426482   2.584   1.291   6.413  0.3291  0.3247 -0.0840
   70MOL   C12526483   2.447   1.268   6.436  0.7841  0.4677  0.2827
   70MOL   C12626484   2.407   1.238   6.571  0.0187  0.0911 -0.4205
   70MOL   H12726485   2.753   1.458   7.004  0.2567 -0.0943 -0.9917
   70MOL   H12826486   2.530   1.399   6.908  1.5768  0.0694 -0.8975
   70MOL   H12926487   2.503   1.121   6.998 -0.4095  1.7057  0.5414
   70MOL   H13026488   2.634   1.107   6.885  0.3630  0.2077  0.7269
   70MOL   H13126489   2.709   1.210   6.722  0.3080  1.7599  0.0110
   70MOL   H13226490   2.783   1.274   6.492 -0.3716  0.3241 -0.0749
   70MOL   H13326491   2.629   1.327   6.321  0.6564  0.4920  0.1412
   70MOL   H13426492   2.373   1.277   6.358 -0.0270 -2.0532  0.7250
   70MOL   C13526493   2.254   1.232   6.600  0.5537 -0.4114 -0.3912
   70MOL   C13626494   2.175   1.345   6.649 -0.6323  0.2803  0.1052
   70MOL   O13726495   2.174   1.304   6.510  0.2419  0.6387  0.3216
   70MOL   C13826496   2.221   1.483   6.679 -0.5412  0.0729  0.1461
   70MOL   O13926497   2.253   1.482   6.820  0.0921 -0.4688  0.1462
   70MOL   C14026498   2.158   1.504   6.919 -0.1830 -0.2821  0.4981
   70MOL   C14126499   2.027   1.522   6.881  0.6279  0.3580 -1.1376
   70MOL   C14226500   1.932   1.544   6.978  0.0016  0.7065  0.3936
   70MOL   C14326501   1.960   1.550   7.114  1.8483 -0.0642 -0.1821
   70MOL   C14426502   2.096   1.538   7.153 -0.0087 -0.5180 -0.2441
   70MOL   C14526503   2.198   1.519   7.054  0.7222  0.8983 -1.0376
   70MOL   H14626504   2.229   1.134   6.640 -0.8624 -0.3429 -1.0693
   70MOL   H14726505   2.084   1.320   6.703  0.0084 -0.9775  0.6278
   70MOL   H14826506   2.154   1.565   6.653  2.0521  1.4107 -2.7050
   70MOL   H14926507   2.315   1.496   6.625 -0.9507  1.0896 -0.3344
   70MOL   H15026508   1.996   1.519   6.777 -1.3971 -0.4166 -0.5331
   70MOL   H15126509   1.831   1.553   6.942  0.5968 -0.7698 -1.7014
   70MOL   H15226510   1.880   1.566   7.185  1.3345 -0.2404 -0.7226
   70MOL   H15326511   2.124   1.538   7.257 -3.2218 -0.9186  0.6879
   70MOL   C15426512   2.332   1.497   7.110 -0.8102  0.0903  0.3786
   70MOL   C15526513   2.447   1.589   7.138  0.4516  0.2213  0.3219
   70MOL   O15626514   2.358   1.546   7.238  0.5496 -0.5084 -0.3176
   70MOL   C15726515   2.442   1.739   7.119 -0.1758  0.0698  0.0885
   70MOL   O15826516   2.564   1.796   7.083 -0.3339 -0.1846 -0.3429
   70MOL   C15926517   2.610   1.783   6.948 -0.0885  0.7639 -0.7557
   70MOL   C16026518   2.551   1.704   6.851 -0.0837  0.1089  0.2091
   70MOL   C16126519   2.612   1.681   6.729 -0.1216 -0.8113  0.6926
   70MOL   C16226520   2.724   1.756   6.692  0.2945  0.2313 -0.3700
   70MOL   C16326521   2.776   1.847   6.780 -0.4964  0.5344  0.0855
   70MOL   C16426522   2.723   1.862   6.909  0.8532  0.0082 -0.2186
   70MOL   H16526523   2.365   1.393   7.104 -0.2179  0.3300 -0.7479
   70MOL   H16626524   2.544   1.542   7.151 -0.3056 -1.9653 -1.5527
   70MOL   H16726525   2.423   1.784   7.217  0.9679 -1.4408  1.0213
   70MOL   H16826526   2.370   1.773   7.044 -0.3552  1.9301  1.0761
   70MOL   H16926527   2.463   1.645   6.873 -0.5450  0.1430 -1.4343
   70MOL   H17026528   2.577   1.603   6.663 -1.8702  0.4068  0.1728
   70MOL   H17126529   2.771   1.743   6.596 -1.1553 -1.9596 -0.8278
   70MOL   H17226530   2.861   1.901   6.740 -0.4846  1.4353  1.3306
   70MOL   C17326531   2.782   1.964   6.997 -0.1758 -0.2107 -0.7338
   70MOL   C17426532   2.861   1.932   7.126  0.2120 -0.0812 -0.7061
   70MOL   O17526533   2.925   1.964   7.000  0.0908 -0.2474 -0.0249
   70MOL   C17626534   2.887   1.787   7.166 -0.2306 -0.4394 -0.2624
   70MOL   O17726535   2.795   1.735   7.258  0.3232 -0.1505  0.4402
   70MOL   C17826536   2.834   1.668   7.374 -0.0387  0.3299 -0.0507
   70MOL   C17926537   2.940   1.574   7.368 -0.3001 -0.3660  0.5616
   70MOL   C18026538   2.970   1.504   7.485 -0.4686  0.6360  0.4187
   70MOL   C18126539   2.904   1.523   7.605 -0.1631 -0.2953 -0.8045
   70MOL   C18226540   2.805   1.621   7.612 -0.0598 -0.2267  0.0800
   70MOL   C18326541   2.771   1.694   7.494 -0.0517 -0.9127 -0.2433
   70MOL   H18426542   2.737   2.062   6.983 -0.1006  0.2121  1.7759
   70MOL   H18526543   2.878   2.014   7.196  1.1001 -0.4896 -0.4417
   70MOL   H18626544   2.991   1.785   7.196  0.0499  0.8625 -1.0772
   70MOL   H18726545   2.875   1.723   7.078  0.4419  0.1488 -0.7841
   70MOL   H18826546   2.992   1.546   7.278 -0.5373  0.4435  0.1677
   70MOL   H18926547   3.043   1.425   7.489  0.7727  1.7674  0.7235
   70MOL   H19026548   2.930   1.472   7.696  0.1556 -0.8713 -1.2200
   70MOL   H19126549   2.760   1.652   7.705 -0.2219  0.4966 -0.2322
   70MOL   C19226550   2.658   1.789   7.487 -0.0041 -0.1223 -0.1604
   70MOL   C19326551   2.517   1.750   7.523  0.1981 -0.0740  0.6227
   70MOL   O19426552   2.606   1.815   7.617  0.6071 -0.4261  0.0062
   70MOL   C19526553   2.470   1.613   7.558  0.4428  0.7273  1.0545
   70MOL   O19626554   2.324   1.617   7.569 -0.2349  0.1031  0.4320
   70MOL   C19726555   2.267   1.636   7.696 -0.3176  0.9100 -0.0953
   70MOL   C19826556   2.334   1.699   7.805  0.3197  0.5107 -0.0560
   70MOL   C19926557   2.269   1.725   7.926  0.1850 -0.2856 -0.2062
   70MOL   C20026558   2.138   1.686   7.941  0.3114 -0.5682 -0.4866
   70MOL   C20126559   2.063   1.626   7.838 -0.6458  0.7574 -0.4534
   70MOL   C20226560   2.123   1.605   7.712 -0.1501 -0.3773  0.1829
   70MOL   H20326561   2.674   1.876   7.424 -0.1332 -0.1605 -0.2456
   70MOL   H20426562   2.440   1.821   7.494  0.6369 -0.3635 -1.3196
   70MOL   H20526563   2.524   1.573   7.643  0.1893 -1.2485  0.2955
   70MOL   H20626564   2.486   1.542   7.477 -0.3117 -0.1311  1.6554
   70MOL   H20726565   2.438   1.724   7.792  0.7787 -2.0823 -1.9449
   70MOL   H20826566   2.321   1.771   8.009 -0.8498  0.5981 -0.0328
   70MOL   H20926567   2.079   1.700   8.030  0.6658 -1.0355 -0.1747
   70MOL   H21026568   1.961   1.597   7.863 -0.2434  0.4332  0.8919
   70MOL   C21126569   2.055   1.546   7.595  0.1061 -0.2435 -0.0742
   70MOL   C21226570   2.019   1.401   7.574 -0.2116  0.3192  0.0994
   70MOL   O21326571   1.923   1.499   7.620 -0.4215  0.5025 -0.8028
   70MOL   C21426572   2.054   1.285   7.664 -0.0735  0.0418 -0.1788
   70MOL   O21526573   1.966   1.176   7.624  0.0480  0.0870  0.2570
   70MOL   C21626574   1.955   1.080   7.719 -0.0684 -0.3159 -0.4726
   70MOL   C21726575   2.069   1.010   7.757  0.3286  0.6404  0.6303
   70MOL   C21826576   2.058   0.896   7.837 -0.0899  0.1396 -0.8451
   70MOL   C21926577   1.941   0.864   7.897  0.3728  0.1986 -0.4400
   70MOL   C22026578   1.830   0.945   7.881  0.4681 -0.0928 -0.7213
   70MOL   C22126579   1.830   1.047   7.783 -0.5112 -0.2811 -0.0759
   70MOL   H22226580   2.059   1.605   7.503  2.3756 -0.6101 -0.2322
   70MOL   H22326581   1.998   1.363   7.474  3.1150 -0.0189 -0.5288
   70MOL   H22426582   2.036   1.318   7.767 -0.7550  0.0448 -0.2913
   70MOL   H22526583   2.157   1.252   7.659 -0.5835 -2.0786  2.1952
   70MOL   H22626584   2.167   1.031   7.718  1.0286 -1.5258  1.1427
   70MOL   H22726585   2.150   0.842   7.858 -0.9038 -0.8936  0.0853
   70MOL   H22826586   1.946   0.777   7.961  1.6547 -0.1360 -0.9772
   70MOL   H22926587   1.734   0.915   7.920 -0.3956  2.0736 -1.0781
   70MOL   C23026588   1.706   1.120   7.761  0.2663  0.1907 -0.5686
   70MOL   C23126589   1.621   1.098   7.638  0.2203  0.0731  0.2609
   70MOL   O23226590   1.594   1.025   7.756  0.4003 -0.6133  0.8096
   70MOL   C23326591   1.669   1.017   7.525  0.0061  0.0848 -0.4032
   70MOL   O23426592   1.596   1.052   7.411  0.2898 -0.0506  0.4796
   70MOL   C23526593   1.611   1.180   7.354  0.1259 -0.7406 -0.0398
   70MOL   C23626594   1.710   1.269   7.393  0.3795  0.3567  0.3753
   70MOL   C23726595   1.711   1.397   7.338 -0.2430  0.1274  0.3377
   70MOL   C23826596   1.629   1.425   7.229  0.6182  0.2408  0.0776
   70MOL   C23926597   1.536   1.329   7.180 -0.5525  0.4668  0.1996
   70MOL   C24026598   1.523   1.207   7.248  0.8905  0.0918  0.0705
   70MOL   H24126599   1.688   1.201   7.832  0.6479 -1.6929  1.7292
   70MOL   H24226600   1.560   1.187   7.624  0.3442  0.7912  3.8037
   70MOL   H24326601   1.655   0.914   7.558  2.4742  0.7986  3.1213
   70MOL   H24426602   1.777   1.025   7.507 -0.0533  0.8808 -0.4313
   70MOL   H24526603   1.768   1.256   7.484  0.3483  2.0024  0.6533
   70MOL   H24626604   1.772   1.467   7.393 -0.1878 -1.3891  2.2621
   70MOL   H24726605   1.609   1.520   7.183 -2.8163 -0.6242 -0.3561
   70MOL   H24826606   1.469   1.353   7.099 -1.8201 -0.7050  0.8693
   70MOL   C24926607   1.417   1.106   7.204  0.3716 -0.1475  0.3878
   70MOL   C25026608   1.307   1.058   7.292  0.7353  0.0297 -0.0154
   70MOL   O25126609   1.292   1.180   7.212  0.5213  0.3724  0.0774
   70MOL   C25226610   1.298   1.091   7.440 -0.5017 -0.2661 -0.3669
   70MOL   O25326611   1.155   1.102   7.460  0.1497  0.5136 -0.1243
   70MOL   C25426612   1.106   1.113   7.591 -0.1319  0.3214  0.6373
   70MOL   C25526613   1.187   1.111   7.704 -0.1103  0.5521  1.4260
   70MOL   C25626614   1.126   1.108   7.834  0.0713 -0.2232 -0.1762
   70MOL   C25726615   0.986   1.119   7.852  0.3910 -0.4084 -0.8697
   70MOL   C25826616   0.907   1.129   7.738 -0.3462 -0.2007  0.8133
   70MOL   C25926617   0.968   1.121   7.611  0.1133  0.0019  0.0159
   70MOL   H26026618   1.449   1.065   7.109 -3.2240 -0.2228 -0.8492
   70MOL   H26126619   1.274   0.963   7.250  1.7485  0.5181 -1.9911
   70MOL   H26226620   1.351   1.185   7.452  1.9138 -1.5837 -0.3121
   70MOL   H26326621   1.344   1.010   7.497 -1.0961 -0.2761  0.1008
   70MOL   H26426622   1.294   1.101   7.691 -0.2259 -0.2228  1.0464
   70MOL   H26526623   1.189   1.101   7.921  0.3022 -0.8756 -0.3915
   70MOL   H26626624   0.946   1.123   7.953  0.6897 -0.2115 -0.7590
   70MOL   H26726625   0.800   1.141   7.749 -0.3356  0.4981  0.1904
   70MOL   C26826626   0.882   1.114   7.487 -0.3644  0.6376 -0.3966
   70MOL   C26926627   0.805   0.985   7.439 -0.5745 -0.4837  0.6927
   70MOL   O27026628   0.749   1.086   7.521  0.0903 -0.4515 -0.3965
   70MOL   C27126629   0.804   0.841   7.489  0.5305 -0.1827  0.0718
   70MOL   O27226630   0.880   0.739   7.421 -0.0861 -0.1152  0.0030
   70MOL   C27326631   1.016   0.724   7.449 -0.1642 -0.1348  0.5665
   70MOL   C27426632   1.082   0.778   7.561  0.0938  0.7045 -0.2383
   70MOL   C27526633   1.220   0.760   7.580 -0.4328  0.3064  0.4562
   70MOL   C27626634   1.289   0.693   7.482  0.1302 -0.0289  0.3125
   70MOL   C27726635   1.231   0.646   7.362 -0.3223  0.1147 -0.1183
   70MOL   C27826636   1.091   0.657   7.352  0.0865  0.1244  0.6381
   70MOL   H27926637   0.887   1.204   7.426  0.6831 -0.3845 -1.8409
   70MOL   H28026638   0.769   0.986   7.336  0.1930 -0.4759  0.4197
   70MOL   H28126639   0.701   0.806   7.483 -0.1975  2.0128 -0.6066
   70MOL   H28226640   0.839   0.843   7.592 -3.5974 -1.4534  1.5992
   70MOL   H28326641   1.025   0.822   7.642  0.7384 -1.2158  1.2753
   70MOL   H28426642   1.272   0.788   7.671  1.9669  0.0463 -0.8145
   70MOL   H28526643   1.396   0.685   7.497  0.0683  0.2774  0.9344
   70MOL   H28626644   1.291   0.593   7.289  0.3219 -0.0545  0.5254
   70MOL   C28726645   1.017   0.592   7.245  0.6318  0.4127  0.9621
   70MOL   C28826646   0.949   0.667   7.132 -0.1480  0.2715 -0.4992
   70MOL   O28926647   1.086   0.629   7.122 -0.2273  0.3440 -0.7486
   70MOL   C29026648   0.921   0.815   7.118  0.0400  0.4176 -0.7321
   70MOL   O29126649   0.925   0.843   6.983  0.3825 -0.5288 -0.0737
   70MOL   C29226650   0.925   0.972   6.945  0.1478  0.4056  0.4179
   70MOL   C29326651   0.930   1.080   7.036  0.4747 -0.2512  0.0569
   70MOL   C29426652   0.932   1.215   6.996  0.4871  0.1822  0.0192
   70MOL   C29526653   0.944   1.238   6.855  0.2785 -0.2158  0.6852
   70MOL   C29626654   0.936   1.139   6.755 -0.3168 -0.4547  0.2118
   70MOL   C29726655   0.928   1.010   6.804 -0.3452  0.1438 -0.3787
   70MOL   H29826656   1.002   0.485   7.260 -0.4054  0.5165  0.6936
   70MOL   H29926657   0.874   0.608   7.079 -0.2276 -1.0572  1.0464
   70MOL   H30026658   0.996   0.875   7.170 -0.0855 -0.7448  0.8261
   70MOL   H30126659   0.831   0.843   7.173  0.1834  1.4153 -0.9924
   70MOL   H30226660   0.941   1.063   7.142  2.4143  0.0014 -0.0785
   70MOL   H30326661   0.934   1.299   7.064 -0.1430 -1.6878  2.4052
   70MOL   H30426662   0.957   1.341   6.824 -0.3577 -0.6056 -0.9355
   70MOL   H30526663   0.937   1.163   6.650 -1.1462  2.8942  0.9079
   70MOL   C30626664   0.954   0.890   6.705  0.4722  0.1863  0.3002
   70MOL   C30726665   0.842   0.795   6.668  0.2957  0.3397  0.2135
   70MOL   O30826666   0.883   0.900   6.579  0.4567  0.0105 -0.1397
   70MOL   C30926667   0.710   0.800   6.727 -0.0865 -0.3972 -0.0554
   70MOL   O31026668   0.612   0.746   6.636  0.1091 -0.2972 -0.0486
   70MOL   C31126669   0.510   0.834   6.617 -0.1920  1.0478 -0.1056
   70MOL   C31226670   0.426   0.876   6.722 -0.2276  0.2992  0.4857
   70MOL   C31326671   0.327   0.975   6.700  0.1107  0.6632  1.2234
   70MOL   C31426672   0.314   1.039   6.573  0.6474 -0.4904 -0.4866
   70MOL   C31526673   0.393   0.985   6.467 -1.0450 -0.3555  0.2303
   70MOL   C31626674   0.487   0.881   6.484  0.3231  0.7720 -0.3231
   70MOL   H31726675   1.058   0.860   6.700 -0.6491 -3.8443 -1.1178
   70MOL   H31826676   0.876   0.697   6.638  0.8507  0.2801  1.0156
   70MOL   H31926677   0.692   0.905   6.746 -1.1451 -0.3571 -1.2278
   70MOL   H32026678   0.708   0.755   6.826 -0.1003 -0.0971  0.0784
   70MOL   H32126679   0.433   0.852   6.827  0.7548  0.3517  0.4416
   70MOL   H32226680   0.259   1.006   6.779 -0.8029 -0.9172  1.0643
   70MOL   H32326681   0.253   1.127   6.557  0.4840 -1.0438 -3.0625
   70MOL   H32426682   0.379   1.035   6.372  1.7430 -0.5507 -0.3078
   70MOL   C32526683   0.571   0.838   6.369  0.6343  0.3192 -0.3992
   70MOL   C32626684   0.547   0.719   6.283 -0.1945 -0.2147 -0.0164
   70MOL   O32726685   0.490   0.847   6.246  0.5174  0.4718  0.4182
   70MOL   C32826686   0.463   0.603   6.318  0.7651  0.2790  0.0847
   70MOL   O32926687   0.481   0.475   6.249  0.2126  0.2117  0.2380
   70MOL   C33026688   0.438   0.460   6.119 -0.6737  0.4483  0.5421
   70MOL   C33126689   0.372   0.563   6.046  0.2472  0.0144 -0.2695
   70MOL   C33226690   0.339   0.538   5.912  0.5741  0.3719  0.7369
   70MOL   C33326691   0.365   0.417   5.844  0.4293  0.1211 -0.2902
   70MOL   C33426692   0.430   0.316   5.922 -0.9642 -0.5810 -0.4849
   70MOL   C33526693   0.462   0.335   6.060  0.4147  0.4792 -0.3626
   70MOL   H33626694   0.674   0.873   6.364  0.7564  0.3241  1.7326
   70MOL   H33726695   0.629   0.698   6.215 -1.3070  0.1852 -1.4882
   70MOL   H33826696   0.360   0.637   6.325  0.7105  0.2684 -0.5972
   70MOL   H33926697   0.483   0.580   6.422 -1.6315 -1.6054  0.1498
   70MOL   H34026698   0.339   0.660   6.078 -1.3949  0.6549 -3.6719
   70MOL   H34126699   0.286   0.616   5.858  2.1619  1.5994  0.9043
   70MOL   H34226700   0.358   0.396   5.739 -0.4588 -0.5288 -0.1080
   70MOL   H34326701   0.457   0.226   5.869 -0.4956  0.3557 -1.8580
   70MOL   C34426702   0.521   0.223   6.144 -0.3320 -0.1539  0.6023
   70MOL   C34526703   0.458   0.143   6.249  0.2873 -0.2455 -0.8157
   70MOL   O34626704   0.451   0.096   6.119 -0.2806  0.4598  0.2901
   70MOL   C34726705   0.311   0.170   6.298 -0.7002  0.0421  0.1567
   70MOL   O34826706   0.298   0.120   6.433  0.0230  0.0664  0.1984
   70MOL   C34926707   0.184   0.057   6.476  0.3031  0.2011  0.2999
   70MOL   C35026708   0.074   0.032   6.393  0.0362  0.2253  0.1705
   70MOL   C35126709   8.123   8.152   6.444 -0.3520 -0.4881 -0.8112
   70MOL   C35226710   8.114   8.127   6.581  0.8273 -0.2394  0.5972
   70MOL   C35326711   0.056   8.138   6.665 -0.6213  0.5541  0.0797
   70MOL   C35426712   0.170   0.027   6.615  0.5190 -0.0980  0.7829
   70MOL   H35526713   0.627   0.217   6.118 -0.1555 -0.3562  1.3676
   70MOL   H35626714   0.517   0.073   6.308  0.4612  0.5350 -0.0535
   70MOL   H35726715   0.236   0.143   6.224 -0.9360 -0.5958  0.6306
   70MOL   H35826716   0.293   0.277   6.310 -1.2534 -0.0816  0.4460
   70MOL   H35926717   0.068   0.065   6.291  1.3006  0.0826  0.0491
   70MOL   H36026718   8.029   8.153   6.390 -1.1116  0.4676  0.4929
   70MOL   H36126719   8.015   8.100   6.615  0.4026 -2.0652 -1.9695
   70MOL   H36226720   0.046   8.115   6.771 -0.3119  0.6639  0.1330
   70MOL   C36326721   0.283   0.067   6.698  0.3598 -0.1321  0.6278
   70MOL   C36426722   0.297   0.195   6.774 -0.4869 -0.1708  0.0172
   70MOL   O36526723   0.267   0.063   6.836 -0.4638 -0.4609  0.1295
   70MOL   C36626724   0.185   0.295   6.799  0.0988  0.3249  0.0068
   70MOL   O36726725   0.225   0.425   6.755 -0.0470  1.0918 -0.0871
   70MOL   C36826726   0.191   0.474   6.632 -0.4668  0.3824 -0.5982
   70MOL   C36926727   0.142   0.397   6.531 -0.0875  0.6234 -0.5116
   70MOL   C37026728   0.092   0.456   6.409 -0.4753  0.8005  0.1937
   70MOL   C37126729   0.102   0.593   6.394  0.2621 -0.1432  0.1642
   70MOL   C37226730   0.158   0.671   6.496  0.0577 -0.1097 -0.5058
   70MOL   C37326731   0.200   0.616   6.617 -0.4662  0.1852  0.4647
   70MOL   H37426732   0.379   0.031   6.661  1.2243  1.1165  1.6046
   70MOL   H37526733   0.388   0.229   6.822 -0.8586 -0.3065  0.8299
   70MOL   H37626734   0.153   0.301   6.903  1.4807 -0.1858  0.4692
   70MOL   H37726735   0.103   0.257   6.739  1.2262  0.6449 -1.7698
   70MOL   H37826736   0.140   0.290   6.545 -0.5561  0.3773 -2.3166
   70MOL   H37926737   0.041   0.396   6.335 -0.3452  0.7304  0.1610
   70MOL   H38026738   0.064   0.645   6.307  1.4033 -0.4455 -0.5189
   70MOL   H38126739   0.167   0.778   6.488 -2.3911  0.1002 -0.7309
   70MOL   H38226740   0.240   0.681   6.693  0.3705 -0.6522  0.7456
   71MOL     C126741   2.920   2.363   7.123 -0.0557  0.3595  0.4524
   71MOL     C226742   2.834   2.359   6.998 -0.2615 -0.5286  0.5807
   71MOL     O326743   2.914   2.246   7.031  0.4805 -0.4546  0.1973
   71MOL     C426744   2.858   2.425   6.867  0.2610 -0.0916  0.8708
   71MOL     O526745   2.967   2.515   6.868 -0.4362  0.0695  0.5624
   71MOL     C626746   2.952   2.638   6.936 -0.2451 -0.7564 -0.3352
   71MOL     C726747   2.823   2.687   6.968 -0.2815  0.2660 -0.6579
   71MOL     C826748   2.815   2.815   7.028  0.0314  0.6112 -0.3536
   71MOL     C926749   2.922   2.895   7.069  0.5347 -0.4041 -0.1124
   71MOL    C1026750   3.050   2.848   7.036  0.4008  0.1811  0.6336
   71MOL    C1126751   3.064   2.718   6.977  0.3370  0.0620  0.0024
   71MOL    H1226752   2.862   2.358   7.215 -3.1877  1.4491 -1.3915
   71MOL    H1326753   2.727   2.345   7.014 -0.5409  2.0690  1.1942
   71MOL    H1426754   2.771   2.478   6.829  0.9487 -0.8998 -1.9670
   71MOL    H1526755   2.883   2.349   6.793 -1.1777  2.6013 -2.5212
   71MOL    H1626756   2.730   2.644   6.935  1.0397 -1.9639 -1.6504
   71MOL    H1726757   2.713   2.849   7.036 -0.5003 -0.7555 -1.0646
   71MOL    H1826758   2.903   2.993   7.108 -0.7588 -1.3810  1.7463
   71MOL    H1926759   3.133   2.912   7.060  2.6596 -1.5525 -2.3187
   71MOL    H2026760   3.017   2.412   7.124  0.2668 -0.2729  1.4592
   71MOL    C2126761   3.206   2.659   6.965 -0.0689 -0.7957 -0.1113
   71MOL    C2226762   3.301   2.669   6.840 -0.5893 -0.0222 -0.3004
   71MOL    O2326763   3.306   2.762   6.948 -0.2522  0.5551  0.6187
   71MOL    C2426764   3.235   2.717   6.711 -0.2444  0.0326  0.0496
   71MOL    O2526765   3.320   2.797   6.632  0.4746  0.2609 -0.0484
   71MOL    C2626766   3.440   2.757   6.589  0.3449 -0.3873  0.1042
   71MOL    C2726767   3.467   2.627   6.542  0.2364  0.7568  0.1633
   71MOL    C2826768   3.594   2.584   6.489  0.7392 -0.0798 -0.2716
   71MOL    C2926769   3.695   2.681   6.495  0.3172  0.2121  1.1146
   71MOL    C3026770   3.668   2.809   6.541 -0.1514  0.1331 -0.3361
   71MOL    C3126771   3.543   2.857   6.583  0.2959 -0.3447 -0.3236
   71MOL    H3226772   3.226   2.582   7.038  1.1878 -2.8218 -2.5302
   71MOL    H3326773   3.398   2.622   6.830 -1.0201 -0.1865 -4.4313
   71MOL    H3426774   3.142   2.763   6.742 -0.4043 -0.5373  0.4152
   71MOL    H3526775   3.201   2.634   6.649 -0.5468 -0.0633  0.3493
   71MOL    H3626776   3.392   2.550   6.529  2.5374 -1.8800  1.9471
   71MOL    H3726777   3.593   2.487   6.441 -1.4971 -0.5182  0.5541
   71MOL    H3826778   3.793   2.655   6.457  0.1628  0.8098  0.2934
   71MOL    H3926779   3.752   2.877   6.537  0.0067 -0.1440 -2.3008
   71MOL    C4026780   3.517   2.991   6.640 -0.0969 -0.5614 -0.8570
   71MOL    C4126781   3.566   3.030   6.780  0.1290  0.5109  0.2241
   71MOL    O4226782   3.647   3.053   6.661 -0.2003  0.0938  0.0320
   71MOL    C4326783   3.631   2.944   6.883 -0.4682 -0.0440 -0.0758
   71MOL    O4426784   3.699   3.032   6.975 -0.2162 -0.2337 -0.4689
   71MOL    C4526785   3.626   3.092   7.078 -0.0160  0.0082 -0.0507
   71MOL    C4626786   3.492   3.063   7.102  0.5401  0.0621 -0.8928
   71MOL    C4726787   3.421   3.122   7.206  0.9266 -0.2897 -0.0036
   71MOL    C4826788   3.484   3.206   7.290  0.4412 -0.1232  0.7602
   71MOL    C4926789   3.617   3.235   7.282  0.3541  0.2219  0.3232
   71MOL    C5026790   3.689   3.178   7.167  0.4040  0.2708 -0.2166
   71MOL    H5126791   3.444   3.052   6.588  0.4912 -0.3590 -1.4499
   71MOL    H5226792   3.532   3.119   6.833 -0.5131 -1.2153  2.7505
   71MOL    H5326793   3.705   2.879   6.837  1.3994 -0.3381  3.2141
   71MOL    H5426794   3.560   2.869   6.920 -0.4737  0.2219  0.4688
   71MOL    H5526795   3.442   2.977   7.059  0.9258 -0.6211  0.0135
   71MOL    H5626796   3.313   3.113   7.214  0.5908  1.1160 -2.4410
   71MOL    H5726797   3.434   3.260   7.370 -0.1531 -1.7767  1.5377
   71MOL    H5826798   3.655   3.309   7.350 -2.0438  2.3886 -0.6187
   71MOL    C5926799   3.828   3.231   7.138 -0.5562 -0.2482  0.0601
   71MOL    C6026800   3.873   3.307   7.014  0.0033 -0.0183 -0.5828
   71MOL    O6126801   3.834   3.369   7.141 -0.3563 -0.0615  0.0228
   71MOL    C6226802   3.777   3.333   6.898 -0.1211 -0.0415 -0.0724
   71MOL    O6326803   3.808   3.450   6.822 -0.4056  0.4935 -0.2661
   71MOL    C6426804   3.747   3.463   6.701 -0.3236  0.5161  0.2906
   71MOL    C6526805   3.717   3.363   6.612 -0.2132 -0.7960  0.5645
   71MOL    C6626806   3.631   3.392   6.503  0.0543  0.1758  0.0341
   71MOL    C6726807   3.593   3.532   6.477 -0.0362 -0.4045 -0.2480
   71MOL    C6826808   3.634   3.629   6.562 -0.0006 -0.4562 -0.8225
   71MOL    C6926809   3.713   3.596   6.672  0.1145  0.4319 -0.1788
   71MOL    H7026810   3.899   3.198   7.215 -0.9485 -0.3034  0.4003
   71MOL    H7126811   3.975   3.335   6.990  0.7824 -0.6632  1.8504
   71MOL    H7226812   3.673   3.334   6.932  0.3208 -0.1422  1.3031
   71MOL    H7326813   3.786   3.241   6.840  1.6308  1.2630 -1.9593
   71MOL    H7426814   3.755   3.266   6.641  1.0457 -0.6747 -0.6035
   71MOL    H7526815   3.601   3.308   6.443  0.5804  0.7711 -1.0992
   71MOL    H7626816   3.535   3.556   6.389 -0.6828 -1.3883 -0.1046
   71MOL    H7726817   3.614   3.734   6.551 -1.5906 -0.6690 -0.1843
   71MOL    C7826818   3.769   3.706   6.757 -0.0515  0.3403  0.5381
   71MOL    C7926819   3.907   3.759   6.756  0.3113 -0.6005  0.3005
   71MOL    O8026820   3.818   3.819   6.670 -0.2207 -0.4440  0.4693
   71MOL    C8126821   4.021   3.677   6.696 -0.2768  0.4512 -0.2919
   71MOL    O8226822   4.145   3.734   6.724  0.4348  0.2825 -0.6394
   71MOL    C8326823   4.179   3.844   6.652 -0.3134  0.5509 -0.7062
   71MOL    C8426824   4.151   3.861   6.513 -0.8791 -0.2126 -0.1873
   71MOL    C8526825   4.185   3.978   6.450  0.5408  0.6031  0.0268
   71MOL    C8626826   4.250   4.089   6.515  0.2345 -0.1034  0.6757
   71MOL    C8726827   4.266   4.073   6.649  0.7530  0.2498 -0.0763
   71MOL    C8826828   4.233   3.955   6.724 -0.2998  0.4804  0.0963
   71MOL    H8926829   3.701   3.740   6.835  0.6576 -0.3709  1.4658
   71MOL    H9026830   3.940   3.815   6.844 -0.7279 -0.3055  0.5101
   71MOL    H9126831   3.998   3.658   6.591 -2.6025 -1.2999  0.4848
   71MOL    H9226832   4.022   3.576   6.736  0.2869  0.1585 -1.0397
   71MOL    H9326833   4.100   3.790   6.449 -0.8209  0.1975 -0.6949
   71MOL    H9426834   4.176   3.992   6.343  2.4906  0.4832 -0.1632
   71MOL    H9526835   4.284   4.179   6.464  0.4965  0.1746  1.3377
   71MOL    H9626836   4.293   4.161   6.706 -1.5444  1.0827 -0.2477
   71MOL    C9726837   4.245   3.949   6.880 -0.0050 -0.3309 -0.3219
   71MOL    C9826838   4.355   3.885   6.962 -0.4514  0.3970 -0.3377
   71MOL    O9926839   4.361   4.017   6.931  0.1047 -0.2810 -0.0300
   71MOL   C10026840   4.463   3.800   6.902 -0.0081  0.4984 -0.1795
   71MOL   O10126841   4.560   3.779   7.012  0.4003 -0.0908 -0.1025
   71MOL   C10226842   4.654   3.677   7.001 -0.7551 -0.1369 -0.3955
   71MOL   C10326843   4.672   3.611   6.878 -0.2962  0.5180  0.3557
   71MOL   C10426844   4.769   3.509   6.866  0.5749 -0.3963 -0.3710
   71MOL   C10526845   4.854   3.482   6.970  0.1493 -0.4719  0.1064
   71MOL   C10626846   4.840   3.545   7.096 -0.0436 -0.0240 -0.1933
   71MOL   C10726847   4.734   3.635   7.113 -0.0750 -0.8216  0.1078
   71MOL   H10826848   4.152   3.976   6.929  0.8216  0.6176  0.7431
   71MOL   H10926849   4.330   3.867   7.067 -0.3740 -0.2911 -0.4339
   71MOL   H11026850   4.503   3.859   6.820  2.1797  1.0330  1.2444
   71MOL   H11126851   4.408   3.712   6.868 -0.7085 -0.3241  2.8855
   71MOL   H11226852   4.623   3.650   6.790 -0.5860  0.5302  0.5219
   71MOL   H11326853   4.790   3.462   6.771 -0.3037  0.4142 -0.9751
   71MOL   H11426854   4.942   3.422   6.952 -0.3069 -0.8108 -1.0295
   71MOL   H11526855   4.906   3.531   7.180 -1.5732  0.3176  1.0992
   71MOL   C11626856   4.714   3.702   7.252 -0.3686 -0.0129 -0.2026
   71MOL   C11726857   4.629   3.641   7.356  0.6982 -0.2220  0.7101
   71MOL   O11826858   4.769   3.628   7.360 -0.3029  0.5740  0.1972
   71MOL   C11926859   4.554   3.515   7.351 -0.3680 -0.7143  0.8121
   71MOL   O12026860   4.499   3.485   7.220  0.5453  0.0710 -0.3163
   71MOL   C12126861   4.373   3.536   7.177 -0.6793 -0.8973  1.0828
   71MOL   C12226862   4.298   3.633   7.244  0.5714  0.0314 -0.0172
   71MOL   C12326863   4.175   3.675   7.196  0.3197 -0.2237 -0.3707
   71MOL   C12426864   4.130   3.627   7.075 -0.4822  0.4420 -0.2416
   71MOL   C12526865   4.204   3.538   6.997 -1.2404 -1.0690 -0.3080
   71MOL   C12626866   4.323   3.489   7.052 -0.4197  0.4398 -0.3308
   71MOL   H12726867   4.732   3.810   7.250 -2.0271  0.2843 -0.5141
   71MOL   H12826868   4.594   3.715   7.428  1.5276 -1.1435  2.0777
   71MOL   H12926869   4.466   3.511   7.414 -1.4162  0.0911 -0.5839
   71MOL   H13026870   4.618   3.429   7.374  0.0250  0.0902  2.8560
   71MOL   H13126871   4.328   3.675   7.339  0.8422  0.2844 -0.2173
   71MOL   H13226872   4.125   3.757   7.245  1.8157 -0.0349  0.8651
   71MOL   H13326873   4.041   3.670   7.032  0.8890  1.2674 -2.3444
   71MOL   H13426874   4.176   3.506   6.898  2.8587 -0.8058 -1.6348
   71MOL   C13526875   4.408   3.394   6.978  0.7798 -0.0869 -0.2756
   71MOL   C13626876   4.376   3.246   6.961 -0.4259  0.2428  0.5788
   71MOL   O13726877   4.336   3.340   6.862  0.1868  0.5386 -0.1800
   71MOL   C13826878   4.255   3.173   7.027  0.1897  0.4378  0.0868
   71MOL   O13926879   4.220   3.236   7.143 -0.2199  0.4141 -0.5440
   71MOL   C14026880   4.290   3.223   7.264  0.5490  0.5051 -0.2013
   71MOL   C14126881   4.416   3.153   7.277 -0.4019  0.7048  0.9993
   71MOL   C14226882   4.480   3.150   7.401  0.3859  0.3221 -1.0067
   71MOL   C14326883   4.423   3.216   7.514  0.5564  0.0720  0.0385
   71MOL   C14426884   4.305   3.287   7.497 -0.8663  0.0699  0.0684
   71MOL   C14526885   4.230   3.286   7.372  0.3863 -0.7571  0.0003
   71MOL   H14626886   4.506   3.435   6.956  0.2058  0.9040 -1.0379
   71MOL   H14726887   4.455   3.180   6.925 -0.3345  0.2672  0.7338
   71MOL   H14826888   4.281   3.068   7.046  0.5967  0.7219  1.1604
   71MOL   H14926889   4.178   3.177   6.950  0.3543  0.0113 -0.1011
   71MOL   H15026890   4.457   3.100   7.192 -1.0854  1.1009  0.4123
   71MOL   H15126891   4.574   3.097   7.411  0.5642  0.4299 -2.0988
   71MOL   H15226892   4.467   3.221   7.613  2.0284  1.2440 -0.6634
   71MOL   H15326893   4.263   3.338   7.582  1.4576 -0.6945  1.7252
   71MOL   C15426894   4.089   3.350   7.359 -0.3268  0.0434 -0.3777
   71MOL   C15526895   3.972   3.290   7.436 -0.2216 -0.8690  0.5790
   71MOL   O15626896   4.041   3.414   7.473  0.8098  0.1931  0.2945
   71MOL   C15726897   3.982   3.169   7.537 -0.2918 -0.5174 -0.4621
   71MOL   O15826898   3.862   3.092   7.541  0.3885  0.0969 -0.6229
   71MOL   C15926899   3.748   3.138   7.608 -0.1646 -0.1958 -0.2838
   71MOL   C16026900   3.740   3.258   7.680  0.2181  0.5431 -1.1523
   71MOL   C16126901   3.624   3.310   7.733 -0.2241  0.5141 -0.4361
   71MOL   C16226902   3.507   3.237   7.716  0.3899 -0.8447  0.0334
   71MOL   C16326903   3.512   3.119   7.634  0.0951 -0.0695 -0.1994
   71MOL   C16426904   3.631   3.067   7.581  0.2425  0.0822  0.1573
   71MOL   H16526905   4.071   3.416   7.275 -3.1065  1.4270  1.2198
   71MOL   H16626906   3.868   3.322   7.428  0.1056  0.2745  0.8074
   71MOL   H16726907   4.014   3.194   7.638  0.4860 -3.1417 -0.0204
   71MOL   H16826908   4.060   3.100   7.504  0.6904  0.2659  0.2027
   71MOL   H16926909   3.828   3.313   7.710  0.8964  0.1383 -2.3808
   71MOL   H17026910   3.614   3.409   7.776 -1.6364  1.5920 -3.1443
   71MOL   H17126911   3.415   3.269   7.762  1.2324 -2.8236  3.2681
   71MOL   H17226912   3.425   3.056   7.623 -0.8438  0.9186  1.3364
   71MOL   C17326913   3.642   2.933   7.502 -0.1646 -0.7805  0.5794
   71MOL   C17426914   3.717   2.806   7.540 -0.2942 -0.6024  0.8441
   71MOL   O17526915   3.585   2.830   7.587  0.3405 -0.6263  0.0912
   71MOL   C17626916   3.820   2.815   7.646  0.0797 -0.4426  0.1555
   71MOL   O17726917   3.825   2.693   7.715 -0.1135  0.1263  0.4734
   71MOL   C17826918   3.873   2.693   7.844  0.1020 -0.2414 -0.3421
   71MOL   C17926919   3.982   2.762   7.896  0.8896  0.1250 -0.4905
   71MOL   C18026920   4.023   2.745   8.020  0.2596  0.5389 -0.4885
   71MOL   C18126921   3.960   2.650   8.106  0.7916 -0.4784  0.6253
   71MOL   C18226922   3.844   2.575   8.060  0.2676  0.4713 -0.1719
   71MOL   C18326923   3.801   2.605   7.930 -0.2826  0.6615 -0.1983
   71MOL   H18426924   3.591   2.940   7.406 -0.5356  2.3623  0.9387
   71MOL   H18526925   3.721   2.726   7.467 -2.8044  1.4362 -1.6295
   71MOL   H18626926   3.799   2.897   7.715  0.1549 -1.4522  1.3980
   71MOL   H18726927   3.923   2.828   7.611  0.0589 -3.9140 -1.4092
   71MOL   H18826928   4.028   2.832   7.828 -0.3217 -0.1266 -1.6025
   71MOL   H18926929   4.097   2.808   8.067 -1.1144  2.1019 -0.3719
   71MOL   H19026930   3.981   2.655   0.042 -0.1164 -1.0004  0.8356
   71MOL   H19126931   3.784   2.509   8.121  0.6243 -1.2206 -1.5920
   71MOL   C19226932   3.671   2.542   7.876  0.7956 -0.1429 -0.3097
   71MOL   C19326933   3.657   2.393   7.848  0.5390 -0.3530 -0.3669
   71MOL   O19426934   3.602   2.449   7.970 -0.4584  0.3808 -0.7255
   71MOL   C19526935   3.779   2.304   7.858 -0.2064 -0.8069  0.4888
   71MOL   O19626936   3.886   2.345   7.762  0.3192  0.2704  0.0637
   71MOL   C19726937   3.975   2.255   7.714 -0.3100 -0.5181 -0.4631
   71MOL   C19826938   4.014   2.140   7.785 -0.0255 -0.2600  0.3405
   71MOL   C19926939   4.103   2.053   7.726  0.1375 -0.2158  0.3997
   71MOL   C20026940   4.148   2.066   7.592  0.4194  0.1389  0.0526
   71MOL   C20126941   4.115   2.186   7.529  0.6182  0.0704  0.0301
   71MOL   C20226942   4.035   2.285   7.586  0.8706  0.5579  0.1521
   71MOL   H20326943   3.598   2.609   7.831  0.8766  0.8241  0.9662
   71MOL   H20426944   3.575   2.353   7.789 -0.0196  0.9843 -0.5038
   71MOL   H20526945   3.755   2.203   7.827 -0.3580 -1.0443  1.3788
   71MOL   H20626946   3.803   2.296   7.964 -3.0011  0.9306  1.3094
   71MOL   H20726947   3.974   2.116   7.883 -0.7163 -1.3007 -0.1929
   71MOL   H20826948   4.127   1.970   7.791  0.8522  0.4868  1.0368
   71MOL   H20926949   4.210   1.995   7.539  0.2300  0.0556 -0.0566
   71MOL   H21026950   4.158   2.201   7.431  0.0890  0.0425 -0.2095
   71MOL   C21126951   4.002   2.412   7.514 -0.0094 -0.5395  0.0881
   71MOL   C21226952   4.074   2.539   7.548  0.4486  0.0300 -0.3655
   71MOL   O21326953   4.120   2.453   7.439  0.0709 -0.3775 -0.2588
   71MOL   C21426954   4.167   2.557   7.663  0.4653 -0.2177  0.2874
   71MOL   O21526955   4.284   2.636   7.638  0.1059  0.1218 -0.9002
   71MOL   C21626956   4.296   2.759   7.710 -0.0268  0.0836  0.7996
   71MOL   C21726957   4.225   2.872   7.672  0.3329 -0.4931  0.1827
   71MOL   C21826958   4.252   2.997   7.737  0.7067  0.1192 -0.5497
   71MOL   C21926959   4.327   3.003   7.852  0.5515  0.6865 -0.1600
   71MOL   C22026960   4.393   2.889   7.893  0.1285  0.4177 -0.5099
   71MOL   C22126961   4.375   2.769   7.827  0.6266 -0.1900  0.1271
   71MOL   H22226962   3.917   2.399   7.448 -1.3948 -0.3697  1.8044
   71MOL   H22326963   4.029   2.630   7.506  2.6256  2.1916  1.8877
   71MOL   H22426964   4.203   2.460   7.696  0.1017 -0.2262  0.6613
   71MOL   H22526965   4.116   2.595   7.752 -1.8001  0.2705 -1.1908
   71MOL   H22626966   4.160   2.882   7.587  0.6768  1.5164  0.1395
   71MOL   H22726967   4.198   3.085   7.706  1.7386  0.6456 -0.8705
   71MOL   H22826968   4.329   3.097   7.906  0.1299  0.7555 -0.2609
   71MOL   H22926969   4.459   2.902   7.978 -0.6443  0.1771  0.1328
   71MOL   C23026970   4.432   2.639   7.884  0.1852  0.6644 -0.2430
   71MOL   C23126971   4.573   2.604   7.857 -0.9014  0.6146  0.3976
   71MOL   O23226972   4.536   2.666   7.981  0.1898  0.1498  0.0475
   71MOL   C23326973   4.665   2.689   7.765  0.6908  0.2504 -0.6657
   71MOL   O23426974   4.801   2.647   7.759  0.2609 -0.3610 -0.2584
   71MOL   C23526975   4.898   2.747   7.747 -0.1514 -0.0540 -0.8828
   71MOL   C23626976   4.875   2.881   7.698 -0.5028 -0.1902 -0.2308
   71MOL   C23726977   4.988   2.972   7.682 -1.0393  0.2780  0.1373
   71MOL   C23826978   5.121   2.933   7.712  0.3309 -0.0249 -0.0590
   71MOL   C23926979   5.138   2.804   7.768  0.2070 -0.4148  0.5003
   71MOL   C24026980   5.028   2.714   7.784 -0.3567 -0.5691  0.5536
   71MOL   H24126981   4.366   2.555   7.905 -0.1198  1.5984  2.8215
   71MOL   H24226982   4.595   2.498   7.868 -0.1691  0.6334 -0.8525
   71MOL   H24326983   4.662   2.788   7.811  0.7662  0.1536 -0.4533
   71MOL   H24426984   4.623   2.699   7.665 -0.0477  1.8293 -0.2239
   71MOL   H24526985   4.779   2.921   7.669  0.2585  1.9916  0.1587
   71MOL   H24626986   4.970   3.072   7.647 -0.7199  0.1806 -0.3164
   71MOL   H24726987   5.202   3.003   7.701  1.2040 -0.6424  2.1343
   71MOL   H24826988   5.233   2.762   7.799  1.3593  1.0556 -0.9646
   71MOL   C24926989   5.064   2.573   7.825  0.4801  0.4015 -0.2170
   71MOL   C25026990   5.033   2.452   7.741 -0.6748 -0.0156  0.1329
   71MOL   O25126991   5.167   2.510   7.743 -0.3177  0.3751 -0.9660
   71MOL   C25226992   4.976   2.459   7.596  0.1234 -0.0930  0.3255
   71MOL   O25326993   4.975   2.327   7.539  0.1235 -0.1977  0.6974
   71MOL   C25426994   4.942   2.316   7.399  0.3734 -0.2012  0.0548
   71MOL   C25526995   4.919   2.434   7.323  0.1210  0.1385 -0.3005
   71MOL   C25626996   4.888   2.428   7.185  0.7061  0.5201  1.2524
   71MOL   C25726997   4.890   2.303   7.122  0.2694 -0.2513 -0.5550
   71MOL   C25826998   4.919   2.193   7.195  0.2901 -0.0639 -0.0781
   71MOL   C25926999   4.938   2.190   7.336 -0.3506 -0.6712  0.3352
   71MOL   H26027000   5.071   2.570   7.933 -0.9502 -0.2794 -0.1241
   71MOL   H26127001   5.017   2.354   7.785 -1.7014  0.4193  0.7475
   71MOL   H26227002   5.049   2.521   7.544  1.8942 -1.2026  1.4401
   71MOL   H26327003   4.873   2.496   7.599  0.6155  1.2300  1.5639
   71MOL   H26427004   4.911   2.533   7.365 -1.6241  0.0042 -0.2619
   71MOL   H26527005   4.875   2.515   7.123  2.7488  0.0431  0.0887
   71MOL   H26627006   4.883   2.293   7.014 -0.7317 -0.2721 -0.4990
   71MOL   H26727007   4.926   2.103   7.136  3.5040 -1.5763  2.4398
   71MOL   C26827008   4.972   2.066   7.413  0.3280  0.4617 -0.1336
   71MOL   C26927009   4.898   1.926   7.416 -0.1695  0.4372 -0.2064
   71MOL   O27027010   5.008   1.957   7.330 -0.0904  0.4603 -0.5268
   71MOL   C27127011   4.767   1.909   7.355 -0.1033 -0.1016  0.0519
   71MOL   O27227012   4.673   2.002   7.394  0.1025 -0.1436  0.3333
   71MOL   C27327013   4.608   1.975   7.508 -0.1358  0.1825 -1.1530
   71MOL   C27427014   4.547   1.852   7.540  0.1477 -0.2463 -0.4026
   71MOL   C27527015   4.460   1.847   7.656  0.5255 -0.5333 -0.1465
   71MOL   C27627016   4.450   1.954   7.749  0.5213  0.7206 -0.8370
   71MOL   C27727017   4.523   2.070   7.721  0.3412  0.6191  0.1001
   71MOL   C27827018   4.596   2.079   7.605  0.0605  0.3306  0.8776
   71MOL   H27927019   5.048   2.088   7.488  0.8390 -0.0706 -0.4933
   71MOL   H28027020   4.921   1.872   7.508  0.6012  1.2240  0.0664
   71MOL   H28127021   4.740   1.804   7.368 -0.5102  0.1372  1.2022
   71MOL   H28227022   4.790   1.916   7.249 -0.3653  0.8215  0.0610
   71MOL   H28327023   4.561   1.774   7.467 -2.0952  1.6099 -2.9387
   71MOL   H28427024   4.404   1.756   7.675 -0.6138  0.6443  2.3549
   71MOL   H28527025   4.374   1.952   7.825  0.1546 -2.7263 -1.1939
   71MOL   H28627026   4.520   2.152   7.791 -1.2174  0.2074  0.5404
   71MOL   C28727027   4.678   2.203   7.575  0.8518 -0.4964  0.4702
   71MOL   C28827028   4.611   2.328   7.522 -0.6334 -0.5489  0.6124
   71MOL   O28927029   4.633   2.314   7.659 -0.0148  0.5327  0.8375
   71MOL   C29027030   4.460   2.330   7.478 -0.6592 -0.1732  0.3080
   71MOL   O29127031   4.436   2.430   7.377 -0.1140 -0.4850  0.0326
   71MOL   C29227032   4.475   2.398   7.243  0.5650 -0.3506  0.0213
   71MOL   C29327033   4.530   2.276   7.200  0.7422  0.4180 -0.4543
   71MOL   C29427034   4.573   2.268   7.068  1.6130  0.0288 -0.4653
   71MOL   C29527035   4.544   2.367   6.975  0.1007 -0.3130 -0.4462
   71MOL   C29627036   4.484   2.483   7.013 -1.5652 -0.9526 -0.6477
   71MOL   C29727037   4.443   2.498   7.144  0.5898 -0.7574  0.2279
   71MOL   H29827038   4.785   2.186   7.589  1.2522 -0.1193 -1.9607
   71MOL   H29927039   4.669   2.408   7.476 -2.2496  0.5132  0.3864
   71MOL   H30027040   4.400   2.368   7.561  0.0531  1.1724  0.2177
   71MOL   H30127041   4.414   2.236   7.448  0.9960 -1.0335  0.4574
   71MOL   H30227042   4.552   2.197   7.270  1.6648  0.9995 -0.0701
   71MOL   H30327043   4.616   2.173   7.040  0.5029 -0.5703 -0.1591
   71MOL   H30427044   4.568   2.345   6.872 -0.7617 -1.6206 -0.3835
   71MOL   H30527045   4.464   2.557   6.938 -1.1035  0.6632  0.7959
   71MOL   C30627046   4.367   2.626   7.188 -0.1631 -0.4053  0.8433
   71MOL   C30727047   4.437   2.754   7.218  0.2356  0.5391 -0.1936
   71MOL   O30827048   4.371   2.735   7.094  0.5535 -0.5186 -0.2569
   71MOL   C30927049   4.587   2.760   7.210 -0.4661  0.1493 -0.5603
   71MOL   O31027050   4.646   2.885   7.177  0.5076  0.5159 -0.5407
   71MOL   C31127051   4.653   2.929   7.044  0.4676 -0.6288  0.7145
   71MOL   C31227052   4.601   2.858   6.938  0.4091 -0.7448 -0.5104
   71MOL   C31327053   4.592   2.915   6.808 -0.2940 -0.4323  0.2503
   71MOL   C31427054   4.638   3.050   6.787  0.9649  0.4828  0.7884
   71MOL   C31527055   4.703   3.114   6.890  0.1082 -0.4125  0.1505
   71MOL   C31627056   4.709   3.060   7.020  0.0094  0.4449  0.2356
   71MOL   H31727057   4.270   2.603   7.230 -1.4703  1.4211 -1.0561
   71MOL   H31827058   4.385   2.832   7.271  1.6534  0.8075  0.8257
   71MOL   H31927059   4.635   2.687   7.144 -2.0887 -0.4620 -1.0820
   71MOL   H32027060   4.622   2.739   7.311 -1.4575  1.6472  0.1094
   71MOL   H32127061   4.575   2.754   6.947 -0.6597 -0.5985 -1.7285
   71MOL   H32227062   4.547   2.866   6.722 -0.4505  0.2855 -0.0763
   71MOL   H32327063   4.642   3.083   6.684 -0.8397 -1.8597 -0.0775
   71MOL   H32427064   4.748   3.211   6.876 -0.0599 -0.7363 -2.9114
   71MOL   C32527065   4.778   3.138   7.123  0.6480 -0.9431  0.1337
   71MOL   C32627066   4.901   3.101   7.203 -0.2720 -0.3858  0.0679
   71MOL   O32727067   4.908   3.168   7.076 -0.3891  0.0371 -0.1590
   71MOL   C32827068   4.974   2.969   7.201 -0.5120 -0.0789  0.3243
   71MOL   O32927069   5.117   2.996   7.187  0.5112  0.0780 -0.5156
   71MOL   C33027070   5.201   2.897   7.138  0.7758  0.6214 -0.1491
   71MOL   C33127071   5.158   2.763   7.104 -0.1013 -0.8403 -1.2004
   71MOL   C33227072   5.246   2.672   7.043  0.1888  0.4568  0.2160
   71MOL   C33327073   5.370   2.716   6.992 -0.3676 -0.0096 -0.5567
   71MOL   C33427074   5.407   2.848   7.021 -0.7274  0.0225 -0.5848
   71MOL   C33527075   5.328   2.937   7.089 -0.1960  0.6018 -0.2179
   71MOL   H33627076   4.730   3.226   7.165  2.8892  0.4586 -0.1137
   71MOL   H33727077   4.918   3.167   7.288  2.4104 -0.0181 -0.7317
   71MOL   H33827078   4.933   2.917   7.114  0.3617  0.8048 -0.6312
   71MOL   H33927079   4.947   2.917   7.292 -0.8373  1.1537  0.9390
   71MOL   H34027080   5.059   2.729   7.127  0.4002 -2.0962 -0.8739
   71MOL   H34127081   5.214   2.570   7.025 -1.6510  0.8599  1.0282
   71MOL   H34227082   5.432   2.642   6.943 -0.2784  0.2365 -0.8234
   71MOL   H34327083   5.507   2.882   6.996 -0.7073  1.2145  1.0640
   71MOL   C34427084   5.363   3.080   7.103  0.4778 -0.2784  0.6655
   71MOL   C34527085   5.405   3.142   7.242 -0.1686 -0.3043 -0.2914
   71MOL   O34627086   5.497   3.114   7.140 -0.4802  0.3189  0.0955
   71MOL   C34727087   5.405   3.056   7.371 -0.0643  0.5525 -0.1071
   71MOL   O34827088   5.491   3.125   7.466 -0.0390 -0.3559  0.0192
   71MOL   C34927089   5.556   3.061   7.568  0.3626  0.0284 -0.5844
   71MOL   C35027090   5.524   2.923   7.602  0.5023 -0.5818 -0.2037
   71MOL   C35127091   5.604   2.858   7.703  0.0201  0.5869 -0.0542
   71MOL   C35227092   5.704   2.931   7.774  0.4224 -0.5583  0.2169
   71MOL   C35327093   5.729   3.063   7.736  0.7880 -0.6399 -0.4011
   71MOL   C35427094   5.654   3.133   7.641 -0.5946 -0.1381  0.1881
   71MOL   H35527095   5.319   3.140   7.024 -0.6287 -2.0262 -0.0921
   71MOL   H35627096   5.387   3.249   7.244 -0.0536 -0.2872 -0.1129
   71MOL   H35727097   5.446   2.958   7.345 -1.9101 -0.6358  1.3348
   71MOL   H35827098   5.302   3.046   7.406 -0.1506 -3.7249 -1.3300
   71MOL   H35927099   5.441   2.863   7.567 -0.9583  2.1786 -1.6879
   71MOL   H36027100   5.602   2.754   7.730  3.5202  0.0753 -1.6008
   71MOL   H36127101   5.764   2.882   7.849  2.0310 -2.4393 -2.2355
   71MOL   H36227102   5.809   3.115   7.785  1.0067 -1.5694  0.2381
   71MOL   C36327103   5.684   3.269   7.609 -0.3198 -0.3095  0.4994
   71MOL   C36427104   5.602   3.380   7.661 -0.3025  0.0054  0.6662
   71MOL   O36527105   5.728   3.347   7.724 -0.2422 -0.2252  0.0786
   71MOL   C36627106   5.488   3.364   7.764  0.3243  0.8994 -0.2495
   71MOL   O36727107   5.386   3.464   7.761 -0.3265  0.1868  0.1279
   71MOL   C36827108   5.279   3.461   7.675 -0.0647 -0.2222  0.0132
   71MOL   C36927109   5.181   3.562   7.705 -0.6176 -0.3701 -0.5129
   71MOL   C37027110   5.071   3.581   7.621 -0.5034 -0.2314  0.3325
   71MOL   C37127111   5.059   3.498   7.503 -0.2739 -0.0077  0.1001
   71MOL   C37227112   5.151   3.396   7.471 -0.4529  0.8518 -0.3147
   71MOL   C37327113   5.261   3.381   7.554 -0.8715 -0.3453  0.1434
   71MOL   H37427114   5.743   3.269   7.518 -0.5958 -2.8417  0.2925
   71MOL   H37527115   5.606   3.480   7.619 -2.0274  0.5008  1.6602
   71MOL   H37627116   5.532   3.370   7.864  1.6713 -2.3236 -0.5985
   71MOL   H37727117   5.445   3.264   7.755  0.8224  0.6892 -0.2750
   71MOL   H37827118   5.202   3.621   7.793 -2.8179  1.1346 -0.9430
   71MOL   H37927119   5.003   3.664   7.638 -1.8145 -0.9532 -1.3234
   71MOL   H38027120   4.970   3.519   7.446 -0.3863  0.5782  0.4784
   71MOL   H38127121   5.135   3.330   7.388 -0.5516  1.1323 -0.5211
   71MOL   H38227122   5.348   3.319   7.543 -0.6222  0.1690 -0.8631
   72MOL     C127123   3.218   1.735   1.134 -0.1276 -0.5177  0.3836
   72MOL     C227124   3.092   1.668   1.086 -0.3697  0.6045 -0.3303
   72MOL     O327125   3.115   1.804   1.055  0.5045 -0.4629  0.6124
   72MOL     C427126   2.977   1.642   1.188 -0.6137  0.7331 -0.5293
   72MOL     O527127   3.019   1.656   1.332  0.3827 -0.3875  0.1024
   72MOL     C627128   2.939   1.614   1.435 -0.8766 -0.3432  0.5268
   72MOL     C727129   2.820   1.533   1.418  0.7368 -0.7243 -0.3648
   72MOL     C827130   2.758   1.494   1.533  0.4919  0.1974 -0.1770
   72MOL     C927131   2.793   1.532   1.661  0.3207 -0.4131  0.6464
   72MOL    C1027132   2.910   1.607   1.681 -0.7298 -0.3802  0.4339
   72MOL    C1127133   2.981   1.653   1.566 -0.0075  0.0956 -0.2749
   72MOL    H1227134   3.312   1.712   1.086 -0.0073  0.7425 -0.0028
   72MOL    H1327135   3.088   1.606   0.997  3.0885 -0.7006  0.3644
   72MOL    H1427136   2.944   1.540   1.169  0.2949  0.4365 -0.5786
   72MOL    H1527137   2.886   1.700   1.177 -1.1862 -0.1945 -0.6939
   72MOL    H1627138   2.786   1.499   1.321 -0.8470  0.9544 -0.4303
   72MOL    H1727139   2.670   1.431   1.524  1.6158 -1.5067  0.5125
   72MOL    H1827140   2.737   1.490   1.743  0.5486 -0.5189  0.7492
   72MOL    H1927141   2.949   1.628   1.779  0.3126  0.3423 -0.1157
   72MOL    H2027142   3.233   1.786   1.229  0.2216  1.0004 -0.4746
   72MOL    C2127143   3.099   1.736   1.582 -0.0682 -0.3855 -0.1110
   72MOL    C2227144   3.084   1.887   1.593  0.2297  0.8730  0.1456
   72MOL    O2327145   3.095   1.802   1.703 -0.1658 -0.3240 -0.3698
   72MOL    C2427146   2.952   1.952   1.586  0.0609  0.2614 -0.7040
   72MOL    O2527147   2.963   2.088   1.572  0.0271  0.1174  0.5256
   72MOL    C2627148   3.048   2.158   1.659 -0.0033  0.0903  0.0323
   72MOL    C2727149   3.079   2.116   1.789  0.6470 -0.3243  0.4079
   72MOL    C2827150   3.154   2.197   1.877 -0.8759  0.0962  0.2577
   72MOL    C2927151   3.201   2.326   1.833 -0.4202 -0.5515 -0.2198
   72MOL    C3027152   3.177   2.363   1.702  0.5120 -0.0446  0.3362
   72MOL    C3127153   3.093   2.290   1.616 -0.4956  0.4971 -0.0812
   72MOL    H3227154   3.196   1.689   1.564  0.0535 -0.9476  1.9075
   72MOL    H3327155   3.173   1.944   1.566  0.4128  0.9170  0.8242
   72MOL    H3427156   2.892   1.930   1.674 -1.2538  1.6577 -1.2278
   72MOL    H3527157   2.903   1.917   1.495  0.4279  0.9063 -1.1537
   72MOL    H3627158   3.036   2.025   1.827 -0.5230  0.0045 -0.0942
   72MOL    H3727159   3.185   2.170   1.977 -1.5160 -0.5309  0.2927
   72MOL    H3827160   3.254   2.400   1.891  0.9017 -1.4926 -0.1944
   72MOL    H3927161   3.210   2.462   1.673  2.5211 -1.1482 -1.2710
   72MOL    C4027162   3.052   2.343   1.480 -0.0445 -0.1928  0.3328
   72MOL    C4127163   2.922   2.409   1.437  0.1638  0.0203 -0.3874
   72MOL    O4227164   3.029   2.485   1.483  0.6407 -0.2750  0.2939
   72MOL    C4327165   2.806   2.433   1.519 -0.7026  0.2052  0.2650
   72MOL    O4427166   2.718   2.530   1.460  0.1030 -0.3053 -0.1416
   72MOL    C4527167   2.645   2.493   1.351  0.3248 -0.2193  0.4681
   72MOL    C4627168   2.631   2.358   1.298 -0.0227 -0.2181 -0.0091
   72MOL    C4727169   2.553   2.338   1.184 -0.4858  0.3196  0.6280
   72MOL    C4827170   2.482   2.439   1.125  0.6403 -0.3148  0.7059
   72MOL    C4927171   2.497   2.571   1.177  0.6595 -0.0521 -0.3650
   72MOL    C5027172   2.572   2.599   1.290 -0.1030 -0.3564  0.0687
   72MOL    H5127173   3.134   2.319   1.413 -0.9667  0.9122 -1.2449
   72MOL    H5227174   2.911   2.405   1.329  1.1645  1.6155 -0.5588
   72MOL    H5327175   2.832   2.452   1.623  1.9951 -0.0865 -0.3123
   72MOL    H5427176   2.749   2.341   1.530 -0.9123  0.3971  0.7752
   72MOL    H5527177   2.698   2.284   1.339  1.3158  1.6456  1.1997
   72MOL    H5627178   2.545   2.238   1.144 -0.2017  0.1868  0.8967
   72MOL    H5727179   2.430   2.420   1.033 -0.1493 -0.4222  1.1723
   72MOL    H5827180   2.448   2.652   1.126  0.4523 -0.3697 -0.6661
   72MOL    C5927181   2.589   2.745   1.333 -0.6167  0.0888 -0.3114
   72MOL    C6027182   2.717   2.821   1.330  0.8352  0.0295  0.7702
   72MOL    O6127183   2.615   2.835   1.227  0.7811 -0.7638  0.0224
   72MOL    C6227184   2.845   2.767   1.288  0.1503 -0.2560  0.1540
   72MOL    O6327185   2.944   2.863   1.326  0.0932  0.2810  0.3405
   72MOL    C6427186   3.011   2.847   1.445 -0.5530  0.2575 -0.0995
   72MOL    C6527187   2.941   2.797   1.559 -0.3380 -0.3335 -0.8816
   72MOL    C6627188   3.011   2.788   1.682  0.5947 -0.1384  0.2184
   72MOL    C6727189   3.147   2.827   1.689  0.3880 -0.1283 -0.8551
   72MOL    C6827190   3.206   2.898   1.584 -0.1071  0.3584  0.1571
   72MOL    C6927191   3.139   2.896   1.457  0.3015  0.5744  0.0326
   72MOL    H7027192   2.516   2.776   1.407  1.6013  1.9763  1.1825
   72MOL    H7127193   2.725   2.896   1.409 -0.8333  0.1576  0.8367
   72MOL    H7227194   2.836   2.763   1.179  1.1379  0.3201  0.0433
   72MOL    H7327195   2.864   2.665   1.321 -1.8277 -0.0090  2.1376
   72MOL    H7427196   2.838   2.764   1.560 -0.1344 -1.0787 -2.5965
   72MOL    H7527197   2.962   2.751   1.772 -0.7340 -1.4166 -1.0070
   72MOL    H7627198   3.204   2.822   1.780 -1.0839  1.0401  0.1514
   72MOL    H7727199   3.306   2.933   1.602  0.5874 -1.2910 -0.3806
   72MOL    C7827200   3.201   2.963   1.336  0.1977  0.6245 -0.2333
   72MOL    C7927201   3.158   3.106   1.304  1.1859 -0.1103 -0.3063
   72MOL    O8027202   3.275   3.074   1.386 -0.2664 -0.2997  0.4144
   72MOL    C8127203   3.032   3.162   1.371  0.6075  0.6207 -0.8941
   72MOL    O8227204   3.034   3.303   1.352 -0.4697  0.0581 -0.2269
   72MOL    C8327205   2.916   3.369   1.380 -0.1150  0.0323 -0.6765
   72MOL    C8427206   2.821   3.332   1.475  0.3152 -0.2122  0.2396
   72MOL    C8527207   2.706   3.408   1.494  0.0085 -0.0193  0.5697
   72MOL    C8627208   2.696   3.533   1.434 -0.5975 -0.2958 -0.0562
   72MOL    C8727209   2.792   3.575   1.332  0.5606  0.6862 -0.2621
   72MOL    C8827210   2.900   3.487   1.306 -0.0673  0.7899 -0.0234
   72MOL    H8927211   3.252   2.899   1.265 -0.9878  0.4891 -0.9726
   72MOL    H9027212   3.181   3.154   1.209  0.7358  2.6329  0.9298
   72MOL    H9127213   3.030   3.140   1.478 -1.2660 -1.9426 -1.4034
   72MOL    H9227214   2.937   3.125   1.331 -1.0989  3.5042  0.3042
   72MOL    H9327215   2.830   3.241   1.531  0.7511  0.0480  0.5956
   72MOL    H9427216   2.627   3.383   1.563 -2.8463 -3.9865 -3.8536
   72MOL    H9527217   2.610   3.594   1.456 -0.4155 -0.2997  0.6931
   72MOL    H9627218   2.773   3.664   1.274  0.2048  1.0914  0.4608
   72MOL    C9727219   2.998   3.523   1.199  0.4432 -0.3997 -0.2007
   72MOL    C9827220   2.978   3.508   1.053  0.0976  0.2491 -0.3444
   72MOL    O9927221   2.955   3.639   1.118 -0.6070  0.1413  0.2262
   72MOL   C10027222   2.859   3.447   0.978  1.0765 -1.1536  0.3067
   72MOL   O10127223   2.846   3.306   0.996  0.6015  0.3218  0.3893
   72MOL   C10227224   2.941   3.221   0.937 -0.1396  0.3598 -0.3700
   72MOL   C10327225   3.049   3.262   0.857  0.0951  0.3753  0.3192
   72MOL   C10427226   3.151   3.177   0.814 -1.0157 -0.0544 -0.1798
   72MOL   C10527227   3.132   3.041   0.851 -0.5180 -0.4489  0.1567
   72MOL   C10627228   3.012   3.000   0.915 -0.6843 -0.3878  0.5649
   72MOL   C10727229   2.910   3.092   0.952  0.5833  0.7959 -0.5514
   72MOL   H10827230   3.101   3.530   1.234 -0.3571  1.9288  1.9128
   72MOL   H10927231   3.066   3.499   0.989  0.5366 -1.1932  0.4294
   72MOL   H11027232   2.846   3.480   0.875 -0.0540 -1.4796  0.3425
   72MOL   H11127233   2.774   3.484   1.034  1.3872  2.0315 -1.1975
   72MOL   H11227234   3.057   3.365   0.826 -0.8922  0.0994 -0.8626
   72MOL   H11327235   3.243   3.207   0.766 -0.6386 -2.3493 -0.9384
   72MOL   H11427236   3.207   2.970   0.821  0.2213  0.6402 -0.6124
   72MOL   H11527237   3.001   2.896   0.942  0.1050 -0.3023  1.2226
   72MOL   C11627238   2.779   3.044   1.016 -0.7704  0.0207 -0.1934
   72MOL   C11727239   2.663   2.999   0.928 -0.1477  0.7839  0.0265
   72MOL   O11827240   2.751   2.906   1.000  1.5945  0.4705 -0.5071
   72MOL   C11927241   2.677   2.971   0.776  0.4011 -0.1257 -0.6412
   72MOL   O12027242   2.624   3.085   0.701 -0.7316 -0.1215  0.8349
   72MOL   C12127243   2.584   3.065   0.570 -1.2431  0.1557 -0.0908
   72MOL   C12227244   2.519   2.949   0.516 -0.2599  1.0616  0.5216
   72MOL   C12327245   2.465   2.962   0.386 -0.4296  0.0146  0.4369
   72MOL   C12427246   2.485   3.074   0.305  0.0863  0.6107 -0.4620
   72MOL   C12527247   2.556   3.182   0.356  0.3383  0.0244 -0.0039
   72MOL   C12627248   2.614   3.181   0.488  0.1433  0.0032 -0.2922
   72MOL   H12727249   2.763   3.081   1.117 -2.1806 -2.3928  0.5040
   72MOL   H12827250   2.563   3.025   0.961 -0.5713 -1.1516  0.3642
   72MOL   H12927251   2.617   2.880   0.776 -0.4720  0.4419 -2.0475
   72MOL   H13027252   2.781   2.950   0.750  0.9755 -0.1273  1.5536
   72MOL   H13127253   2.502   2.863   0.579  1.8450  0.8768  0.8781
   72MOL   H13227254   2.403   2.883   0.346  0.4690 -0.1526 -0.6600
   72MOL   H13327255   2.437   3.093   0.210 -0.7062 -0.3410 -0.2474
   72MOL   H13427256   2.568   3.270   0.296 -0.6895 -0.5878 -1.1208
   72MOL   C13527257   2.689   3.296   0.536  0.3342 -0.5413  0.7319
   72MOL   C13627258   2.839   3.315   0.530  0.0813  0.0020  0.6252
   72MOL   O13727259   2.757   3.363   0.425  0.0257 -0.0624  0.7152
   72MOL   C13827260   2.929   3.194   0.513  0.3354 -0.7084  0.1104
   72MOL   O13927261   3.057   3.256   0.489  0.2146 -0.9174  0.0059
   72MOL   C14027262   3.160   3.189   0.438  0.3668 -0.5121  0.0258
   72MOL   C14127263   3.165   3.047   0.451  0.0075 -0.4539  0.0350
   72MOL   C14227264   3.284   2.982   0.406 -0.2461  0.0595 -0.1952
   72MOL   C14327265   3.393   3.054   0.354 -0.0965 -1.0830 -0.0081
   72MOL   C14427266   3.387   3.194   0.353  0.5448 -0.2424 -0.0243
   72MOL   C14527267   3.272   3.261   0.386  0.1429 -0.0277  0.4119
   72MOL   H14627268   2.631   3.369   0.593 -1.9707 -1.7616  0.0211
   72MOL   H14727269   2.869   3.387   0.606  0.9657 -0.4282  0.6801
   72MOL   H14827270   2.897   3.130   0.431  1.3284 -0.3876 -0.5366
   72MOL   H14927271   2.938   3.143   0.609  0.5981  0.8278  0.9290
   72MOL   H15027272   3.080   2.993   0.491  0.5281 -1.1384  0.2258
   72MOL   H15127273   3.294   2.874   0.411 -1.0003 -0.1036 -1.9266
   72MOL   H15227274   3.485   3.003   0.327  0.0687 -0.0810 -1.3793
   72MOL   H15327275   3.477   3.246   0.323  0.3390  0.1867  0.0955
   72MOL   C15427276   3.267   3.401   0.343  0.1698  0.2359  0.1997
   72MOL   C15527277   3.280   3.519   0.444  0.5203 -0.0962  0.2892
   72MOL   O15627278   3.393   3.459   0.375 -0.0757  0.1473  0.3309
   72MOL   C15727279   3.272   3.499   0.591 -0.3248 -0.5817 -0.1351
   72MOL   O15827280   3.321   3.615   0.657 -0.1348 -0.4005 -0.0335
   72MOL   C15927281   3.331   3.627   0.793  0.7881 -0.0586 -0.2039
   72MOL   C16027282   3.338   3.515   0.883  0.3605  0.1699  0.6665
   72MOL   C16127283   3.345   3.536   1.023  0.2441 -0.0206  0.1742
   72MOL   C16227284   3.349   3.667   1.073  0.2518  0.1175 -0.2123
   72MOL   C16327285   3.341   3.777   0.987  0.3057 -0.1910  0.4553
   72MOL   C16427286   3.336   3.760   0.847 -0.1350  0.9219 -0.4505
   72MOL   H16527287   3.238   3.418   0.239 -1.8162 -1.5371  0.4168
   72MOL   H16627288   3.261   3.620   0.409 -1.6610 -0.3763  0.5897
   72MOL   H16727289   3.309   3.403   0.625  1.3031  0.2462  0.4959
   72MOL   H16827290   3.167   3.512   0.617  0.6581  5.0496  1.8362
   72MOL   H16927291   3.353   3.414   0.850  2.8859  0.7696 -0.0831
   72MOL   H17027292   3.354   3.454   1.092 -0.3159  0.3433  0.6826
   72MOL   H17127293   3.360   3.687   1.179 -0.0379  3.4087 -0.7427
   72MOL   H17227294   3.325   3.877   1.023 -0.7007  0.3633 -1.4875
   72MOL   C17327295   3.312   3.873   0.754 -0.4025 -0.4356  0.7863
   72MOL   C17427296   3.182   3.902   0.686  0.0024 -0.5419  0.2275
   72MOL   O17527297   3.215   3.966   0.807 -0.2755 -0.1397 -0.4320
   72MOL   C17627298   3.052   3.822   0.690 -0.4099  0.1061  0.2042
   72MOL   O17727299   2.935   3.897   0.720 -0.7088  0.2503  0.2636
   72MOL   C17827300   2.903   3.934   0.851 -0.0701  0.7435 -0.2255
   72MOL   C17927301   2.973   3.893   0.965  0.4183 -0.0289 -0.9033
   72MOL   C18027302   2.930   3.937   1.090  0.1601  0.2323 -0.6710
   72MOL   C18127303   2.825   4.030   1.101 -0.4898  0.2324  0.2529
   72MOL   C18227304   2.744   4.061   0.991  0.2126  0.0906 -0.4008
   72MOL   C18327305   2.784   4.015   0.865  0.0524  0.4304 -0.1377
   72MOL   H18427306   3.405   3.911   0.713 -0.6013  0.7747  1.4329
   72MOL   H18527307   3.193   3.966   0.599 -0.5459  1.9256  1.9520
   72MOL   H18627308   3.053   3.731   0.751  0.5694  0.2238  0.3618
   72MOL   H18727309   3.041   3.786   0.588 -1.6603  1.6155 -0.2157
   72MOL   H18827310   3.055   3.825   0.949 -0.9786 -1.5902 -1.5800
   72MOL   H18927311   2.985   3.903   1.176  1.1068 -0.0567 -1.3748
   72MOL   H19027312   2.787   4.072   1.193 -0.2023  0.3704  0.3077
   72MOL   H19127313   2.658   4.125   1.010  0.6856  0.1965  1.4412
   72MOL   C19227314   2.709   4.063   0.744  0.6637  0.3870  0.5919
   72MOL   C19327315   2.604   3.983   0.676  0.1829  0.2966  0.7977
   72MOL   O19427316   2.573   4.089   0.764  0.2905 -0.4691  0.0354
   72MOL   C19527317   2.549   3.842   0.711  0.0385  0.5330  0.7263
   72MOL   O19627318   2.605   3.804   0.831  0.4545 -0.3712  0.3764
   72MOL   C19727319   2.567   3.683   0.891  0.1418  0.2277  0.5292
   72MOL   C19827320   2.559   3.559   0.815  0.4444  0.0166  0.2130
   72MOL   C19927321   2.532   3.437   0.876 -0.9241 -0.1638  0.5840
   72MOL   C20027322   2.493   3.436   1.011 -0.1056  0.0598 -0.9474
   72MOL   C20127323   2.489   3.559   1.082  0.6465 -0.7852  0.3381
   72MOL   C20227324   2.538   3.679   1.030  0.2924 -1.0963 -0.0789
   72MOL   H20327325   2.765   4.135   0.685 -1.0907  0.6570 -0.7693
   72MOL   H20427326   2.585   4.019   0.575 -0.5849 -2.9967 -0.2838
   72MOL   H20527327   2.585   3.766   0.642 -0.6178  2.1753 -1.4699
   72MOL   H20627328   2.440   3.846   0.716  0.1457  3.4359  1.9922
   72MOL   H20727329   2.593   3.562   0.712  3.4144 -1.6235  1.1173
   72MOL   H20827330   2.524   3.345   0.820 -0.3106 -1.0602  1.9407
   72MOL   H20927331   2.470   3.338   1.052  0.4589  0.5647  0.6032
   72MOL   H21027332   2.466   3.548   1.187  1.5617 -0.6674  0.5563
   72MOL   C21127333   2.549   3.801   1.120  0.1536 -0.2068 -0.1175
   72MOL   C21227334   2.451   3.917   1.118 -0.3589 -0.1240 -0.2595
   72MOL   O21327335   2.436   3.803   1.208 -0.3449 -1.1336  0.3878
   72MOL   C21427336   2.346   3.941   1.007  0.3958  0.2983 -0.1611
   72MOL   O21527337   2.252   4.030   1.066 -0.1183  0.2293  0.0231
   72MOL   C21627338   2.113   4.014   1.042 -0.3494 -0.1935 -0.0696
   72MOL   C21727339   2.055   3.937   0.940 -0.6713 -0.0482 -0.1925
   72MOL   C21827340   1.920   3.929   0.921  0.4717  0.2181 -0.1239
   72MOL   C21927341   1.828   3.996   1.008  0.5031  0.3048  0.8143
   72MOL   C22027342   1.882   4.068   1.117  0.4044  0.4005  0.6125
   72MOL   C22127343   2.023   4.086   1.127  0.1941  0.2247 -0.4632
   72MOL   H22227344   2.646   3.820   1.165  0.1135 -0.9883  0.2968
   72MOL   H22327345   2.492   4.009   1.158 -0.9628 -0.3420  0.8862
   72MOL   H22427346   2.309   3.845   0.971 -0.6780  1.2182 -1.5741
   72MOL   H22527347   2.400   3.988   0.925  4.1623 -0.0356  2.0375
   72MOL   H22627348   2.118   3.872   0.881  1.4326 -0.0028  1.8956
   72MOL   H22727349   1.887   3.863   0.842  0.8905  0.3102 -0.3800
   72MOL   H22827350   1.722   3.986   0.994  0.9016  0.8378 -3.2105
   72MOL   H22927351   1.813   4.109   1.189 -0.1034  1.0736 -0.2507
   72MOL   C23027352   2.084   4.166   1.241 -0.2977 -0.5236 -0.5178
   72MOL   C23127353   2.135   4.306   1.225  0.1239 -0.3388 -0.4457
   72MOL   O23227354   1.998   4.280   1.275 -0.2731 -0.4045  0.5837
   72MOL   C23327355   2.145   4.372   1.091  0.1069 -0.1198  0.8965
   72MOL   O23427356   2.136   4.509   1.095  0.0211 -0.2150  0.1030
   72MOL   C23527357   2.010   4.566   1.101 -0.0169 -0.8897  0.3020
   72MOL   C23627358   1.886   4.505   1.076 -0.3571 -0.0385  0.0641
   72MOL   C23727359   1.768   4.574   1.105  0.1453  0.2152 -0.2192
   72MOL   C23827360   1.769   4.709   1.138 -0.0550  0.5706  0.4094
   72MOL   C23927361   1.894   4.778   1.155  0.1154  0.4204  0.0960
   72MOL   C24027362   2.013   4.702   1.139 -0.4542  0.4136  0.3917
   72MOL   H24127363   2.133   4.108   1.319 -1.2074 -0.8496 -0.1893
   72MOL   H24227364   2.195   4.355   1.301  1.3507 -0.5524 -1.2767
   72MOL   H24327365   2.081   4.330   1.013  1.5426 -1.5694  0.4761
   72MOL   H24427366   2.244   4.352   1.052 -0.1703  0.2943 -0.0402
   72MOL   H24527367   1.893   4.406   1.033  4.3344 -0.5328  1.6755
   72MOL   H24627368   1.677   4.516   1.095  0.0184  0.5226 -0.8453
   72MOL   H24727369   1.675   4.756   1.162  0.4921  1.6316  0.5182
   72MOL   H24827370   1.896   4.879   1.192  1.1032 -0.7432  3.4309
   72MOL   C24927371   2.146   4.765   1.162 -0.3115 -0.3145  0.3577
   72MOL   C25027372   2.250   4.811   1.055  0.5168  0.0697 -1.2505
   72MOL   O25127373   2.145   4.894   1.091 -0.1613  0.3405  0.2519
   72MOL   C25227374   2.251   4.787   0.911 -0.4695  0.3282  0.8959
   72MOL   O25327375   2.125   4.763   0.861  0.2686 -0.4687 -0.5021
   72MOL   C25427376   2.106   4.758   0.727 -0.9416 -0.4477  0.2141
   72MOL   C25527377   2.215   4.749   0.636  0.2279  0.4901 -0.0977
   72MOL   C25627378   2.178   4.742   0.495 -0.0814  0.0951 -0.0796
   72MOL   C25727379   2.047   4.756   0.453 -0.4106 -0.2622 -0.5868
   72MOL   C25827380   1.949   4.775   0.553  0.0056  0.5106  0.3825
   72MOL   C25927381   1.970   4.768   0.688  0.0815 -0.6202 -0.1967
   72MOL   H26027382   2.169   4.774   1.268  1.8260 -0.7893 -0.0516
   72MOL   H26127383   2.346   4.844   1.093 -1.0840  1.1114  2.0983
   72MOL   H26227384   2.307   4.693   0.912 -0.2363  0.4463 -0.3217
   72MOL   H26327385   2.304   4.873   0.871  1.8321 -1.2296  0.4877
   72MOL   H26427386   2.319   4.734   0.662 -0.3884 -2.5405  0.7975
   72MOL   H26527387   2.258   4.729   0.424 -0.5695  0.8932 -0.7913
   72MOL   H26627388   2.013   4.763   0.351  0.1636  1.0985 -0.7009
   72MOL   H26727389   1.844   4.789   0.532  0.1163  2.6332  1.1501
   72MOL   C26827390   1.856   4.778   0.787 -0.0976 -0.9179  0.3376
   72MOL   C26927391   1.823   4.904   0.847 -0.4225  0.0931 -0.4873
   72MOL   O27027392   1.736   4.850   0.747  0.0427  0.6153  0.2715
   72MOL   C27127393   1.885   5.035   0.816  0.0286 -0.7600  0.0857
   72MOL   O27227394   1.782   5.121   0.858 -0.3897 -0.0161  0.7069
   72MOL   C27327395   1.777   5.248   0.814 -0.3708  0.4677  0.0581
   72MOL   C27427396   1.880   5.301   0.733  0.6924  0.1713 -0.1488
   72MOL   C27527397   1.862   5.428   0.676 -0.2030 -1.4346 -0.7772
   72MOL   C27627398   1.757   5.514   0.726  0.5496  0.6591  0.0707
   72MOL   C27727399   1.660   5.463   0.809 -0.6716  0.3808  0.0513
   72MOL   C27827400   1.667   5.328   0.855  0.0204 -0.0751 -0.0153
   72MOL   H27927401   1.852   4.699   0.861 -0.7895 -0.2698  0.9963
   72MOL   H28027402   1.782   4.885   0.947 -0.9119 -0.0165 -0.7055
   72MOL   H28127403   1.917   5.025   0.712 -1.2784 -0.7872 -0.3217
   72MOL   H28227404   1.975   5.046   0.876 -0.3446  0.2990  0.4478
   72MOL   H28327405   1.963   5.238   0.705 -0.4717 -1.9613  1.0461
   72MOL   H28427406   1.935   5.468   0.607  0.3981 -2.4257 -0.7223
   72MOL   H28527407   1.730   5.607   0.678  3.0303  0.8957 -0.9067
   72MOL   H28627408   1.584   5.538   0.827 -0.5873  0.6778 -0.8046
   72MOL   C28727409   1.563   5.274   0.951  1.3547  0.1603  0.1589
   72MOL   C28827410   1.554   5.321   1.094  0.1180  0.4598  0.4446
   72MOL   O28927411   1.475   5.382   0.995 -0.2976 -0.1041 -0.6118
   72MOL   C29027412   1.652   5.405   1.166  0.4854  0.1752 -0.5735
   72MOL   O29127413   1.595   5.476   1.273 -0.1113  0.1803 -0.5409
   72MOL   C29227414   1.583   5.418   1.397 -0.2950 -0.3980  0.1182
   72MOL   C29327415   1.647   5.295   1.421  0.6875  0.1268 -0.4901
   72MOL   C29427416   1.637   5.238   1.551  0.6734  0.5332  0.5628
   72MOL   C29527417   1.559   5.302   1.652  0.6900  0.0337  0.0414
   72MOL   C29627418   1.494   5.424   1.624  0.9404 -0.2976  0.4204
   72MOL   C29727419   1.508   5.485   1.499 -0.1826  0.7060  0.2271
   72MOL   H29827420   1.521   5.181   0.912 -0.0513 -0.4080  2.9260
   72MOL   H29927421   1.509   5.244   1.157 -0.4182  0.3164 -0.1121
   72MOL   H30027422   1.682   5.489   1.103  0.6225  1.4568  1.1711
   72MOL   H30127423   1.740   5.343   1.186 -0.3253 -0.7688  0.1529
   72MOL   H30227424   1.718   5.240   1.360  1.4682  2.5968 -1.8533
   72MOL   H30327425   1.699   5.150   1.558  0.5755  0.3064 -1.1662
   72MOL   H30427426   1.567   5.252   1.747  0.3049  1.3273  0.7724
   72MOL   H30527427   1.435   5.465   1.705 -0.1005 -2.3634  0.7395
   72MOL   C30627428   1.427   5.611   1.467 -0.3398 -0.4810  0.8595
   72MOL   C30727429   1.296   5.623   1.400 -1.0804  0.6820 -0.1810
   72MOL   O30827430   1.303   5.636   1.539 -0.5806  0.4500  0.7218
   72MOL   C30927431   1.217   5.502   1.349 -0.2817 -0.5428 -0.1520
   72MOL   O31027432   1.091   5.541   1.294 -0.1699 -0.1112  0.7549
   72MOL   C31127433   0.999   5.442   1.260  1.0889  0.7221  0.5463
   72MOL   C31227434   1.016   5.300   1.281 -0.5485 -0.1070 -0.2757
   72MOL   C31327435   0.908   5.212   1.255  0.1283  0.0167 -0.4502
   72MOL   C31427436   0.788   5.264   1.197  0.7044  0.5680 -0.1076
   72MOL   C31527437   0.764   5.405   1.194  0.3716 -0.0455  0.7190
   72MOL   C31627438   0.876   5.490   1.212 -0.3943  0.6646 -0.1773
   72MOL   H31727439   1.492   5.698   1.457 -0.9998 -0.2384 -1.6199
   72MOL   H31827440   1.285   5.717   1.346 -2.5044  1.0336  0.7018
   72MOL   H31927441   1.185   5.429   1.424  0.6203 -1.0773 -0.2775
   72MOL   H32027442   1.284   5.447   1.282  0.7955  1.2485 -0.5667
   72MOL   H32127443   1.107   5.258   1.323  0.0568  1.3822 -0.0736
   72MOL   H32227444   0.916   5.105   1.265 -0.3116 -0.0538 -0.8249
   72MOL   H32327445   0.710   5.198   1.161  1.3120 -0.9204  1.2445
   72MOL   H32427446   0.673   5.456   1.165  0.2748 -0.1473  0.8423
   72MOL   C32527447   0.851   5.636   1.179  0.8417  0.6456  0.4706
   72MOL   C32627448   0.930   5.699   1.072  0.2861 -0.5494 -0.8779
   72MOL   O32727449   0.798   5.638   1.048  0.5902  0.0081  0.0549
   72MOL   C32827450   1.040   5.635   0.992 -1.0831 -0.8015 -0.3756
   72MOL   O32927451   1.065   5.729   0.885 -0.3456 -0.4338  0.0506
   72MOL   C33027452   1.139   5.671   0.783 -0.3551  0.2356  0.3292
   72MOL   C33127453   1.256   5.588   0.808  0.4551  0.1399  0.2656
   72MOL   C33227454   1.325   5.528   0.696  0.1486 -0.1910 -0.4216
   72MOL   C33327455   1.280   5.555   0.569 -0.0880 -0.3999 -0.1096
   72MOL   C33427456   1.177   5.644   0.544 -0.3301  0.2285  0.1535
   72MOL   C33527457   1.102   5.696   0.655 -0.1286  0.9536  0.1219
   72MOL   H33627458   0.821   5.702   1.259  0.7813 -0.8535  1.7134
   72MOL   H33727459   0.920   5.807   1.060 -0.6064 -0.6420 -1.0559
   72MOL   H33827460   1.004   5.542   0.949 -3.2350  0.6449 -1.8284
   72MOL   H33927461   1.124   5.617   1.059 -1.9678 -1.5029  0.5505
   72MOL   H34027462   1.302   5.583   0.906 -0.9056  1.3448  0.9952
   72MOL   H34127463   1.411   5.464   0.713  0.7556  0.6512 -0.2984
   72MOL   H34227464   1.324   5.507   0.483  2.1391  0.5031  0.4848
   72MOL   H34327465   1.142   5.662   0.444  2.4437 -2.1724 -1.3453
   72MOL   C34427466   0.974   5.773   0.634  0.3370 -0.4900 -0.6791
   72MOL   C34527467   0.965   5.901   0.557  0.0658 -0.5583 -0.1433
   72MOL   O34627468   0.936   5.769   0.498  0.3890  0.0095  0.2634
   72MOL   C34727469   1.089   5.979   0.516 -0.0803  0.4655 -0.6315
   72MOL   O34827470   1.053   6.066   0.413  0.3230 -0.1749 -0.2706
   72MOL   C34927471   0.969   6.178   0.445  0.2256 -0.2669 -0.0188
   72MOL   C35027472   0.952   6.231   0.574 -0.3616 -0.2944 -0.0705
   72MOL   C35127473   0.884   6.350   0.593 -0.6003  0.4015 -0.2360
   72MOL   C35227474   0.819   6.415   0.489 -0.1887 -0.3203  0.1721
   72MOL   C35327475   0.843   6.365   0.361  0.7812  0.3243  0.2421
   72MOL   C35427476   0.919   6.246   0.333  0.7658 -0.1994 -0.0499
   72MOL   H35527477   0.897   5.726   0.695  0.2214  2.0576  1.2200
   72MOL   H35627478   0.882   5.961   0.594 -0.2411 -0.9694 -0.1688
   72MOL   H35727479   1.162   5.905   0.484  0.4187  0.4165  0.5997
   72MOL   H35827480   1.133   6.030   0.601 -0.0573  1.4464 -1.2183
   72MOL   H35927481   0.978   6.181   0.666 -1.7576 -0.8848  0.0186
   72MOL   H36027482   0.879   6.395   0.691  0.2226  0.7249 -0.3381
   72MOL   H36127483   0.763   6.507   0.502 -0.9043 -0.6781 -0.3255
   72MOL   H36227484   0.808   6.418   0.274  2.1451  0.4817 -0.2159
   72MOL   C36327485   0.936   6.192   0.193 -0.3557  0.4039  0.2009
   72MOL   C36427486   0.874   6.069   0.143  0.6726 -0.3080  0.6291
   72MOL   O36527487   0.803   6.192   0.124 -0.5369 -0.5654 -0.0499
   72MOL   C36627488   0.793   5.956   0.213  0.0429  1.0414 -0.4084
   72MOL   O36727489   0.685   5.924   0.121 -0.3645  0.1520 -0.0791
   72MOL   C36827490   0.611   5.815   0.143  0.0751  0.0519  0.6634
   72MOL   C36927491   0.532   5.777   0.034  0.1923  1.0074  0.7268
   72MOL   C37027492   0.454   5.663   0.038  0.0111 -0.6109 -0.0128
   72MOL   C37127493   0.449   5.580   0.155  0.4822  0.2027  0.1855
   72MOL   C37227494   0.526   5.617   0.266 -1.1405  0.1972 -0.5123
   72MOL   C37327495   0.606   5.733   0.260 -0.3491 -0.4978  0.3427
   72MOL   H37427496   1.016   6.246   0.143 -0.8172  0.2872 -0.6782
   72MOL   H37527497   0.902   6.025   0.048  2.0512  1.1549  0.3280
   72MOL   H37627498   0.763   5.990   0.312  0.6534 -0.8005  0.4285
   72MOL   H37727499   0.854   5.866   0.213 -0.0519  0.9757  0.1005
   72MOL   H37827500   0.530   5.840   8.117 -1.2334  0.6161  0.4636
   72MOL   H37927501   0.398   5.635   8.119  0.5484  1.3353 -0.9924
   72MOL   H38027502   0.393   5.489   0.136 -0.3229  0.6767  0.2942
   72MOL   H38127503   0.520   5.548   0.349 -0.9023 -0.6394 -1.1823
   72MOL   H38227504   0.672   5.753   0.344 -0.5429 -0.3115  0.4514
   73MOL     C127505   1.206   2.720   4.024  0.3824 -0.3712 -0.3930
   73MOL     C227506   1.236   2.599   4.109  0.1829  0.1503  0.4434
   73MOL     O327507   1.289   2.621   3.966  0.1435  0.3902  0.0169
   73MOL     C427508   1.126   2.499   4.124 -0.4229  0.0143  0.0490
   73MOL     O527509   1.022   2.549   4.199 -0.1365 -0.7930  0.3761
   73MOL     C627510   0.912   2.463   4.234  0.0817  0.2726  0.4498
   73MOL     C727511   0.914   2.321   4.222 -0.4699 -0.1754 -0.6433
   73MOL     C827512   0.803   2.240   4.262  0.0430 -0.0235  0.1013
   73MOL     C927513   0.683   2.297   4.310  0.2885 -0.5217 -0.0590
   73MOL    C1027514   0.688   2.441   4.327  0.1525  0.1638  0.0226
   73MOL    C1127515   0.795   2.522   4.294  1.4721  0.2323  0.0230
   73MOL    H1227516   1.238   2.819   4.054 -2.3198  1.2641 -2.6431
   73MOL    H1327517   1.319   2.586   4.178  0.2782  0.6788  0.4286
   73MOL    H1427518   1.164   2.409   4.173  0.8528  0.6350  0.2352
   73MOL    H1527519   1.102   2.452   4.028  0.9481 -0.1601 -0.2165
   73MOL    H1627520   0.997   2.267   4.180 -1.1236 -1.6343 -0.0914
   73MOL    H1727521   0.813   2.133   4.269 -1.6685 -0.2489 -0.4938
   73MOL    H1827522   0.598   2.235   4.331  0.9300 -0.6404  2.3742
   73MOL    H1927523   0.610   2.494   4.378  1.5188  0.8149  1.4865
   73MOL    H2027524   1.116   2.725   3.962 -0.4141 -0.6491  0.7295
   73MOL    C2127525   0.780   2.663   4.331  0.1206 -0.6674  0.7098
   73MOL    C2227526   0.775   2.779   4.223 -0.2697 -0.6634 -0.4133
   73MOL    O2327527   0.658   2.716   4.275 -0.9028 -0.3361  0.1136
   73MOL    C2427528   0.822   2.754   4.088 -0.2542 -0.7785  0.9411
   73MOL    O2527529   0.788   2.866   4.011 -0.2504 -0.4677  0.0048
   73MOL    C2627530   0.658   2.879   3.962  0.1450  0.1603 -0.8254
   73MOL    C2727531   0.556   2.778   3.962 -0.0595  0.0354 -0.4675
   73MOL    C2827532   0.430   2.806   3.900  0.2237 -0.5416 -0.5489
   73MOL    C2927533   0.402   2.935   3.842  0.1806 -0.0229  0.4572
   73MOL    C3027534   0.502   3.035   3.849 -0.6116  0.1075 -0.4228
   73MOL    C3127535   0.625   3.009   3.905  0.3201  0.2098 -0.1788
   73MOL    H3227536   0.797   2.691   4.434  0.1183 -3.6861  1.5829
   73MOL    H3327537   0.782   2.877   4.268  1.2351 -1.3555  0.8807
   73MOL    H3427538   0.777   2.666   4.042 -0.1728  1.1641 -2.9870
   73MOL    H3527539   0.931   2.748   4.085 -0.0267  1.7492  2.5913
   73MOL    H3627540   0.558   2.680   4.009  1.0064 -0.1281 -0.8516
   73MOL    H3727541   0.351   2.732   3.900  0.3613 -0.6906 -2.2717
   73MOL    H3827542   0.300   2.957   3.814  0.4601 -0.8143 -1.2471
   73MOL    H3927543   0.480   3.137   3.818  0.8526  0.2568 -1.0203
   73MOL    C4027544   0.733   3.118   3.906 -0.4044 -0.0575 -0.2050
   73MOL    C4127545   0.795   3.177   3.780  0.8338 -0.2968 -0.9253
   73MOL    O4227546   0.679   3.237   3.847  0.0825  0.4300 -0.1574
   73MOL    C4327547   0.776   3.122   3.642  0.1511  0.4727  0.4810
   73MOL    O4427548   0.768   2.983   3.625 -0.0166  0.0709  0.6525
   73MOL    C4527549   0.883   2.909   3.640  0.2731 -0.3879  0.1584
   73MOL    C4627550   1.013   2.965   3.622 -0.0226 -0.3401  0.0131
   73MOL    C4727551   1.127   2.893   3.638 -0.4462 -0.1748  0.1662
   73MOL    C4827552   1.125   2.760   3.673  0.6588  0.8828 -0.2328
   73MOL    C4927553   1.003   2.693   3.679  0.2878 -0.0051 -0.6885
   73MOL    C5027554   0.883   2.768   3.661 -0.5659  0.1483  0.4822
   73MOL    H5127555   0.778   3.124   4.005  0.6422 -0.3476 -0.6550
   73MOL    H5227556   0.894   3.215   3.805 -0.5317  2.4744  0.4914
   73MOL    H5327557   0.849   3.168   3.576  0.0425 -0.2494 -0.1560
   73MOL    H5427558   0.685   3.158   3.594  1.3795 -0.1370 -2.4062
   73MOL    H5527559   1.033   3.068   3.598  0.1792 -0.4013 -0.0821
   73MOL    H5627560   1.223   2.942   3.648 -0.9929  0.4976  2.2331
   73MOL    H5727561   1.211   2.701   3.701  0.2033 -0.4699 -1.5994
   73MOL    H5827562   0.993   2.587   3.693  1.4038 -0.0423 -0.0947
   73MOL    C5927563   0.746   2.693   3.663  0.1514 -0.0013 -0.5888
   73MOL    C6027564   0.660   2.688   3.543 -0.2527 -0.8936  0.1829
   73MOL    O6127565   0.739   2.573   3.586  0.2912 -0.1009  0.3849
   73MOL    C6227566   0.691   2.754   3.413 -0.0994 -0.6920 -0.2561
   73MOL    O6327567   0.574   2.755   3.339  0.1322  0.3516  0.0902
   73MOL    C6427568   0.567   2.798   3.207 -0.6090  0.4097  0.0016
   73MOL    C6527569   0.684   2.798   3.121 -0.2110 -0.4848 -0.3561
   73MOL    C6627570   0.687   2.855   2.994 -0.1170  0.2444 -0.1637
   73MOL    C6727571   0.570   2.920   2.946  0.5837  0.3511 -0.3591
   73MOL    C6827572   0.447   2.909   3.017 -0.7559 -0.1375  0.0868
   73MOL    C6927573   0.447   2.848   3.153 -0.2194 -0.4665 -0.4882
   73MOL    H7027574   0.698   2.693   3.760 -3.5565 -0.0742 -2.3227
   73MOL    H7127575   0.556   2.693   3.574  0.0704 -1.5516  1.4136
   73MOL    H7227576   0.767   2.697   3.359  0.7300  0.5666 -0.4570
   73MOL    H7327577   0.732   2.854   3.424 -1.0292 -0.0284 -2.4006
   73MOL    H7427578   0.776   2.760   3.163  0.7204  1.9977 -0.0468
   73MOL    H7527579   0.787   2.863   2.955 -0.4111 -1.0645 -1.2455
   73MOL    H7627580   0.579   2.980   2.856 -1.0420  0.0394 -0.7317
   73MOL    H7727581   0.354   2.955   2.986 -0.4365  0.2729 -0.2656
   73MOL    C7827582   0.321   2.861   3.233  0.0253  0.5233 -0.2948
   73MOL    C7927583   0.293   2.979   3.324  0.5320 -0.0055 -0.2147
   73MOL    O8027584   0.230   2.962   3.199 -0.1245 -0.2941  0.2868
   73MOL    C8127585   0.396   3.090   3.340 -0.2462  0.9246 -0.3252
   73MOL    O8227586   0.335   3.202   3.396  0.3552  0.7278 -0.2503
   73MOL    C8327587   0.417   3.312   3.411  0.4880 -0.4819  0.1863
   73MOL    C8427588   0.550   3.326   3.371 -0.0786 -0.5104 -0.1826
   73MOL    C8527589   0.623   3.442   3.400  0.0789 -0.6861 -0.2482
   73MOL    C8627590   0.566   3.552   3.470 -0.2035 -0.4899  0.1491
   73MOL    C8727591   0.428   3.541   3.498 -0.0862  0.3042 -0.2153
   73MOL    C8827592   0.351   3.422   3.463 -0.8978  0.6795  0.3279
   73MOL    H8927593   0.267   2.767   3.225  1.7669 -0.3250 -2.9246
   73MOL    H9027594   0.216   2.975   3.401  0.7175 -1.1403 -0.0663
   73MOL    H9127595   0.448   3.099   3.245 -0.1159 -1.9194 -0.5761
   73MOL    H9227596   0.462   3.060   3.422  0.8063  0.2140 -1.4037
   73MOL    H9327597   0.599   3.247   3.317  0.2500 -0.7229  0.4144
   73MOL    H9427598   0.725   3.446   3.367  0.2667  0.7553  0.5047
   73MOL    H9527599   0.617   3.644   3.492  0.8885 -1.2777  0.9799
   73MOL    H9627600   0.378   3.633   3.526  4.5028  4.3971 -4.5219
   73MOL    C9727601   0.201   3.418   3.495 -0.5643 -0.2675 -0.4344
   73MOL    C9827602   0.160   3.402   3.638  0.7680  0.2255 -0.6322
   73MOL    O9927603   0.151   3.529   3.581 -0.0444 -0.7908 -0.0160
   73MOL   C10027604   0.265   3.380   3.751 -0.6627 -0.6526  1.0099
   73MOL   O10127605   0.197   3.378   3.877  0.4524  0.0365  0.1976
   73MOL   C10227606   0.136   3.266   3.924 -1.2110  0.2675 -0.4185
   73MOL   C10327607   0.118   3.152   3.843 -0.3302 -0.5648 -0.3452
   73MOL   C10427608   0.056   3.038   3.896  0.4309  0.4725 -0.2231
   73MOL   C10527609   0.003   3.036   4.024 -0.0017 -0.5232  0.3783
   73MOL   C10627610   0.009   3.152   4.103 -0.4380  0.4282 -0.2647
   73MOL   C10727611   0.078   3.264   4.053  0.3307 -0.1472 -0.9967
   73MOL   H10827612   0.134   3.405   3.411 -0.6868 -0.3499 -0.3241
   73MOL   H10927613   0.064   3.352   3.654 -0.8194  2.8239 -1.6682
   73MOL   H11027614   0.318   3.474   3.734 -0.6997 -0.6529  0.8893
   73MOL   H11127615   0.331   3.294   3.744  1.2321  0.9512 -1.5703
   73MOL   H11227616   0.160   3.149   3.743 -0.5826  0.6532 -0.5027
   73MOL   H11327617   0.042   2.953   3.831 -1.1584  0.8968 -0.4416
   73MOL   H11427618   8.119   2.951   4.064 -0.7261  0.3176  1.1876
   73MOL   H11527619   8.133   3.155   4.201 -2.7055 -0.9656 -1.2584
   73MOL   C11627620   0.079   3.384   4.131  0.1650 -0.0594  0.1100
   73MOL   C11727621   8.161   3.503   4.107  0.2915  0.2739 -0.0248
   73MOL   O11827622   8.127   3.400   4.201  0.2388 -0.1219  0.1037
   73MOL   C11927623   8.076   3.520   3.979  0.7557  0.3603 -0.3723
   73MOL   O12027624   7.947   3.574   4.011 -0.1610 -0.2001  0.0334
   73MOL   C12127625   7.929   3.709   4.038 -0.1186  0.2332  0.1520
   73MOL   C12227626   8.035   3.804   4.034  0.2427 -0.2863  0.2382
   73MOL   C12327627   7.999   3.944   4.052 -0.4968 -0.3229 -0.4303
   73MOL   C12427628   7.864   3.982   4.061  0.3819  0.4377  0.5594
   73MOL   C12527629   7.758   3.885   4.052 -0.2705  0.1578 -0.4047
   73MOL   C12627630   7.794   3.746   4.048  0.5884 -0.7052 -0.0683
   73MOL   H12727631   0.165   3.389   4.198 -0.1060  1.1124  0.3720
   73MOL   H12827632   0.017   3.593   4.163 -0.1112  0.8001 -0.6725
   73MOL   H12927633   8.059   3.429   3.922  0.2352  0.1705  0.0799
   73MOL   H13027634   8.127   3.590   3.913  0.2805  2.3228  1.3030
   73MOL   H13127635   8.139   3.778   4.049  0.4434  0.8932  0.8506
   73MOL   H13227636   8.083   4.011   4.056 -0.7365 -0.0883  1.3670
   73MOL   H13327637   7.842   4.087   4.077  0.5249  0.2465  2.0366
   73MOL   H13427638   7.656   3.920   4.051 -0.3801 -0.0573  1.5990
   73MOL   C13527639   7.681   3.643   4.026  0.2114  0.1899  0.1091
   73MOL   C13627640   7.638   3.543   4.133 -0.7183 -0.1152 -0.2076
   73MOL   O13727641   7.579   3.673   4.112  0.3954 -0.1098 -0.2801
   73MOL   C13827642   7.691   3.538   4.270  0.8415 -0.7466  0.6170
   73MOL   O13927643   7.734   3.405   4.309  0.3753 -1.1232 -0.0609
   73MOL   C14027644   7.641   3.307   4.342  0.0932 -0.8839  0.1119
   73MOL   C14127645   7.502   3.340   4.351  0.5242 -1.0216  0.0312
   73MOL   C14227646   7.407   3.239   4.375 -0.0654 -0.0704  0.6364
   73MOL   C14327647   7.453   3.110   4.410 -0.6435 -0.3313  0.0974
   73MOL   C14427648   7.587   3.078   4.397 -0.5608 -0.7026 -0.1227
   73MOL   C14527649   7.683   3.179   4.361  0.3333 -0.6398 -0.2984
   73MOL   H14627650   7.654   3.633   3.921  2.3566  1.1864 -0.5559
   73MOL   H14727651   7.581   3.455   4.103  1.1263 -2.0822  1.8291
   73MOL   H14827652   7.619   3.576   4.343  0.4374 -0.5657  0.1318
   73MOL   H14927653   7.783   3.596   4.277  1.4920 -1.7031  0.0360
   73MOL   H15027654   7.470   3.441   4.329 -1.2012 -1.7831 -1.0539
   73MOL   H15127655   7.303   3.267   4.385 -0.7815 -2.7772  1.0408
   73MOL   H15227656   7.378   3.038   4.439 -2.6135  1.9182  0.7568
   73MOL   H15327657   7.626   2.978   4.408  2.6485  0.3831 -0.8347
   73MOL   C15427658   7.828   3.139   4.342 -0.6039  0.0837 -0.0188
   73MOL   C15527659   7.945   3.186   4.433  0.4307 -0.0989 -0.3949
   73MOL   O15627660   7.875   3.061   4.448 -0.1840 -0.4579  0.1522
   73MOL   C15727661   7.922   3.284   4.551 -0.2438  0.5010 -0.0610
   73MOL   O15827662   8.024   3.278   4.640 -1.0406 -0.0069 -0.3829
   73MOL   C15927663   8.017   3.354   4.753 -0.8129  0.2625 -0.5936
   73MOL   C16027664   7.920   3.458   4.776 -0.5504  0.3718  0.1754
   73MOL   C16127665   7.911   3.524   4.899  0.6164  0.0682  0.0962
   73MOL   C16227666   8.004   3.493   4.999  0.2229  0.2696  0.0259
   73MOL   C16327667   8.104   3.396   4.969  0.0416 -0.5836  0.4102
   73MOL   C16427668   8.112   3.321   4.849 -0.6814 -0.1607 -0.2725
   73MOL   H16527669   7.851   3.102   4.242 -1.2283 -0.6471  0.1058
   73MOL   H16627670   8.049   3.184   4.400  0.5242  0.5310 -0.1367
   73MOL   H16727671   7.826   3.257   4.593  0.3586 -2.1803 -0.3375
   73MOL   H16827672   7.932   3.381   4.501 -0.6128 -0.4696 -2.0817
   73MOL   H16927673   7.847   3.484   4.701 -0.7584 -1.6321 -0.3442
   73MOL   H17027674   7.847   3.609   4.920  1.6040  0.8190  0.1369
   73MOL   H17127675   7.996   3.543   5.095 -1.7352  0.5361 -0.2666
   73MOL   H17227676   0.010   3.382   5.045 -0.0024  2.5111  1.0672
   73MOL   C17327677   0.036   3.207   4.832 -0.1516  0.4945 -0.2706
   73MOL   C17427678   0.150   3.209   4.732 -0.3849 -0.0987 -1.0276
   73MOL   O17527679   0.173   3.239   4.868  0.4537  0.1734  0.5607
   73MOL   C17627680   0.160   3.324   4.636  0.1775  0.4455  0.0950
   73MOL   O17727681   0.299   3.325   4.589 -0.1005  0.4949  0.8669
   73MOL   C17827682   0.337   3.233   4.492  0.4172 -0.5829  0.3980
   73MOL   C17927683   0.240   3.180   4.403 -0.2662 -0.1321  0.3811
   73MOL   C18027684   0.285   3.085   4.311 -0.2281  0.3156  0.2349
   73MOL   C18127685   0.421   3.057   4.299  0.3306 -0.0442  0.1922
   73MOL   C18227686   0.518   3.109   4.391 -0.4172 -0.6922 -0.4626
   73MOL   C18327687   0.477   3.194   4.491  0.4510  0.3366  0.2923
   73MOL   H18427688   8.161   3.112   4.862 -1.7304  1.3111  0.0371
   73MOL   H18527689   0.193   3.113   4.701 -0.6494 -0.7142  0.4977
   73MOL   H18627690   0.123   3.418   4.678 -0.2373  1.1335 -1.7875
   73MOL   H18727691   0.087   3.303   4.559 -0.4149 -2.2512  1.3446
   73MOL   H18827692   0.141   3.221   4.394 -0.3972 -0.7581 -1.2253
   73MOL   H18927693   0.211   3.043   4.245  0.1992  1.0032 -0.7022
   73MOL   H19027694   0.443   2.980   4.227 -1.9568  1.1727 -1.8744
   73MOL   H19127695   0.623   3.084   4.386 -0.7520 -2.1703 -0.1730
   73MOL   C19227696   0.573   3.233   4.597 -0.0679 -0.5373 -0.1412
   73MOL   C19327697   0.580   3.178   4.729 -0.0080 -0.2197 -0.4324
   73MOL   O19427698   0.662   3.125   4.631 -0.2337  0.1188  0.2313
   73MOL   C19527699   0.490   3.077   4.791 -0.2658  1.0198 -0.3761
   73MOL   O19627700   0.565   3.009   4.896 -0.2500  0.5994  0.4207
   73MOL   C19727701   0.499   2.907   4.957 -0.1218  0.5664 -0.0964
   73MOL   C19827702   0.364   2.882   4.950  0.1657  0.1567 -1.1050
   73MOL   C19927703   0.313   2.778   5.030 -0.0515 -0.6819 -0.2196
   73MOL   C20027704   0.395   2.696   5.109 -0.6356  0.2930  0.1912
   73MOL   C20127705   0.533   2.727   5.106 -0.6540 -0.0399  0.0415
   73MOL   C20227706   0.593   2.832   5.033 -0.3775 -0.4401 -0.4111
   73MOL   H20327707   0.615   3.332   4.581  2.7244 -1.6302  0.1376
   73MOL   H20427708   0.631   3.233   4.808  0.6427 -2.5480  0.8021
   73MOL   H20527709   0.452   3.008   4.716 -0.6167  0.8001 -0.0017
   73MOL   H20627710   0.408   3.128   4.841 -0.1779  0.6240  0.1781
   73MOL   H20727711   0.295   2.941   4.892 -0.2581  1.5544  0.7618
   73MOL   H20827712   0.207   2.760   5.039 -0.0202 -0.4392  0.7284
   73MOL   H20927713   0.371   2.608   5.167  0.8097 -1.3631 -1.6677
   73MOL   H21027714   0.604   2.666   5.160 -0.1070  0.0133 -0.6117
   73MOL   C21127715   0.733   2.873   5.051 -0.3050 -1.1195 -0.2353
   73MOL   C21227716   0.788   2.945   5.173  0.0645 -0.8366 -0.2523
   73MOL   O21327717   0.803   2.809   5.160 -0.2763 -0.0480  0.0807
   73MOL   C21427718   0.677   2.987   5.267 -1.0700  0.1611  0.5257
   73MOL   O21527719   0.735   3.091   5.346  0.1465  0.2037 -0.0430
   73MOL   C21627720   0.776   3.049   5.470 -0.0962 -0.7555 -0.2207
   73MOL   C21727721   0.800   2.917   5.504 -0.3531 -0.3672  1.3790
   73MOL   C21827722   0.849   2.886   5.629 -0.0261  0.0084  0.4239
   73MOL   C21927723   0.881   2.986   5.724 -0.4875 -0.7773 -0.0726
   73MOL   C22027724   0.841   3.117   5.696  0.2912  0.7786 -0.2592
   73MOL   C22127725   0.795   3.150   5.571  0.1115  0.1611  0.5672
   73MOL   H22227726   0.784   2.882   4.956 -0.2061  1.0144 -0.0078
   73MOL   H22327727   0.882   2.999   5.161  1.1862 -2.6303  0.3977
   73MOL   H22427728   0.631   2.906   5.323  0.7744 -1.6551 -0.5055
   73MOL   H22527729   0.599   3.034   5.207 -3.2882 -2.5029  1.2278
   73MOL   H22627730   0.783   2.836   5.435  0.6573 -0.1531  0.8659
   73MOL   H22727731   0.867   2.785   5.662  0.0460  0.1375  0.7933
   73MOL   H22827732   0.920   2.973   5.824 -2.2957  0.0210  0.7578
   73MOL   H22927733   0.852   3.195   5.769  0.6774  1.8280 -1.4336
   73MOL   C23027734   0.770   3.291   5.532  0.8062  0.1095 -0.5833
   73MOL   C23127735   0.634   3.358   5.517  0.1467  0.0952  0.3444
   73MOL   O23227736   0.710   3.374   5.634  0.1330  0.0981 -0.3755
   73MOL   C23327737   0.499   3.282   5.536 -0.6372 -0.1771 -0.7963
   73MOL   O23427738   0.384   3.357   5.492  0.1797  0.1816  0.5504
   73MOL   C23527739   0.369   3.393   5.359 -0.1889  0.3423  0.3850
   73MOL   C23627740   0.439   3.323   5.258  0.0638  0.1948 -0.6272
   73MOL   C23727741   0.411   3.356   5.128  0.0014  0.2890  0.0804
   73MOL   C23827742   0.339   3.468   5.092  0.2314  0.7191 -0.1459
   73MOL   C23927743   0.273   3.539   5.191  0.6519 -0.1074  0.4000
   73MOL   C24027744   0.277   3.499   5.325 -0.1671  0.3180 -0.1930
   73MOL   H24127745   0.848   3.338   5.472  1.3444 -0.2859 -0.2046
   73MOL   H24227746   0.617   3.454   5.469  1.6519  0.3529  0.3219
   73MOL   H24327747   0.488   3.268   5.644  0.5166  3.6311 -0.1329
   73MOL   H24427748   0.493   3.182   5.493 -0.9732 -1.2609  1.6697
   73MOL   H24527749   0.506   3.240   5.276 -1.8364 -0.8024  2.2907
   73MOL   H24627750   0.451   3.298   5.046  1.8118 -0.7280  1.6479
   73MOL   H24727751   0.322   3.501   4.990 -1.5205  1.8226  0.4716
   73MOL   H24827752   0.204   3.617   5.163 -0.1443 -0.7194  0.6421
   73MOL   C24927753   0.181   3.566   5.422  0.7130 -0.3212 -0.0411
   73MOL   C25027754   0.228   3.630   5.551  1.0542 -0.7240 -0.2086
   73MOL   O25127755   0.196   3.708   5.433 -0.0631 -0.0709 -0.8227
   73MOL   C25227756   0.369   3.640   5.606  0.0244 -0.5854 -0.6280
   73MOL   O25327757   0.365   3.729   5.716 -0.3995  0.4128  0.7565
   73MOL   C25427758   0.479   3.739   5.793 -0.3418  0.0640 -0.2619
   73MOL   C25527759   0.589   3.655   5.777 -0.9388 -0.6440  0.0380
   73MOL   C25627760   0.701   3.669   5.857 -1.1192 -0.1210  0.9175
   73MOL   C25727761   0.704   3.764   5.955 -0.6619 -1.1049 -0.3350
   73MOL   C25827762   0.598   3.856   5.964 -0.3919 -0.4299 -0.2871
   73MOL   C25927763   0.488   3.847   5.881  0.1848 -0.4271  0.3783
   73MOL   H26027764   0.080   3.526   5.413 -0.0632  1.5960 -0.1547
   73MOL   H26127765   0.154   3.619   5.631  2.3880 -2.9095  0.7680
   73MOL   H26227766   0.427   3.673   5.519 -2.2479  1.7599 -1.3301
   73MOL   H26327767   0.392   3.541   5.644 -0.6619 -1.1606 -1.6706
   73MOL   H26427768   0.587   3.570   5.710  2.1805  0.1554 -1.1496
   73MOL   H26527769   0.781   3.597   5.855 -0.5827  0.4902 -0.4504
   73MOL   H26627770   0.799   3.764   6.006 -1.7558 -0.1730  1.7588
   73MOL   H26727771   0.605   3.942   6.029  0.9535  2.3285 -3.9224
   73MOL   C26827772   0.375   3.939   5.896 -0.4885  0.5094 -0.6892
   73MOL   C26927773   0.263   3.922   6.003 -0.5983 -0.3424  0.0128
   73MOL   O27027774   0.377   4.010   6.017 -0.4096 -0.3025 -0.2185
   73MOL   C27127775   0.255   3.808   6.108 -0.2512 -0.0983  0.0503
   73MOL   O27227776   0.157   3.863   6.205 -0.6793 -0.4159  0.0234
   73MOL   C27327777   0.112   3.782   6.302  0.0969 -0.1603  0.3045
   73MOL   C27427778   0.162   3.653   6.317  0.3167 -0.6360  0.4319
   73MOL   C27527779   0.112   3.574   6.426 -0.5647 -0.3258 -0.2004
   73MOL   C27627780   0.009   3.622   6.506  0.7206  0.0135  0.1350
   73MOL   C27727781   8.130   3.747   6.489  0.5601 -0.5875  0.2255
   73MOL   C27827782   0.005   3.823   6.380  0.1939 -1.2317 -0.4595
   73MOL   H27927783   0.367   4.012   5.815  0.6784  2.8977  1.2452
   73MOL   H28027784   0.171   3.980   5.994 -0.1883  0.1494 -1.2275
   73MOL   H28127785   0.355   3.781   6.142  0.8113  0.5292 -2.4277
   73MOL   H28227786   0.216   3.720   6.058  1.3531  1.8569 -4.9534
   73MOL   H28327787   0.241   3.610   6.257  0.5487 -1.2194  1.1464
   73MOL   H28427788   0.147   3.472   6.439 -1.5361 -0.6960 -0.4263
   73MOL   H28527789   8.129   3.572   6.587 -1.3313  0.2740 -0.9409
   73MOL   H28627790   8.044   3.765   6.552  0.2344  1.1346 -0.6672
   73MOL   C28727791   8.095   3.948   6.353  0.1561  0.8255 -0.1865
   73MOL   C28827792   7.978   3.955   6.248 -0.0592 -0.2982  0.5818
   73MOL   O28927793   7.952   3.937   6.391  0.6257 -0.1740  0.0445
   73MOL   C29027794   7.928   3.835   6.170  0.2641 -0.4356  0.2973
   73MOL   O29127795   7.785   3.840   6.143 -0.1743 -0.2499  0.4651
   73MOL   C29227796   7.725   3.927   6.053 -0.4958  0.4166  0.3915
   73MOL   C29327797   7.809   4.013   5.972 -0.1353  0.7575  0.3240
   73MOL   C29427798   7.758   4.125   5.900 -0.0164 -0.1292 -0.5799
   73MOL   C29527799   7.620   4.137   5.906  0.0431 -0.4101 -0.0300
   73MOL   C29627800   7.539   4.056   5.981  0.2316  0.0004  0.3799
   73MOL   C29727801   7.588   3.947   6.060  0.1346 -0.0992 -0.7021
   73MOL   H29827802   8.143   4.040   6.387 -0.8964  1.2064  0.3024
   73MOL   H29927803   7.948   4.054   6.213 -1.5580 -1.0692 -0.3996
   73MOL   H30027804   7.954   3.749   6.232 -3.5807 -0.4041  2.1396
   73MOL   H30127805   7.978   3.834   6.073  2.7313  0.3867  1.5140
   73MOL   H30227806   7.915   3.995   5.958 -0.2914  0.4207 -0.5059
   73MOL   H30327807   7.817   4.175   5.825  0.6895 -0.0748 -0.0029
   73MOL   H30427808   7.578   4.213   5.841 -1.4083 -2.1990 -1.2226
   73MOL   H30527809   7.432   4.072   5.994  0.1808  2.6064 -2.6567
   73MOL   C30627810   7.496   3.861   6.146 -0.1094  0.0313 -0.4416
   73MOL   C30727811   7.456   3.908   6.285  0.2663 -0.5857 -0.4840
   73MOL   O30827812   7.367   3.933   6.172 -0.1750  0.0526 -0.2862
   73MOL   C30927813   7.526   4.026   6.342 -0.0264  0.2590  0.3884
   73MOL   O31027814   7.499   4.051   6.478 -0.1339 -0.1696  0.4175
   73MOL   C31127815   7.376   4.103   6.519  0.0690 -0.3155 -0.2042
   73MOL   C31227816   7.263   4.115   6.435  0.1999  0.1194 -0.0468
   73MOL   C31327817   7.143   4.151   6.491 -0.6682 -0.5037 -0.0628
   73MOL   C31427818   7.127   4.171   6.629 -0.0960  1.1011  0.3719
   73MOL   C31527819   7.241   4.153   6.712  0.6922  0.1073 -0.0581
   73MOL   C31627820   7.366   4.117   6.656  0.1572  0.6327 -0.5986
   73MOL   H31727821   7.486   3.757   6.116 -0.5560  0.1211 -0.6030
   73MOL   H31827822   7.416   3.833   6.354  0.4182  0.2297  0.5082
   73MOL   H31927823   7.502   4.119   6.291 -2.2452 -0.3273  0.3227
   73MOL   H32027824   7.635   4.014   6.339 -0.0098  0.6588 -0.6736
   73MOL   H32127825   7.267   4.097   6.329  1.9210  1.7846 -0.2861
   73MOL   H32227826   7.065   4.159   6.417 -0.2088 -1.2068 -0.6224
   73MOL   H32327827   7.034   4.202   6.675 -0.7088  0.4895 -0.4340
   73MOL   H32427828   7.226   4.172   6.817  2.7479 -0.0100  0.2721
   73MOL   C32527829   7.485   4.085   6.745  0.1361 -0.5483  0.5251
   73MOL   C32627830   7.592   4.189   6.776  0.6712  1.0937  0.1714
   73MOL   O32727831   7.477   4.167   6.858  0.5367  0.1729  0.0443
   73MOL   C32827832   7.605   4.315   6.702 -0.7272 -0.2833  0.1221
   73MOL   O32927833   7.686   4.412   6.780 -0.1849 -0.5754  0.0267
   73MOL   C33027834   7.682   4.549   6.752 -0.7417 -0.2179 -1.0782
   73MOL   C33127835   7.580   4.609   6.675 -0.7742  0.0517  0.0434
   73MOL   C33227836   7.574   4.748   6.675  0.1232 -0.4642  0.2600
   73MOL   C33327837   7.673   4.826   6.741  0.0425 -0.4121  0.1616
   73MOL   C33427838   7.778   4.769   6.804 -0.5085  0.3248  0.0879
   73MOL   C33527839   7.786   4.627   6.805 -0.2112  0.2264  0.4866
   73MOL   H33627840   7.489   3.979   6.768  0.5546 -1.1670 -2.2218
   73MOL   H33727841   7.688   4.155   6.816 -0.6180 -0.5296  1.9932
   73MOL   H33827842   7.507   4.348   6.668 -0.8258 -1.1483 -0.4332
   73MOL   H33927843   7.640   4.293   6.601  0.6467  2.5006 -0.0715
   73MOL   H34027844   7.499   4.554   6.629  0.1179 -1.5777  0.3640
   73MOL   H34127845   7.497   4.802   6.620  0.4762 -1.5503 -1.3379
   73MOL   H34227846   7.662   4.933   6.744 -0.9973 -0.4832 -0.6583
   73MOL   H34327847   7.845   4.831   6.860  0.4839 -0.4776 -0.1975
   73MOL   C34427848   7.902   4.564   6.871 -0.0765  0.7341 -0.1942
   73MOL   C34527849   8.042   4.571   6.811 -0.1565  0.6053  0.4258
   73MOL   O34627850   8.001   4.655   6.914  0.4654 -0.6482 -0.3195
   73MOL   C34727851   8.084   4.638   6.674 -0.2214 -0.5512 -0.7432
   73MOL   O34827852   0.045   4.694   6.677  0.4282  0.3563 -0.4235
   73MOL   C34927853   0.074   4.822   6.642  0.6157 -0.3225 -0.1221
   73MOL   C35027854   8.154   4.925   6.672  0.0506 -0.5704 -0.7440
   73MOL   C35127855   0.008   5.059   6.629 -0.7349  0.7769 -0.3449
   73MOL   C35227856   0.139   5.078   6.572 -0.2005  0.1317 -0.2395
   73MOL   C35327857   0.237   4.980   6.556  0.3012 -0.4746 -0.7931
   73MOL   C35427858   0.203   4.847   6.593  0.3559 -0.1158 -0.0856
   73MOL   H35527859   7.879   4.484   6.941 -0.2637  1.5564  0.7106
   73MOL   H35627860   8.120   4.506   6.850 -0.0587  1.0620  1.0151
   73MOL   H35727861   8.006   4.703   6.635  0.4211  0.0764 -0.9881
   73MOL   H35827862   8.097   4.570   6.591 -2.1520  0.0466 -1.5413
   73MOL   H35927863   8.063   4.888   6.717 -0.6653 -0.6674 -2.2424
   73MOL   H36027864   8.113   5.138   6.665  0.9363  2.0544 -0.0624
   73MOL   H36127865   0.169   5.181   6.558 -0.9185  0.1851 -1.4623
   73MOL   H36227866   0.338   4.996   6.520 -0.8262  1.4108 -3.2437
   73MOL   C36327867   0.303   4.737   6.568 -0.3997 -0.2032  0.1131
   73MOL   C36427868   0.382   4.699   6.443  0.4133  0.5366 -0.1839
   73MOL   O36527869   0.429   4.791   6.539 -0.1293  0.4221  0.7094
   73MOL   C36627870   0.359   4.744   6.304 -0.2379 -0.0264  0.8487
   73MOL   O36727871   0.479   4.772   6.226 -0.8856  0.0492 -0.3366
   73MOL   C36827872   0.470   4.802   6.094 -0.4086 -0.4251 -0.1718
   73MOL   C36927873   0.591   4.829   6.025 -0.1285  0.4368  0.1478
   73MOL   C37027874   0.594   4.858   5.891  0.3297 -0.3892 -0.5395
   73MOL   C37127875   0.471   4.864   5.816 -0.1035 -0.0188  0.0261
   73MOL   C37227876   0.354   4.831   5.878 -0.3820  0.5109 -0.1314
   73MOL   C37327877   0.352   4.812   6.020  0.0035  1.2011  0.2068
   73MOL   H37427878   0.299   4.667   6.651 -0.7381 -1.3835 -0.8838
   73MOL   H37527879   0.416   4.597   6.456 -2.2414 -0.5730 -1.5378
   73MOL   H37627880   0.297   4.834   6.306 -0.8000 -0.4037  0.3275
   73MOL   H37727881   0.297   4.672   6.251 -0.6674 -0.2006  1.5772
   73MOL   H37827882   0.680   4.841   6.085  0.5212 -0.6008 -0.5875
   73MOL   H37927883   0.689   4.888   5.848  1.7944 -1.2554  1.9904
   73MOL   H38027884   0.471   4.888   5.711  1.4505  0.0474  0.0346
   73MOL   H38127885   0.264   4.816   5.820 -0.9526 -1.5976  1.2382
   73MOL   H38227886   0.261   4.777   6.066  0.3727 -0.8675 -0.5612
   74MOL     C127887   4.271   2.441   8.124  0.1154  0.2329 -0.2332
   74MOL     C227888   4.239   2.337   8.013  0.4368 -0.9074  1.2683
   74MOL     O327889   4.227   2.317   8.155  0.5096  1.1054 -0.1781
   74MOL     C427890   4.334   2.252   7.946  0.2185 -0.0372  0.3560
   74MOL     O527891   4.468   2.265   7.991 -0.0160 -0.6358 -0.1070
   74MOL     C627892   4.522   2.162   8.065  0.2844  0.5956 -0.1493
   74MOL     C727893   4.449   2.073   8.151  0.2678 -0.5001  0.1238
   74MOL     C827894   4.509   1.978   0.062  0.2737  1.1794 -0.0652
   74MOL     C927895   4.645   1.953   0.052  0.3101  0.6603 -0.0256
   74MOL    C1027896   4.720   2.040   8.133  0.8025  0.4355  0.0169
   74MOL    C1127897   4.664   2.150   8.062 -0.3470  0.9439  0.7140
   74MOL    H1227898   4.198   2.519   8.143 -1.8172 -1.4906 -0.3598
   74MOL    H1327899   4.144   2.340   7.960  0.2497  1.8159  1.6613
   74MOL    H1427900   4.334   2.274   7.839  0.8162  0.1177  0.3842
   74MOL    H1527901   4.300   2.149   7.954 -1.0238  0.5908  3.6595
   74MOL    H1627902   4.344   2.099   8.154 -0.3376 -2.5309 -1.8095
   74MOL    H1727903   4.442   1.915   0.119  0.7373 -1.0217 -1.8644
   74MOL    H1827904   4.691   1.874   0.110  0.0110 -0.2332 -1.0022
   74MOL    H1927905   4.826   2.026   8.123  1.3812  3.5957  1.2792
   74MOL    H2027906   4.371   2.471   8.156 -0.4171  0.4425  1.2559
   74MOL    C2127907   4.749   2.237   7.973 -0.7841 -0.0870 -0.0440
   74MOL    C2227908   4.807   2.372   8.010  0.3085 -0.4439  0.7867
   74MOL    O2327909   4.883   2.244   8.010 -0.6470 -0.9090  0.0662
   74MOL    C2427910   4.774   2.434   8.146  0.3209  0.1750  0.4891
   74MOL    O2527911   4.894   2.478   0.041  0.4441 -0.1220  0.1021
   74MOL    C2627912   4.901   2.451   0.178  0.2226  0.2312  0.2229
   74MOL    C2727913   4.799   2.467   0.269  0.2257  0.3640 -0.1363
   74MOL    C2827914   4.822   2.458   0.407  0.2760  0.1336 -0.0248
   74MOL    C2927915   4.953   2.420   0.458  0.2967 -0.3101 -0.0479
   74MOL    C3027916   5.052   2.396   0.364  0.4322 -0.2514 -1.5279
   74MOL    C3127917   5.029   2.427   0.227 -1.0446 -0.2577  0.6746
   74MOL    H3227918   4.729   2.216   7.868 -0.1026  0.1684 -0.2266
   74MOL    H3327919   4.824   2.440   7.926 -0.4258  1.5567  2.2210
   74MOL    H3427920   4.702   2.371   0.027  0.2070  1.4731  1.9953
   74MOL    H3527921   4.712   2.522   8.127 -0.1071 -0.4883 -1.2394
   74MOL    H3627922   4.706   2.512   0.237  0.3440 -0.4697 -1.7194
   74MOL    H3727923   4.746   2.499   0.471 -0.7669  0.0486 -1.1772
   74MOL    H3827924   4.976   2.415   0.564 -2.1405  1.0578  0.5797
   74MOL    H3927925   5.148   2.367   0.402 -0.0313  1.4350  1.1001
   74MOL    C4027926   5.141   2.396   0.133 -0.1239 -0.6254 -0.4435
   74MOL    C4127927   5.260   2.490   0.131  0.5952  0.9060  1.2389
   74MOL    O4227928   5.263   2.366   0.196 -0.2942  0.4523  0.2481
   74MOL    C4327929   5.275   2.619   0.215 -0.5034  0.1619 -0.4133
   74MOL    O4427930   5.389   2.695   0.184  0.0403  0.0976 -0.8088
   74MOL    C4527931   5.385   2.780   0.075 -0.7459  0.6377 -0.0470
   74MOL    C4627932   5.266   2.812   0.004  0.3757  0.0719  0.0073
   74MOL    C4727933   5.270   2.899   8.064  0.4167  0.1528 -0.8734
   74MOL    C4827934   5.386   2.953   8.023  0.0891  0.2981  0.5548
   74MOL    C4927935   5.511   2.922   8.084 -0.5174  0.0367 -0.3804
   74MOL    C5027936   5.508   2.847   0.039 -0.1541  0.3452  0.2637
   74MOL    H5127937   5.123   2.322   0.055  1.4251 -1.8470  0.3112
   74MOL    H5227938   5.304   2.497   0.032  0.3992 -1.6559  0.9172
   74MOL    H5327939   5.276   2.601   0.322 -0.6272  1.4065 -0.1951
   74MOL    H5427940   5.182   2.676   0.214 -0.4818  0.1881 -1.6859
   74MOL    H5527941   5.165   2.780   0.027  0.8500 -1.1529  0.3889
   74MOL    H5627942   5.174   2.924   8.021  0.2659  1.4975  0.1859
   74MOL    H5727943   5.385   3.024   7.941  0.3411  0.1955  0.4608
   74MOL    H5827944   5.600   2.976   8.052  0.3170 -0.7333  0.6277
   74MOL    C5927945   5.633   2.822   0.125  0.7547  0.6988  0.3992
   74MOL    C6027946   5.719   2.695   0.105  0.2367 -0.4311  0.4769
   74MOL    O6127947   5.754   2.823   0.049 -0.5460  0.2566 -0.1753
   74MOL    C6227948   5.686   2.582   0.010  0.0867 -0.1354 -0.0699
   74MOL    O6327949   5.812   2.511   8.164  0.3233  0.5166 -0.2150
   74MOL    C6427950   5.904   2.554   8.071 -0.5645  0.2861 -0.0707
   74MOL    C6527951   5.886   2.662   7.975  0.5793  0.5090 -0.7337
   74MOL    C6627952   5.983   2.683   7.875  0.7957 -0.5323 -0.0210
   74MOL    C6727953   6.093   2.596   7.863 -0.7037  0.8901 -0.4896
   74MOL    C6827954   6.108   2.484   7.950  0.6180 -0.2370 -0.4321
   74MOL    C6927955   6.012   2.463   8.054  0.4159 -0.0697 -0.8094
   74MOL    H7027956   5.630   2.858   0.228 -0.8882  1.5926  0.0700
   74MOL    H7127957   5.780   2.666   0.191  1.6393  1.8909  0.3144
   74MOL    H7227958   5.639   2.622   8.090 -1.5081  1.5170  1.4765
   74MOL    H7327959   5.612   2.511   0.045 -0.3417  0.2500 -0.1975
   74MOL    H7427960   5.796   2.721   7.976  0.0047 -0.3394  0.9922
   74MOL    H7527961   5.972   2.767   7.808  1.3810  0.0940  0.6595
   74MOL    H7627962   6.165   2.617   7.785  0.2942  1.1251  0.4907
   74MOL    H7727963   6.194   2.419   7.950  0.9491  0.1940  1.2447
   74MOL    C7827964   6.034   2.343   8.150 -0.7185 -0.1611  0.4060
   74MOL    C7927965   5.981   2.209   8.108  0.2589 -0.5609 -0.2115
   74MOL    O8027966   6.123   2.238   8.102  0.2423 -0.6369  0.2058
   74MOL    C8127967   5.900   2.205   7.982 -0.1361 -0.1150 -0.3180
   74MOL    O8227968   5.876   2.075   7.941 -0.2830 -0.0979 -0.2608
   74MOL    C8327969   5.764   2.009   7.978  0.1448  0.0747 -0.4484
   74MOL    C8427970   5.700   2.021   8.107 -0.2592 -0.2905 -0.3655
   74MOL    C8527971   5.594   1.935   8.140  0.0702  0.4570 -0.1498
   74MOL    C8627972   5.549   1.848   8.040 -0.3790 -0.0672 -0.4633
   74MOL    C8727973   5.604   1.848   7.913 -0.2926 -0.3908  0.1665
   74MOL    C8827974   5.717   1.929   7.877 -0.0413  0.0310  0.0187
   74MOL    H8927975   6.049   2.355   0.087 -1.7492 -2.5487  0.8397
   74MOL    H9027976   5.949   2.130   0.005 -1.3111 -1.7664 -2.3319
   74MOL    H9127977   5.960   2.254   7.906  1.1465 -0.6999  0.3142
   74MOL    H9227978   5.806   2.260   7.985  0.0872  0.2018  2.3024
   74MOL    H9327979   5.753   2.079   0.011  2.7705 -3.5086  0.0965
   74MOL    H9427980   5.542   1.932   0.064 -0.2667 -1.8053 -0.3921
   74MOL    H9527981   5.462   1.786   8.056 -1.4450  0.9871 -2.0139
   74MOL    H9627982   5.563   1.779   7.841 -0.2754 -0.1275 -0.0976
   74MOL    C9727983   5.796   1.916   7.755 -0.3355  0.0916  0.1819
   74MOL    C9827984   5.914   1.828   7.739 -0.2472  0.2913 -0.0360
   74MOL    O9927985   5.782   1.785   7.698  0.0107 -0.1224 -0.0392
   74MOL   C10027986   5.975   1.754   7.855 -0.0622  0.0066  0.0401
   74MOL   O10127987   6.111   1.713   7.831 -0.4266 -0.2086  0.0782
   74MOL   C10227988   6.209   1.787   7.887 -0.7941 -0.1805  0.3782
   74MOL   C10327989   6.195   1.924   7.911 -0.9003 -0.9639  0.3860
   74MOL   C10427990   6.307   1.991   7.969 -0.4480  0.1663  0.4503
   74MOL   C10527991   6.427   1.923   7.996 -0.0208  0.0228  0.8097
   74MOL   C10627992   6.441   1.796   7.945  0.8562 -0.2249  0.1864
   74MOL   C10727993   6.330   1.719   7.903  0.5106 -0.2849 -0.2219
   74MOL   H10827994   5.773   2.000   7.689 -2.6637  1.7023  2.8986
   74MOL   H10927995   5.988   1.844   7.661  1.2643  2.0695  1.6820
   74MOL   H11027996   5.915   1.664   7.866 -1.7740  1.1812  0.4507
   74MOL   H11127997   5.956   1.804   7.950  0.3512  0.9417 -0.3609
   74MOL   H11227998   6.105   1.982   7.898  0.0033  0.1696 -1.0167
   74MOL   H11327999   6.314   2.096   7.994  2.5498  0.2177 -0.3440
   74MOL   H11428000   6.513   1.968   8.043  0.1635 -0.6699  1.1465
   74MOL   H11528001   6.534   1.743   7.951  3.2740  3.6342 -1.1040
   74MOL   C11628002   6.344   1.574   7.865  0.2290  0.5126 -0.4183
   74MOL   C11728003   6.377   1.528   7.731  0.6131  0.7055  0.7553
   74MOL   O11828004   6.481   1.542   7.837  0.5962 -0.0615  0.1199
   74MOL   C11928005   6.386   1.625   7.606 -0.0198  0.5841 -0.3631
   74MOL   O12028006   6.492   1.578   7.522  0.2248 -0.1358 -0.6253
   74MOL   C12128007   6.521   1.648   7.406 -0.5580 -0.3453 -0.0619
   74MOL   C12228008   6.439   1.745   7.347  0.2866 -0.3400  0.2992
   74MOL   C12328009   6.469   1.801   7.223 -0.1093  0.5709  0.0281
   74MOL   C12428010   6.594   1.768   7.161  0.0057  0.1596  0.5969
   74MOL   C12528011   6.680   1.672   7.214  0.4350  0.0965  0.8563
   74MOL   C12628012   6.641   1.615   7.342  0.5141 -0.2625 -0.1306
   74MOL   H12728013   6.307   1.503   7.939  3.1316 -0.5210  0.0840
   74MOL   H12828014   6.348   1.426   7.708 -0.9763  1.1743  0.5768
   74MOL   H12928015   6.407   1.726   7.642 -0.9916 -0.0142  1.9768
   74MOL   H13028016   6.286   1.635   7.564 -0.0926  1.5439  0.0258
   74MOL   H13128017   6.348   1.775   7.397 -0.3176 -0.1778 -0.8813
   74MOL   H13228018   6.399   1.869   7.178  0.8238  0.2625 -1.9422
   74MOL   H13328019   6.630   1.821   7.074 -0.0238 -3.8398 -1.9384
   74MOL   H13428020   6.779   1.645   7.180  0.2221  0.1431  0.1927
   74MOL   C13528021   6.735   1.509   7.407 -0.0636  0.1917 -0.4196
   74MOL   C13628022   6.699   1.364   7.400  0.3854 -0.0924  0.7159
   74MOL   O13728023   6.801   1.427   7.316 -0.3343 -0.2149 -0.3046
   74MOL   C13828024   6.580   1.316   7.332  0.2368 -0.2449  0.0210
   74MOL   O13928025   6.586   1.176   7.314  0.0307 -0.6823 -0.7829
   74MOL   C14028026   6.580   1.096   7.421 -0.3744  0.6563  0.4651
   74MOL   C14128027   6.526   1.136   7.545 -0.2133 -0.4807  0.3510
   74MOL   C14228028   6.495   1.044   7.646 -0.3321  0.0784  0.1009
   74MOL   C14328029   6.533   0.915   7.628  0.9946  0.1773 -0.1317
   74MOL   C14428030   6.591   0.873   7.505  0.1663  0.0807  0.2416
   74MOL   C14528031   6.605   0.960   7.397  0.0296 -0.0498 -0.1739
   74MOL   H14628032   6.790   1.563   7.484  1.1480 -0.0010 -1.1318
   74MOL   H14728033   6.736   1.299   7.479  2.0030  1.0797  0.9311
   74MOL   H14828034   6.571   1.348   7.228  2.2070 -2.9853 -1.0755
   74MOL   H14928035   6.488   1.345   7.382  0.1247  0.0338 -0.3464
   74MOL   H15028036   6.502   1.240   7.564 -1.0273 -0.1277 -2.4337
   74MOL   H15128037   6.458   1.080   7.741 -0.2285 -0.7350  0.4559
   74MOL   H15228038   6.496   0.851   7.706 -0.9276  0.9681 -0.3611
   74MOL   H15328039   6.597   0.766   7.491 -1.7373  0.1328 -1.1342
   74MOL   C15428040   6.645   0.921   7.260 -0.3347  0.8239  0.0706
   74MOL   C15528041   6.788   0.901   7.218 -0.5438 -0.5929 -0.3965
   74MOL   O15628042   6.701   0.787   7.253 -0.2336  0.1004  0.4276
   74MOL   C15728043   6.905   0.926   7.309  0.2374 -0.4461  0.3105
   74MOL   O15828044   7.030   0.923   7.234 -0.0819  0.2738 -0.1214
   74MOL   C15928045   7.087   0.795   7.207 -0.1922  0.2815 -0.4371
   74MOL   C16028046   7.030   0.669   7.247 -0.8997 -0.1702  0.4634
   74MOL   C16128047   7.092   0.548   7.220 -0.3488 -0.1901  0.3016
   74MOL   C16228048   7.211   0.539   7.152  0.9050 -0.3407 -0.6428
   74MOL   C16328049   7.271   0.657   7.111  0.5511 -0.7321  0.2040
   74MOL   C16428050   7.219   0.785   7.143  0.6482  0.4519  0.3800
   74MOL   H16528051   6.571   0.953   7.187 -1.2029 -0.0990  0.5290
   74MOL   H16628052   6.801   0.921   7.112 -0.8255  1.4527 -0.0772
   74MOL   H16728053   6.889   0.876   7.404 -2.0274 -0.0235  0.1808
   74MOL   H16828054   6.902   1.031   7.338  0.7121 -0.1525 -0.6833
   74MOL   H16928055   6.937   0.654   7.299 -1.4902  0.1557 -0.4753
   74MOL   H17028056   7.044   0.454   7.245 -0.6047 -0.0323  0.4034
   74MOL   H17128057   7.252   0.441   7.133  1.0916 -0.3217 -0.3392
   74MOL   H17228058   7.362   0.661   7.053  1.0812 -0.5378  1.0440
   74MOL   C17328059   7.296   0.915   7.112 -0.0675 -0.1073 -0.4010
   74MOL   C17428060   7.355   1.008   7.215  0.5062 -0.2178 -0.4447
   74MOL   O17528061   7.436   0.916   7.143  0.2671 -0.0781  0.1062
   74MOL   C17628062   7.328   0.980   7.360  0.3647  0.0297 -0.5151
   74MOL   O17728063   7.396   1.053   7.450  0.4373 -0.8906 -0.1300
   74MOL   C17828064   7.383   1.033   7.586 -0.2590  0.7244  0.7466
   74MOL   C17928065   7.320   0.917   7.636  0.6309 -0.8348 -0.1336
   74MOL   C18028066   7.307   0.907   7.779  0.9495  0.1254 -0.3763
   74MOL   C18128067   7.347   1.009   7.869  0.3936  0.6098  0.5901
   74MOL   C18228068   7.420   1.111   7.814  0.3931 -0.3076 -0.4592
   74MOL   C18328069   7.434   1.126   7.676  0.4069 -0.2821 -0.5352
   74MOL   H18428070   7.262   0.967   7.023 -0.6760 -2.4173 -1.5411
   74MOL   H18528071   7.376   1.113   7.195 -1.0973  0.2388  0.2481
   74MOL   H18628072   7.354   0.875   7.376  0.7302  0.3082  0.7775
   74MOL   H18728073   7.220   0.989   7.377  0.0729 -0.8628 -1.8280
   74MOL   H18828074   7.274   0.851   7.564 -3.3680 -1.0639  2.4783
   74MOL   H18928075   7.262   0.821   7.825  0.4793 -0.3755 -1.7551
   74MOL   H19028076   7.329   1.001   7.975 -0.0778  0.6874  0.5133
   74MOL   H19128077   7.459   1.177   7.890  0.8758 -2.1573  0.9403
   74MOL   C19228078   7.500   1.250   7.615  0.7583  0.2347 -0.7463
   74MOL   C19328079   7.466   1.392   7.656 -0.2109  0.1451  0.1631
   74MOL   O19428080   7.580   1.319   7.710 -0.0793 -0.8018 -0.0354
   74MOL   C19528081   7.371   1.442   7.767 -0.0182  0.0285  0.0653
   74MOL   O19628082   7.406   1.573   7.804  0.2894 -0.0694 -0.2169
   74MOL   C19728083   7.519   1.589   7.887  0.0670  0.4432  0.0349
   74MOL   C19828084   7.584   1.484   7.958  0.1250  0.1296  0.5673
   74MOL   C19928085   7.697   1.523   8.041  1.1322 -0.0237 -0.2113
   74MOL   C20028086   7.743   1.653   8.043 -0.1296  0.1455 -0.1389
   74MOL   C20128087   7.679   1.751   7.963 -0.6135  0.2567  0.5260
   74MOL   C20228088   7.568   1.720   7.888 -0.0288  0.2418  0.0392
   74MOL   H20328089   7.547   1.242   7.518 -1.2477 -3.0450 -1.5301
   74MOL   H20428090   7.483   1.464   7.577  0.4565  0.5795  0.6980
   74MOL   H20528091   7.356   1.369   7.846  0.6018  1.0899  1.1850
   74MOL   H20628092   7.272   1.441   7.722  0.2654  0.0987 -0.5767
   74MOL   H20728093   7.547   1.383   7.964 -2.8297  1.1899  0.5606
   74MOL   H20828094   7.739   1.458   8.116  0.0535 -0.4331  0.0464
   74MOL   H20928095   7.817   1.685   8.115  0.2597  0.7621 -0.8090
   74MOL   H21028096   7.728   1.847   7.966 -1.2723  0.7349 -2.5844
   74MOL   C21128097   7.504   1.831   7.807 -0.9314 -0.2266  0.0577
   74MOL   C21228098   7.377   1.899   7.856 -0.6139 -0.4157  0.2989
   74MOL   O21328099   7.504   1.950   7.883  0.0590  0.4577  0.2264
   74MOL   C21428100   7.297   1.850   7.969 -0.1830  0.0403 -0.0665
   74MOL   O21528101   7.220   1.952   8.040 -0.3523  0.7780  0.4542
   74MOL   C21628102   7.088   1.930   8.054 -0.2385  0.0805  0.5869
   74MOL   C21728103   7.013   1.934   7.944  0.5044  0.6804  0.0505
   74MOL   C21828104   6.879   1.903   7.946  0.3965  0.5683  0.2552
   74MOL   C21928105   6.823   1.859   8.070  0.0695  0.1249  0.4855
   74MOL   C22028106   6.896   1.876   0.019  0.1727  0.1792  0.6339
   74MOL   C22128107   7.026   1.913   0.017 -0.4972  0.5096 -0.3919
   74MOL   H22228108   7.550   1.852   7.711 -0.7897  0.4792  0.2755
   74MOL   H22328109   7.327   1.947   7.772 -0.0734 -1.6703 -0.7629
   74MOL   H22428110   7.365   1.816   8.047 -0.5908  1.2314  0.8345
   74MOL   H22528111   7.241   1.764   7.933  1.5305 -1.0638 -0.1420
   74MOL   H22628112   7.064   1.966   7.854  0.1392  1.0153 -0.0368
   74MOL   H22728113   6.810   1.900   7.863  2.5492 -1.2724 -1.5455
   74MOL   H22828114   6.717   1.841   8.079  0.3208 -1.0386  1.2654
   74MOL   H22928115   6.837   1.856   0.107 -0.4737  1.3726  0.4777
   74MOL   C23028116   7.108   1.929   0.142  0.2523 -0.0676 -0.6298
   74MOL   C23128117   7.129   2.059   0.206 -0.6928 -0.1961 -0.5344
   74MOL   O23228118   7.028   1.972   0.251 -0.1056 -0.0241 -0.4220
   74MOL   C23328119   7.076   2.192   0.144  0.3164 -0.5260  0.1368
   74MOL   O23428120   7.173   2.238   0.045 -0.0656 -0.1783  0.3195
   74MOL   C23528121   7.283   2.314   0.073 -0.1905  0.6237  0.0443
   74MOL   C23628122   7.317   2.370   0.201  1.1537  0.2267 -0.1093
   74MOL   C23728123   7.443   2.425   0.236  0.3730  0.3091 -0.3060
   74MOL   C23828124   7.534   2.439   0.127  0.3929 -0.3962 -0.0567
   74MOL   C23928125   7.503   2.380   8.168 -0.8384 -0.4452 -0.2074
   74MOL   C24028126   7.378   2.328   8.138 -0.5889 -0.3493 -0.4681
   74MOL   H24128127   7.201   1.874   0.151  0.6700  1.1014  3.3563
   74MOL   H24228128   7.217   2.073   0.269  0.0476  1.5582 -1.8743
   74MOL   H24328129   7.046   2.272   0.212 -0.4152  0.0604 -0.8634
   74MOL   H24428130   6.986   2.168   0.088  0.0308 -1.8648  1.1495
   74MOL   H24528131   7.235   2.369   0.271  0.5213 -2.0451 -0.8566
   74MOL   H24628132   7.452   2.473   0.332  0.0168  1.7261 -0.9634
   74MOL   H24728133   7.634   2.474   0.148 -0.8270  1.8561  2.1592
   74MOL   H24828134   7.576   2.385   8.088 -2.1964  1.1498 -1.3955
   74MOL   C24928135   7.337   2.268   8.008 -0.2072  0.2826  0.0958
   74MOL   C25028136   7.241   2.339   7.920 -0.1563 -0.1020 -0.2219
   74MOL   O25128137   7.377   2.344   7.894  0.2484 -0.1405  0.9160
   74MOL   C25228138   7.173   2.466   7.961  0.5811  0.6107 -0.1207
   74MOL   O25328139   7.080   2.514   7.867  0.4213  0.1884 -0.0625
   74MOL   C25428140   6.961   2.443   7.858 -0.5246  0.2353  0.8066
   74MOL   C25528141   6.907   2.360   7.963  0.4337  0.4652  0.2817
   74MOL   C25628142   6.811   2.267   7.939  0.3616 -0.3723  0.2549
   74MOL   C25728143   6.752   2.265   7.812 -0.2097 -0.6024  0.2465
   74MOL   C25828144   6.785   2.353   7.712  0.2703  0.0007  0.6240
   74MOL   C25928145   6.891   2.448   7.734  0.6373  0.1582  0.2045
   74MOL   H26028146   7.344   2.159   8.009 -2.1443  0.0821 -2.0014
   74MOL   H26128147   7.189   2.288   7.840 -0.3255 -1.6407  0.8608
   74MOL   H26228148   7.248   2.546   7.968 -1.1475  2.1653  1.1142
   74MOL   H26328149   7.116   2.453   8.053  0.6559  0.9407 -0.0255
   74MOL   H26428150   6.946   2.369   8.063  0.6756  0.9839  0.1447
   74MOL   H26528151   6.788   2.195   8.016 -2.3079  0.2863  0.1301
   74MOL   H26628152   6.677   2.189   7.798  1.4719 -2.0001 -1.2545
   74MOL   H26728153   6.730   2.343   7.619 -0.5608  0.5039  1.0540
   74MOL   C26828154   6.935   2.545   7.624  0.5534 -0.6055  0.0616
   74MOL   C26928155   7.052   2.519   7.536  0.6114  0.1931  0.1034
   74MOL   O27028156   6.916   2.497   7.493 -0.0939 -0.1395 -0.3517
   74MOL   C27128157   7.148   2.409   7.567  0.4430 -0.1640  0.4540
   74MOL   O27228158   7.204   2.371   7.446 -0.6091 -0.2568  0.2281
   74MOL   C27328159   7.282   2.257   7.438 -0.4056  0.4545 -0.4243
   74MOL   C27428160   7.358   2.221   7.552  0.0046  0.2903  0.0033
   74MOL   C27528161   7.442   2.111   7.548 -0.1148  0.5965  0.1934
   74MOL   C27628162   7.452   2.032   7.432 -0.3442  0.0207  0.1486
   74MOL   C27728163   7.372   2.064   7.319  0.5611  0.1120  0.1753
   74MOL   C27828164   7.293   2.182   7.320  0.4101  0.3388  0.4648
   74MOL   H27928165   6.915   2.648   7.652 -0.3692 -1.4356  2.7024
   74MOL   H28028166   7.087   2.604   7.478 -0.7217 -0.4024 -1.5849
   74MOL   H28128167   7.104   2.328   7.626  0.0152 -0.0691  0.2647
   74MOL   H28228168   7.227   2.447   7.632 -0.0341 -0.5570  1.2738
   74MOL   H28328169   7.353   2.274   7.646  0.8547 -2.5545  1.7295
   74MOL   H28428170   7.502   2.079   7.632  2.1066  0.0153 -1.5565
   74MOL   H28528171   7.517   1.946   7.421 -0.3004  0.0244  0.3938
   74MOL   H28628172   7.381   2.014   7.224 -1.3357  2.8698 -1.4970
   74MOL   C28728173   7.206   2.226   7.207  0.1676  0.3918 -0.6521
   74MOL   C28828174   7.235   2.327   7.098  0.4467 -0.2573  0.4439
   74MOL   O28928175   7.250   2.185   7.074  0.8940 -0.1345  0.4840
   74MOL   C29028176   7.363   2.405   7.076 -0.0657 -1.0646  0.2617
   74MOL   O29128177   7.340   2.513   6.983 -0.3876  0.0828 -0.0922
   74MOL   C29228178   7.308   2.491   6.850 -0.0881 -0.1131  0.3958
   74MOL   C29328179   7.309   2.358   6.797  0.2711 -0.7942  0.2433
   74MOL   C29428180   7.283   2.344   6.659  0.3408  0.9661 -0.5327
   74MOL   C29528181   7.243   2.450   6.581 -0.0408  0.2598 -0.2132
   74MOL   C29628182   7.243   2.584   6.637  0.1950 -0.1027 -0.1266
   74MOL   C29728183   7.279   2.605   6.769 -0.3083 -0.0305  0.1220
   74MOL   H29828184   7.103   2.205   7.235  0.2175  2.5770  1.2839
   74MOL   H29928185   7.151   2.351   7.033  0.4981  0.4913  0.6549
   74MOL   H30028186   7.449   2.341   7.058  0.0026 -0.1379 -3.0627
   74MOL   H30128187   7.378   2.452   7.173 -2.4408 -0.5352  0.4037
   74MOL   H30228188   7.341   2.272   6.855  1.4089 -1.6999 -1.6444
   74MOL   H30328189   7.284   2.242   6.622 -0.8939  1.3122 -1.5272
   74MOL   H30428190   7.216   2.428   6.479  0.6673  0.6833 -0.4948
   74MOL   H30528191   7.212   2.666   6.573 -0.7908  0.2045  0.7293
   74MOL   C30628192   7.292   2.739   6.830 -0.1971  0.0804  0.0812
   74MOL   C30728193   7.415   2.825   6.839  0.2203  0.4452 -0.2779
   74MOL   O30828194   7.324   2.834   6.735 -1.0126 -0.1855  0.5883
   74MOL   C30928195   7.556   2.771   6.809 -0.1559  0.3218  0.9138
   74MOL   O31028196   7.654   2.872   6.818 -0.0958 -0.5541 -0.1112
   74MOL   C31128197   7.662   2.962   6.714  0.4653 -0.4215 -0.6285
   74MOL   C31228198   7.579   2.976   6.606  0.5460  0.2173 -0.8171
   74MOL   C31328199   7.604   3.065   6.499 -0.6055 -0.1151  0.4073
   74MOL   C31428200   7.722   3.142   6.497 -0.3278  0.5010 -0.3906
   74MOL   C31528201   7.806   3.135   6.613  0.7147  0.8349 -0.0092
   74MOL   C31628202   7.774   3.045   6.714 -0.3255  0.2326  0.1395
   74MOL   H31728203   7.207   2.771   6.890  1.7357  3.5141  1.1536
   74MOL   H31828204   7.414   2.904   6.914 -1.1346  0.0789  0.1096
   74MOL   H31928205   7.553   2.715   6.715  1.4329 -0.7835  1.4860
   74MOL   H32028206   7.582   2.689   6.876 -1.2764 -2.3502 -1.7939
   74MOL   H32128207   7.481   2.931   6.604 -0.9415  3.2888  0.2858
   74MOL   H32228208   7.544   3.080   6.410 -0.0284  1.1969  0.2311
   74MOL   H32328209   7.749   3.211   6.418 -1.4039  3.0532  1.4265
   74MOL   H32428210   7.898   3.193   6.612 -0.2537  2.4097 -1.8948
   74MOL   C32528211   7.871   3.034   6.827  0.3003  0.6575  0.9321
   74MOL   C32628212   7.956   2.915   6.866  0.2474 -0.3402 -0.1060
   74MOL   O32728213   8.009   3.024   6.783 -0.0455 -0.1439  0.8014
   74MOL   C32828214   7.954   2.778   6.796  0.1093  0.0221  0.5326
   74MOL   O32928215   8.030   2.685   6.867  0.1003  0.1025 -0.0561
   74MOL   C33028216   8.025   2.556   6.817 -0.1780 -0.4182  0.3920
   74MOL   C33128217   8.037   2.529   6.678  0.0853  0.3915  0.0387
   74MOL   C33228218   8.037   2.394   6.633 -0.0346  0.0514 -0.6758
   74MOL   C33328219   8.033   2.291   6.733  0.7975 -0.1011 -0.2532
   74MOL   C33428220   8.010   2.329   6.867  0.5663 -0.9914 -0.3822
   74MOL   C33528221   8.002   2.459   6.913  0.6459 -0.1793  0.4041
   74MOL   H33628222   7.841   3.105   6.905  1.8952  1.5083  0.7869
   74MOL   H33728223   7.998   2.928   6.966 -0.1063  1.5433 -0.1847
   74MOL   H33828224   7.989   2.799   6.695 -1.8039  0.6296 -0.0335
   74MOL   H33928225   7.851   2.741   6.792 -0.1112  0.5967  0.8620
   74MOL   H34028226   8.056   2.603   6.602 -2.8864  0.8339 -0.3457
   74MOL   H34128227   8.045   2.382   6.526  0.0223 -1.6716 -0.4924
   74MOL   H34228228   8.042   2.188   6.705  1.0924  0.5459 -2.6567
   74MOL   H34328229   8.006   2.251   6.942  1.9510 -0.1568  0.6058
   74MOL   C34428230   7.990   2.489   7.062 -0.2810 -0.3173  0.0733
   74MOL   C34528231   7.862   2.533   7.133  0.3676 -0.0643 -0.6443
   74MOL   O34628232   7.910   2.396   7.135 -0.2797  0.0233 -0.5843
   74MOL   C34728233   7.731   2.562   7.061  0.1833 -0.5540 -0.1575
   74MOL   O34828234   7.629   2.618   7.140  0.3454 -0.4425 -0.6374
   74MOL   C34928235   7.635   2.752   7.169 -0.3821  0.1677  0.8579
   74MOL   C35028236   7.749   2.834   7.143 -0.0546 -0.8684 -0.1796
   74MOL   C35128237   7.750   2.973   7.190  0.2692 -0.2339  0.0514
   74MOL   C35228238   7.637   3.026   7.251  0.1846  0.3190 -0.3637
   74MOL   C35328239   7.523   2.948   7.255 -0.1167  0.3783 -0.6174
   74MOL   C35428240   7.519   2.811   7.227 -0.1248  0.2053 -0.0922
   74MOL   H35528241   8.085   2.515   7.108  0.5962 -1.3882 -1.0663
   74MOL   H35628242   7.873   2.574   7.234  0.4161  1.0021 -1.0755
   74MOL   H35728243   7.694   2.478   7.003  3.2858 -0.6457 -2.1008
   74MOL   H35828244   7.759   2.630   6.980 -0.9362  0.3488  0.1969
   74MOL   H35928245   7.842   2.795   7.104 -0.1372 -0.7223 -0.5293
   74MOL   H36028246   7.844   3.025   7.186  1.3670 -1.9726  2.4021
   74MOL   H36128247   7.636   3.130   7.280  0.8654 -0.0711  1.1225
   74MOL   H36228248   7.433   2.996   7.290  0.8124  1.2746  0.5654
   74MOL   C36328249   7.388   2.730   7.243 -0.3379 -0.8067  0.3753
   74MOL   C36428250   7.350   2.664   7.378  0.2438 -0.2425 -0.0581
   74MOL   O36528251   7.292   2.789   7.329 -0.9115 -0.5991 -0.1352
   74MOL   C36628252   7.417   2.675   7.510  0.0120 -0.6822 -0.3418
   74MOL   O36728253   7.309   2.687   7.604  0.1336 -0.3671  0.2390
   74MOL   C36828254   7.339   2.717   7.733 -0.2961  0.7600 -0.8475
   74MOL   C36928255   7.251   2.811   7.792  0.0350  1.0184 -0.1515
   74MOL   C37028256   7.277   2.858   7.924 -0.6035 -0.7881  0.9605
   74MOL   C37128257   7.389   2.818   8.006  0.5433 -0.2810  0.4593
   74MOL   C37228258   7.471   2.721   7.947 -0.3407 -0.8811 -0.8381
   74MOL   C37328259   7.455   2.675   7.815 -0.2551  0.4971 -0.2993
   74MOL   H37428260   7.358   2.692   7.145 -1.5103  1.2926 -0.0946
   74MOL   H37528261   7.273   2.588   7.375  1.1482 -1.2446  1.2616
   74MOL   H37628262   7.484   2.761   7.514  0.1204 -0.8779  2.7240
   74MOL   H37728263   7.472   2.583   7.531 -0.3406 -0.7317  0.3829
   74MOL   H37828264   7.161   2.847   7.745 -1.9101 -2.3822  0.7999
   74MOL   H37928265   7.211   2.938   7.955 -0.3239 -0.3558  0.4361
   74MOL   H38028266   7.396   2.851   8.109  0.1170  1.3311 -0.0034
   74MOL   H38128267   7.561   2.691   7.998 -0.5223 -0.9945 -0.5844
   74MOL   H38228268   7.522   2.598   7.780 -0.9229 -0.5797  0.7404
   75MOL     C128269   1.805   4.842   5.549  0.4722  0.8202  0.4244
   75MOL     C228270   1.859   4.982   5.529 -0.4544 -0.0549 -0.0915
   75MOL     O328271   1.892   4.920   5.646  0.3012 -0.3918 -0.2142
   75MOL     C428272   1.793   5.121   5.552  0.1804 -0.5939 -0.2151
   75MOL     O528273   1.649   5.120   5.570 -0.5426 -0.5817  0.7545
   75MOL     C628274   1.567   5.130   5.461  0.0177 -0.0376  0.2925
   75MOL     C728275   1.615   5.113   5.330  0.1541  0.0747 -0.3437
   75MOL     C828276   1.533   5.133   5.219  0.2052  0.2234  0.5166
   75MOL     C928277   1.405   5.186   5.243 -0.1775  0.5077  0.1654
   75MOL    C1028278   1.349   5.206   5.368 -0.4192  0.1657 -0.0771
   75MOL    C1128279   1.435   5.168   5.477  0.0894  0.7590  0.6926
   75MOL    H1228280   1.858   4.752   5.519 -0.4897  0.1018  0.8753
   75MOL    H1328281   1.948   5.003   5.470 -0.4305  3.2297  0.9669
   75MOL    H1428282   1.809   5.190   5.469 -1.7171 -0.6771 -0.6627
   75MOL    H1528283   1.831   5.170   5.642 -2.8362  0.1789  0.6709
   75MOL    H1628284   1.712   5.080   5.299  0.6930  2.3836 -1.2279
   75MOL    H1728285   1.585   5.120   5.125 -2.5048  2.0547 -1.3013
   75MOL    H1828286   1.344   5.212   5.158  0.3176  2.1426  0.2855
   75MOL    H1928287   1.250   5.250   5.369 -0.1190  0.8432  0.1183
   75MOL    H2028288   1.703   4.836   5.586 -0.0148 -1.7955 -1.2285
   75MOL    C2128289   1.377   5.171   5.621 -0.3491 -0.0463  0.1819
   75MOL    C2228290   1.411   5.267   5.735  0.5481 -0.7469 -0.5248
   75MOL    O2328291   1.301   5.295   5.642  0.1933 -0.2617  0.1043
   75MOL    C2428292   1.528   5.365   5.729  0.0494 -0.4831  0.4040
   75MOL    O2528293   1.528   5.454   5.835  0.1994  0.1226  0.9592
   75MOL    C2628294   1.479   5.583   5.818  0.0293 -0.5202  0.2003
   75MOL    C2728295   1.402   5.633   5.707  0.4494  0.0038 -0.4752
   75MOL    C2828296   1.354   5.769   5.690  0.4128 -0.3385 -0.4391
   75MOL    C2928297   1.412   5.863   5.782 -1.2155  0.1931  0.2698
   75MOL    C3028298   1.487   5.814   5.895  0.4147 -0.0878  0.4737
   75MOL    C3128299   1.505   5.679   5.918 -0.4289  0.0000  0.1320
   75MOL    H3228300   1.319   5.082   5.644  2.4589 -1.6447  1.2743
   75MOL    H3328301   1.393   5.223   5.833  0.2734  2.7004  1.0544
   75MOL    H3428302   1.547   5.400   5.627 -2.0715 -3.9177 -1.2542
   75MOL    H3528303   1.615   5.304   5.751  1.5181  1.4562  0.1113
   75MOL    H3628304   1.384   5.560   5.630  2.4108 -0.0178 -0.9484
   75MOL    H3728305   1.321   5.792   5.590  1.2038 -0.1883 -0.6705
   75MOL    H3828306   1.415   5.970   5.764  1.7309 -0.1268 -1.5123
   75MOL    H3928307   1.531   5.880   5.969  1.3042 -1.9422  1.6534
   75MOL    C4028308   1.572   5.643   6.047  0.2521 -0.3054  0.3311
   75MOL    C4128309   1.692   5.559   6.068 -0.4254 -0.5609 -0.0689
   75MOL    O4228310   1.699   5.707   6.072 -0.2275 -0.4360 -0.0202
   75MOL    C4328311   1.798   5.507   5.970 -0.4997  0.0427 -0.7537
   75MOL    O4428312   1.788   5.566   5.843 -0.1536  1.0133 -0.3744
   75MOL    C4528313   1.894   5.624   5.779 -0.4295  0.0767 -0.7595
   75MOL    C4628314   1.987   5.705   5.849  1.0767  0.8999  0.1560
   75MOL    C4728315   2.088   5.782   5.785 -0.4725 -0.0719 -0.3615
   75MOL    C4828316   2.115   5.755   5.648 -0.0327  0.4771 -0.2584
   75MOL    C4928317   2.032   5.671   5.578  0.7484 -0.3549  0.0872
   75MOL    C5028318   1.917   5.609   5.643 -0.1690 -0.1494  0.3368
   75MOL    H5128319   1.502   5.659   6.130 -1.6123  1.8477 -1.5770
   75MOL    H5228320   1.690   5.515   6.168  2.9973  0.5688  0.5782
   75MOL    H5328321   1.779   5.400   5.966  0.0835 -0.0453 -1.4547
   75MOL    H5428322   1.896   5.538   6.005 -0.8557  0.4379 -0.1017
   75MOL    H5528323   1.977   5.716   5.956 -1.5013  0.3494  0.0103
   75MOL    H5628324   2.149   5.851   5.842 -0.2843 -2.0746  1.9286
   75MOL    H5728325   2.194   5.801   5.590 -0.1656 -1.4280 -2.0033
   75MOL    H5828326   2.050   5.648   5.474  3.5909  0.1670  0.4164
   75MOL    C5928327   1.817   5.525   5.565  0.6328 -0.7460  0.0845
   75MOL    C6028328   1.696   5.592   5.487 -0.4067 -0.1616 -0.1418
   75MOL    O6128329   1.811   5.551   5.422  0.2045  0.3660  0.1089
   75MOL    C6228330   1.666   5.739   5.499  0.4069  0.1110  0.1738
   75MOL    O6328331   1.562   5.772   5.402  0.4866 -0.3410  0.0074
   75MOL    C6428332   1.508   5.896   5.405  0.2275 -0.2901  0.2688
   75MOL    C6528333   1.526   5.993   5.511  0.6404  0.1803  0.4811
   75MOL    C6628334   1.455   6.108   5.494  0.4251 -0.3103 -0.2651
   75MOL    C6728335   1.377   6.139   5.386 -0.7627 -1.1717 -0.8370
   75MOL    C6828336   1.360   6.048   5.286  0.4112 -0.1087 -0.2888
   75MOL    C6928337   1.422   5.922   5.291 -0.2996 -0.5624  0.0033
   75MOL    H7028338   1.813   5.418   5.581  3.5837 -0.8288  0.4681
   75MOL    H7128339   1.613   5.532   5.453 -0.5046 -0.6190  0.9001
   75MOL    H7228340   1.763   5.784   5.478 -0.0202  1.5134  1.0914
   75MOL    H7328341   1.624   5.757   5.598  1.2855  1.0040  0.3920
   75MOL    H7428342   1.587   5.975   5.598  0.7310  0.1130  0.4037
   75MOL    H7528343   1.469   6.191   5.561  0.0409  0.4368 -1.1014
   75MOL    H7628344   1.326   6.234   5.376  1.2749 -0.1346 -1.6262
   75MOL    H7728345   1.293   6.072   5.205 -2.6622 -1.6559  1.6983
   75MOL    C7828346   1.395   5.825   5.180 -0.3116  0.2665 -0.2254
   75MOL    C7928347   1.318   5.701   5.182  0.3563 -0.8465  0.0561
   75MOL    O8028348   1.257   5.823   5.140  0.2542 -0.0661 -0.6432
   75MOL    C8128349   1.270   5.639   5.309 -0.3401  0.7035  0.0564
   75MOL    O8228350   1.144   5.572   5.297 -0.2109  0.4022 -0.2709
   75MOL    C8328351   1.029   5.637   5.332  0.1817  0.1752  0.2657
   75MOL    C8428352   1.011   5.783   5.330  0.2486 -0.6415  0.1269
   75MOL    C8528353   0.895   5.834   5.379  0.4047 -0.0915  0.4860
   75MOL    C8628354   0.796   5.752   5.440  0.4927 -0.4904  0.0999
   75MOL    C8728355   0.817   5.616   5.444 -0.5658 -0.6187 -0.3490
   75MOL    C8828356   0.932   5.555   5.390 -0.2774  0.3487 -0.1089
   75MOL    H8928357   1.470   5.833   5.102  0.1312 -0.1469  0.1476
   75MOL    H9028358   1.336   5.631   5.101  2.0541 -2.1506  1.5237
   75MOL    H9128359   1.268   5.714   5.387 -1.5466  0.2542  0.4723
   75MOL    H9228360   1.342   5.559   5.326  0.2707  1.3509  0.5341
   75MOL    H9328361   1.085   5.853   5.295 -0.9743 -0.0269 -1.2557
   75MOL    H9428362   0.884   5.942   5.381  0.9287 -0.0527  2.1426
   75MOL    H9528363   0.704   5.787   5.484  0.4407 -0.7913  0.2280
   75MOL    H9628364   0.751   5.556   5.504 -0.4535 -3.4487 -2.9569
   75MOL    C9728365   0.950   5.403   5.408  1.1823 -0.2676  0.7436
   75MOL    C9828366   1.004   5.355   5.545  0.3542 -0.6960  0.1959
   75MOL    O9928367   0.865   5.347   5.506  0.3082  0.2866 -0.2482
   75MOL   C10028368   1.039   5.455   5.658  0.1239 -0.4247  0.4557
   75MOL   O10128369   1.066   5.397   5.781 -0.6244  0.1868 -0.1314
   75MOL   C10228370   0.960   5.367   5.862 -0.4835 -0.6714  0.7773
   75MOL   C10328371   0.826   5.394   5.829  0.3402  0.3372 -0.5426
   75MOL   C10428372   0.722   5.359   5.911 -0.6880 -0.1139 -0.0726
   75MOL   C10528373   0.750   5.283   6.026  0.4366  0.3826 -0.0129
   75MOL   C10628374   0.885   5.245   6.057 -0.6044 -1.2181  0.0591
   75MOL   C10728375   0.994   5.290   5.973 -0.7847  0.4987 -0.1861
   75MOL   H10828376   0.958   5.337   5.322  1.6343  0.4558  0.2189
   75MOL   H10928377   1.067   5.266   5.550 -1.5945 -2.0248  1.6541
   75MOL   H11028378   0.968   5.537   5.657 -0.2715 -0.7559  1.1416
   75MOL   H11128379   1.132   5.507   5.632  0.1751 -1.5112 -1.6838
   75MOL   H11228380   0.802   5.447   5.738  0.0004 -0.4016 -0.8847
   75MOL   H11328381   0.623   5.385   5.878 -0.0162  0.7699 -1.4549
   75MOL   H11428382   0.672   5.262   6.097 -0.9851  0.8615 -1.3908
   75MOL   H11528383   0.898   5.187   6.148  1.2258 -0.3429  0.3932
   75MOL   C11628384   1.143   5.265   6.007  0.7181 -0.2205  0.5552
   75MOL   C11728385   1.227   5.379   6.070 -0.0505 -0.2626  0.3300
   75MOL   O11828386   1.162   5.281   6.148 -0.3460 -0.0216  0.0469
   75MOL   C11928387   1.176   5.520   6.073 -0.6397  0.0162  0.5024
   75MOL   O12028388   1.207   5.599   6.188  0.0314 -0.2797 -0.5374
   75MOL   C12128389   1.117   5.604   6.296  0.1546  0.5761  0.1950
   75MOL   C12228390   1.004   5.517   6.303 -0.4664  0.3460 -0.4284
   75MOL   C12328391   0.907   5.533   6.399 -0.0322 -0.2769 -0.1326
   75MOL   C12428392   0.916   5.630   6.500 -0.2735  0.7301  0.1159
   75MOL   C12528393   1.023   5.718   6.494  0.5386 -0.2286 -0.2186
   75MOL   C12628394   1.123   5.708   6.394 -0.2356 -0.0274  0.4454
   75MOL   H12728395   1.181   5.176   5.957  0.1643 -0.2799  0.2311
   75MOL   H12828396   1.336   5.368   6.069 -0.1280 -1.0262  0.5495
   75MOL   H12928397   1.068   5.514   6.055 -0.4513 -1.6387 -0.1679
   75MOL   H13028398   1.203   5.573   5.981 -2.7600 -1.2093 -0.8758
   75MOL   H13128399   1.003   5.438   6.228 -1.2823 -0.0248 -0.0390
   75MOL   H13228400   0.820   5.471   6.387 -0.6612 -0.8741  5.9793
   75MOL   H13328401   0.835   5.638   6.570 -0.2650  0.2244  0.1901
   75MOL   H13428402   1.041   5.793   6.570  1.7541 -0.3952 -0.3324
   75MOL   C13528403   1.228   5.813   6.394  1.0036  0.1294  0.7229
   75MOL   C13628404   1.239   5.921   6.291  0.2456  0.6117  0.1897
   75MOL   O13728405   1.154   5.939   6.401 -0.3685  0.0256  0.0123
   75MOL   C13828406   1.170   5.906   6.151  0.3555  0.6906 -0.6802
   75MOL   O13928407   1.156   6.028   6.083  0.0534  0.0297  0.0271
   75MOL   C14028408   1.108   6.013   5.953 -0.8266 -0.0174  0.1234
   75MOL   C14128409   1.086   5.898   5.879  0.8328  0.0332  0.8231
   75MOL   C14228410   1.042   5.898   5.748 -0.3549 -0.6040  0.2976
   75MOL   C14328411   1.011   6.020   5.685  0.8013  0.2739  0.5141
   75MOL   C14428412   1.038   6.141   5.751  0.3560  0.1101 -0.2718
   75MOL   C14528413   1.088   6.145   5.886  0.0797  0.9234  0.2236
   75MOL   H14628414   1.293   5.805   6.481  0.0486  1.4310  1.5782
   75MOL   H14728415   1.338   5.965   6.290  0.4444  0.1698  0.0814
   75MOL   H14828416   1.074   5.854   6.155 -0.1080  1.5133 -0.9492
   75MOL   H14928417   1.231   5.837   6.092  1.5469 -1.7808  3.2554
   75MOL   H15028418   1.096   5.801   5.926  4.1962  0.3498  0.8409
   75MOL   H15128419   1.032   5.810   5.685  0.2247 -0.1656 -0.4152
   75MOL   H15228420   0.981   6.020   5.581  1.8169  1.0879  0.2161
   75MOL   H15328421   1.028   6.231   5.691 -1.2352 -0.9191 -1.5942
   75MOL   C15428422   1.124   6.272   5.952 -0.0033 -0.0570 -0.3618
   75MOL   C15528423   1.242   6.359   5.923  0.0057 -0.6866  0.5227
   75MOL   O15628424   1.116   6.388   5.862 -0.0934  0.0102 -0.1029
   75MOL   C15728425   1.349   6.315   5.829 -0.0726  0.1778 -0.1533
   75MOL   O15828426   1.395   6.419   5.742 -0.0772  0.0368 -0.4677
   75MOL   C15928427   1.472   6.521   5.799 -0.5978  0.2178 -0.6870
   75MOL   C16028428   1.514   6.521   5.936 -0.4260 -0.0756  0.0511
   75MOL   C16128429   1.603   6.624   5.979  0.5335  0.5330  0.1607
   75MOL   C16228430   1.651   6.722   5.888  0.7262 -0.1451 -0.0334
   75MOL   C16328431   1.616   6.713   5.754  0.0084 -0.1889 -0.0708
   75MOL   C16428432   1.523   6.616   5.707 -0.6419 -0.4695  0.1524
   75MOL   H16528433   1.076   6.268   6.050 -1.6606 -1.5968 -1.2311
   75MOL   H16628434   1.268   6.436   5.995 -0.2930  1.1365 -1.2939
   75MOL   H16728435   1.310   6.239   5.761 -1.1232 -0.9308  1.6315
   75MOL   H16828436   1.431   6.276   5.889  0.9185  0.5822 -1.2185
   75MOL   H16928437   1.500   6.438   6.004 -1.0319  0.9277  1.1649
   75MOL   H17028438   1.636   6.619   6.081  0.8499  1.1154  0.0916
   75MOL   H17128439   1.710   6.801   5.932 -1.5190  1.2179  0.5668
   75MOL   H17228440   1.652   6.785   5.682 -1.5112  0.1939 -0.4728
   75MOL   C17328441   1.487   6.604   5.563 -1.4053  0.0443 -0.3197
   75MOL   C17428442   1.344   6.594   5.505  0.1762  0.0735  0.3991
   75MOL   O17528443   1.419   6.722   5.511 -0.1143  0.4841  1.0225
   75MOL   C17628444   1.210   6.590   5.584  0.3548 -0.3463 -0.4194
   75MOL   O17728445   1.116   6.660   5.503 -0.0498  0.8802  0.0280
   75MOL   C17828446   1.014   6.722   5.571 -0.1049 -0.3334 -0.3098
   75MOL   C17928447   0.955   6.680   5.694 -0.6309 -0.3872 -0.7363
   75MOL   C18028448   0.861   6.761   5.760  0.1351  0.7329  0.1556
   75MOL   C18128449   0.809   6.875   5.689 -0.4308  0.4558 -0.2376
   75MOL   C18228450   0.848   6.907   5.561 -0.1641  0.1748  0.2693
   75MOL   C18328451   0.954   6.835   5.502  0.1543  0.4405  0.8631
   75MOL   H18428452   1.566   6.559   5.503 -2.2294  0.3216 -1.6407
   75MOL   H18528453   1.326   6.555   5.405 -1.5508  0.9961  0.3229
   75MOL   H18628454   1.225   6.633   5.683 -1.8718 -0.1639 -0.1534
   75MOL   H18728455   1.175   6.487   5.593  2.3927 -1.0962 -0.7132
   75MOL   H18828456   0.988   6.597   5.755  0.5137  0.6625  0.1114
   75MOL   H18928457   0.824   6.727   5.856  1.1480  0.0455  0.3144
   75MOL   H19028458   0.741   6.936   5.746 -1.2277 -0.9471  0.3370
   75MOL   H19128459   0.796   6.985   5.506 -1.1230  1.0581  2.3744
   75MOL   C19228460   0.986   6.860   5.357 -0.0970 -0.3706 -0.4606
   75MOL   C19328461   0.924   6.791   5.245  0.2411  0.4997  0.0412
   75MOL   O19428462   0.881   6.921   5.278  0.3890  0.0426  0.6411
   75MOL   C19528463   0.826   6.677   5.263  0.2342  0.5746  0.5484
   75MOL   O19628464   0.812   6.588   5.158 -0.1939  0.0631  0.5067
   75MOL   C19728465   0.923   6.506   5.125 -0.9821 -0.2473 -0.9051
   75MOL   C19828466   1.042   6.488   5.208 -0.0745 -0.9390  0.1019
   75MOL   C19928467   1.143   6.400   5.174 -0.2027  0.0466  0.1384
   75MOL   C20028468   1.139   6.328   5.059 -0.1929 -0.0901  0.4142
   75MOL   C20128469   1.032   6.343   4.971  0.2970  0.0254  0.1709
   75MOL   C20228470   0.931   6.433   5.003 -0.1613  0.1601 -0.3140
   75MOL   H20328471   1.076   6.922   5.353 -0.9279  0.8757 -0.0322
   75MOL   H20428472   0.974   6.788   5.149 -1.0944 -0.5882 -0.6441
   75MOL   H20528473   0.722   6.710   5.273  0.4214  0.3668  3.4281
   75MOL   H20628474   0.842   6.627   5.358  0.5337 -0.7426 -0.1953
   75MOL   H20728475   1.052   6.551   5.295  0.4159 -0.7468 -0.0913
   75MOL   H20828476   1.231   6.401   5.237 -0.6944  1.4676  0.8221
   75MOL   H20928477   1.213   6.258   5.022 -0.4462  0.4529 -1.1582
   75MOL   H21028478   1.038   6.295   4.875  2.1928  1.5490 -0.5103
   75MOL   C21128479   0.808   6.436   4.920 -0.7724 -0.1240  0.3123
   75MOL   C21228480   0.779   6.564   4.841  0.1932 -0.3079  0.4976
   75MOL   O21328481   0.857   6.451   4.787 -0.2782  0.1736  0.3962
   75MOL   C21428482   0.859   6.701   4.844 -0.7390 -0.1589  1.0246
   75MOL   O21528483   0.788   6.797   4.766 -0.4541 -0.0383  0.4398
   75MOL   C21628484   0.836   6.923   4.726  0.5712  0.1096 -0.0064
   75MOL   C21728485   0.966   6.963   4.759 -0.5470  0.0488  0.4358
   75MOL   C21828486   1.010   7.089   4.723 -0.6029 -0.1306 -0.3237
   75MOL   C21928487   0.923   7.185   4.660 -0.3613 -0.1087 -0.1415
   75MOL   C22028488   0.791   7.148   4.630 -0.5061 -0.4127  0.2289
   75MOL   C22128489   0.750   7.014   4.662  0.2073  1.2015  0.0110
   75MOL   H22228490   0.723   6.377   4.953 -0.3443  0.3397  2.2911
   75MOL   H22328491   0.677   6.566   4.801  0.7594 -0.9051 -1.0070
   75MOL   H22428492   0.953   6.689   4.792 -1.2609  1.7817 -0.4441
   75MOL   H22528493   0.886   6.726   4.947 -0.6433 -1.8668  1.4295
   75MOL   H22628494   1.038   6.895   4.804 -0.8325  0.1605  1.0732
   75MOL   H22728495   1.113   7.109   4.749 -0.4690  1.8018 -2.2045
   75MOL   H22828496   0.958   7.287   4.655 -0.3495 -0.1004  0.1125
   75MOL   H22928497   0.714   7.219   4.605 -0.8589 -0.3659  1.3796
   75MOL   C23028498   0.617   6.960   4.614  0.2339 -1.0175 -0.1161
   75MOL   C23128499   0.485   6.978   4.694  0.0657 -0.2553  0.1003
   75MOL   O23228500   0.520   7.054   4.573 -0.3408  0.2463 -0.4137
   75MOL   C23328501   0.466   7.062   4.823 -0.0446  0.0043 -0.1493
   75MOL   O23428502   0.338   7.118   4.821 -1.0593  0.1993  0.0308
   75MOL   C23528503   0.302   7.211   4.921 -0.1985  0.0235  0.8125
   75MOL   C23628504   0.368   7.217   5.049 -0.0305  0.1150  0.8783
   75MOL   C23728505   0.327   7.299   5.150 -0.1646  0.3968 -0.2527
   75MOL   C23828506   0.223   7.390   5.129 -0.4187  0.0579 -0.3069
   75MOL   C23928507   0.166   7.394   5.001  0.6500  0.8246  0.7749
   75MOL   C24028508   0.203   7.307   4.898  0.3921 -0.2121  0.4947
   75MOL   H24128509   0.617   6.866   4.560 -1.5178  0.5900 -3.0368
   75MOL   H24228510   0.401   6.910   4.686 -1.0029  1.1340 -0.7252
   75MOL   H24328511   0.547   7.132   4.842 -0.8977  0.9404  0.0279
   75MOL   H24428512   0.470   6.997   4.911 -0.4403  1.2429  0.7921
   75MOL   H24528513   0.443   7.144   5.079 -1.0823 -0.8832  1.0919
   75MOL   H24628514   0.378   7.296   5.246  2.2022 -2.4153 -1.5532
   75MOL   H24728515   0.198   7.469   5.198 -0.3317  1.4998 -1.8777
   75MOL   H24828516   0.104   7.477   4.971  1.0772  0.8439 -0.0892
   75MOL   C24928517   0.136   7.316   4.764 -0.2800 -0.0189 -0.1202
   75MOL   C25028518   0.029   7.223   4.705 -0.3000 -0.3343 -0.2212
   75MOL   O25128519   8.167   7.343   4.779  0.2711 -0.0465  0.4370
   75MOL   C25228520   0.011   7.088   4.770  0.5685  0.7259  0.4204
   75MOL   O25328521   8.065   7.019   4.732 -0.0460  0.3461 -0.4114
   75MOL   C25428522   7.967   7.026   4.826  0.8572  0.7335  0.2016
   75MOL   C25528523   7.920   7.149   4.873  0.7868  0.0612  0.1690
   75MOL   C25628524   7.797   7.163   4.944  0.3802 -0.3612  0.6125
   75MOL   C25728525   7.734   7.046   4.985 -0.3605 -0.3095  0.5125
   75MOL   C25828526   7.783   6.916   4.949 -0.0679 -0.2457  0.7430
   75MOL   C25928527   7.894   6.910   4.864  0.1527 -0.1398 -0.3487
   75MOL   H26028528   0.191   7.360   4.681  0.0679  1.5007  0.8927
   75MOL   H26128529   0.010   7.231   4.598  1.1965 -1.9695 -0.6353
   75MOL   H26228530   0.012   7.107   4.878  0.5163 -1.8784  0.8980
   75MOL   H26328531   0.099   7.028   4.745  0.7591  0.2302  2.2045
   75MOL   H26428532   7.965   7.246   4.858  0.5914  0.2912  1.0080
   75MOL   H26528533   7.757   7.259   4.972 -0.8548 -0.5893 -0.3275
   75MOL   H26628534   7.640   7.057   5.036  0.4912  0.9019  1.8509
   75MOL   H26728535   7.736   6.823   4.977 -1.4721  0.1892 -0.1113
   75MOL   C26828536   7.925   6.777   4.799  0.5577  0.6292 -0.3641
   75MOL   C26928537   8.049   6.694   4.828 -0.4914 -0.4735  0.7783
   75MOL   O27028538   7.927   6.666   4.895  0.7352 -0.0283 -0.6475
   75MOL   C27128539   0.000   6.744   4.910  0.7417 -1.0776 -0.5255
   75MOL   O27228540   0.090   6.630   4.910  0.1807  0.3632 -0.2760
   75MOL   C27328541   0.217   6.646   4.970 -0.3995 -0.3068 -0.0951
   75MOL   C27428542   0.274   6.772   5.013  0.5659  0.4032  0.7503
   75MOL   C27528543   0.403   6.782   5.063 -0.6429 -0.0777 -0.3662
   75MOL   C27628544   0.477   6.661   5.081  0.7221  0.3009  0.1378
   75MOL   C27728545   0.419   6.536   5.054 -0.2878  0.2445  0.6570
   75MOL   C27828546   0.292   6.530   4.991  0.4733 -0.1891  0.1771
   75MOL   H27928547   7.865   6.760   4.710  1.8799 -1.5616 -0.8500
   75MOL   H28028548   8.081   6.628   4.748  0.0283  1.3435 -0.5414
   75MOL   H28128549   8.138   6.779   5.008 -0.3852 -0.3661 -1.1401
   75MOL   H28228550   0.045   6.832   4.864  0.0445  1.3699  3.2624
   75MOL   H28328551   0.212   6.861   5.013 -1.2754 -0.8633  1.0291
   75MOL   H28428552   0.435   6.882   5.087 -0.3311  0.4217 -2.6638
   75MOL   H28528553   0.575   6.666   5.126  1.2951  0.6733 -1.1203
   75MOL   H28628554   0.465   6.440   5.068  0.1972  0.6308  1.7517
   75MOL   C28728555   0.229   6.396   4.951  0.0265 -0.1073 -0.0670
   75MOL   C28828556   0.269   6.322   4.822 -0.0144 -0.1469 -0.3013
   75MOL   O28928557   0.312   6.279   4.949  0.6581  0.0717 -0.3797
   75MOL   C29028558   0.375   6.376   4.727  0.4317 -0.1633 -0.3473
   75MOL   O29128559   0.447   6.269   4.661 -0.2388  0.3061 -0.1796
   75MOL   C29228560   0.517   6.293   4.553  0.5344 -0.1383  0.2721
   75MOL   C29328561   0.556   6.427   4.515  0.2034 -0.3818 -0.7015
   75MOL   C29428562   0.625   6.458   4.401  0.2075 -0.1280 -0.0261
   75MOL   C29528563   0.650   6.351   4.311  0.4763  0.1321 -0.9446
   75MOL   C29628564   0.622   6.217   4.352  0.7279  0.4337 -0.2794
   75MOL   C29728565   0.549   6.192   4.465  0.8147  0.7900  0.2056
   75MOL   H29828566   0.127   6.384   4.988 -0.0798  0.0624 -0.3083
   75MOL   H29928567   0.202   6.258   4.766 -1.9092  1.5460 -0.0121
   75MOL   H30028568   0.451   6.427   4.786 -0.2433 -0.8196  1.1174
   75MOL   H30128569   0.327   6.457   4.673  0.0282  0.8192  1.4414
   75MOL   H30228570   0.522   6.518   4.564  1.4461 -0.3264  0.0866
   75MOL   H30328571   0.669   6.555   4.384 -1.9228  1.3477  2.5828
   75MOL   H30428572   0.694   6.374   4.215 -0.4586 -1.2326 -1.7159
   75MOL   H30528573   0.648   6.136   4.284 -3.0568  0.0668 -1.3933
   75MOL   C30628574   0.503   6.054   4.490 -0.0364  0.6086  0.4009
   75MOL   C30728575   0.365   6.017   4.437 -0.2722  0.5550 -0.2739
   75MOL   O30828576   0.496   5.970   4.376 -0.1128  0.6340 -0.1523
   75MOL   C30928577   0.285   6.119   4.365  0.3729  0.5050  0.5492
   75MOL   O31028578   0.181   6.053   4.288 -0.0789  0.3131 -0.2581
   75MOL   C31128579   0.074   6.004   4.362  0.4934 -0.0262 -0.0265
   75MOL   C31228580   0.031   6.049   4.493 -0.1925 -0.1093  0.3247
   75MOL   C31328581   8.073   6.013   4.538  0.2609 -0.6340  1.1179
   75MOL   C31428582   7.990   5.923   4.466  0.0166  0.4243  0.1652
   75MOL   C31528583   8.033   5.879   4.338 -0.4145 -0.8713  0.0746
   75MOL   C31628584   8.162   5.915   4.295 -0.1680 -0.5823 -0.1399
   75MOL   H31728585   0.545   6.009   4.580  0.4574 -0.2617 -0.2602
   75MOL   H31828586   0.313   5.953   4.508  1.4730 -0.7116 -0.1168
   75MOL   H31928587   0.337   6.173   4.286 -1.9947 -1.0445 -2.1506
   75MOL   H32028588   0.255   6.203   4.427  0.1491  0.9402 -0.1399
   75MOL   H32128589   0.099   6.108   4.551  0.7300 -0.3507 -0.4970
   75MOL   H32228590   8.043   6.057   4.632 -0.6943 -0.8177  0.8975
   75MOL   H32328591   7.897   5.881   4.500  1.2802 -0.9086  2.1147
   75MOL   H32428592   7.965   5.817   4.282 -2.0759  0.4056  0.6385
   75MOL   C32528593   0.029   5.873   4.153  0.0781 -0.1338 -0.0163
   75MOL   C32628594   0.148   5.789   4.117  0.0516  0.1386 -1.3751
   75MOL   O32728595   0.013   5.731   4.134  0.3218  0.2143  0.3310
   75MOL   C32828596   0.244   5.745   4.209 -0.4289  0.3601  0.2269
   75MOL   O32928597   0.306   5.637   4.136 -0.1636  0.7544  1.2912
   75MOL   C33028598   0.423   5.587   4.185  0.1536  0.0546  0.6063
   75MOL   C33128599   0.477   5.628   4.308  0.6398 -0.1100 -0.3069
   75MOL   C33228600   0.604   5.580   4.354  0.4066  0.0947  0.1516
   75MOL   C33328601   0.676   5.493   4.278 -0.0678 -0.4363  0.0212
   75MOL   C33428602   0.622   5.446   4.159 -0.4217 -0.8295  0.1805
   75MOL   C33528603   0.500   5.498   4.106 -0.0965 -0.0014 -0.6991
   75MOL   H33628604   8.166   5.936   4.070  0.1728  0.1724  0.1796
   75MOL   H33728605   0.194   5.808   4.020  0.4755  1.0929 -0.9911
   75MOL   H33828606   0.196   5.722   4.304 -1.1925 -1.9721 -0.6722
   75MOL   H33928607   0.318   5.822   4.231 -1.8827  2.9086 -3.3653
   75MOL   H34028608   0.438   5.701   4.377  1.5349 -1.7695  2.0524
   75MOL   H34128609   0.650   5.624   4.442  1.2999 -0.7989  0.1378
   75MOL   H34228610   0.773   5.467   4.319  1.3931  0.9591 -2.4724
   75MOL   H34328611   0.684   5.377   4.103 -1.6435 -1.7500 -0.0498
   75MOL   C34428612   0.446   5.438   3.979 -1.1475 -0.3536  0.0238
   75MOL   C34528613   0.431   5.517   3.847  0.1186 -0.3295 -0.6498
   75MOL   O34628614   0.545   5.434   3.878 -0.5309 -0.5616 -0.8440
   75MOL   C34728615   0.466   5.663   3.824 -0.0236  0.2077 -0.0561
   75MOL   O34828616   0.352   5.732   3.773  0.7529 -0.0231 -0.2180
   75MOL   C34928617   0.371   5.857   3.721 -0.5138 -0.0220  0.4332
   75MOL   C35028618   0.474   5.942   3.765  0.4572 -0.4926  0.1383
   75MOL   C35128619   0.491   6.064   3.694 -0.6789 -0.2012 -0.1577
   75MOL   C35228620   0.404   6.106   3.591  0.3329 -0.0759 -0.4078
   75MOL   C35328621   0.291   6.030   3.561  0.1336  0.3973 -0.4272
   75MOL   C35428622   0.276   5.903   3.619 -0.1904 -0.4554  0.1230
   75MOL   H35528623   0.409   5.338   3.997  0.2901 -0.5619  2.0043
   75MOL   H35628624   0.353   5.480   3.780  0.3690  1.0150 -1.7036
   75MOL   H35728625   0.528   5.670   3.735  0.2302 -0.3728  0.0733
   75MOL   H35828626   0.521   5.709   3.906 -0.4684 -0.1564  0.4480
   75MOL   H35928627   0.553   5.910   3.831  1.0546 -1.5211 -1.0429
   75MOL   H36028628   0.578   6.125   3.716 -1.9666  0.9815  1.7202
   75MOL   H36128629   0.417   6.193   3.529 -4.3195  0.6801 -0.5386
   75MOL   H36228630   0.224   6.062   3.483 -0.3232 -0.7168 -0.5010
   75MOL   C36328631   0.170   5.811   3.572  0.3487 -0.6819  1.0036
   75MOL   C36428632   0.043   5.788   3.642  0.4592 -0.5948 -0.0753
   75MOL   O36528633   0.052   5.892   3.548 -0.8270  0.7106  0.0249
   75MOL   C36628634   0.015   5.831   3.784  0.5751  0.0698 -0.4416
   75MOL   O36728635   8.044   5.827   3.820 -0.4701 -0.2352  0.5134
   75MOL   C36828636   7.957   5.919   3.766 -0.1544 -0.6839 -0.0103
   75MOL   C36928637   7.818   5.878   3.772 -0.1766  0.3588 -0.6194
   75MOL   C37028638   7.726   5.966   3.720  0.4809 -0.5997 -0.4424
   75MOL   C37128639   7.766   6.093   3.675  1.1536 -0.6079 -0.1426
   75MOL   C37228640   7.897   6.133   3.668 -0.5537  0.0801 -0.6687
   75MOL   C37328641   7.996   6.039   3.703  0.5776 -0.2702  0.0594
   75MOL   H37428642   0.194   5.741   3.493  0.2299  1.8365 -1.3465
   75MOL   H37528643   8.152   5.704   3.609 -0.9654  0.2500  0.3311
   75MOL   H37628644   0.070   5.921   3.814  0.8218  0.1621 -1.1626
   75MOL   H37728645   0.043   5.751   3.852  1.1937  1.0699  0.5118
   75MOL   H37828646   7.787   5.781   3.810 -2.7402  1.5568  0.5185
   75MOL   H37928647   7.621   5.944   3.708  0.1638  1.3400 -1.4597
   75MOL   H38028648   7.690   6.167   3.652 -1.0188 -3.2390 -1.6287
   75MOL   H38128649   7.918   6.231   3.627 -2.2811  0.9255  0.3820
   75MOL   H38228650   8.096   6.080   3.701  1.8120 -3.1860 -0.2570
   76MOL     C128651   0.507   5.461   7.230  0.4425 -1.0007 -0.0753
   76MOL     C228652   0.502   5.420   7.373  0.1927  0.1868 -0.0277
   76MOL     O328653   0.381   5.467   7.306  0.2084  0.2838 -0.3519
   76MOL     C428654   0.561   5.489   7.491 -0.3037  0.0347 -0.6851
   76MOL     O528655   0.588   5.625   7.469  0.2646  0.7419  0.4092
   76MOL     C628656   0.586   5.705   7.582 -0.2622  0.2859  0.3275
   76MOL     C728657   0.664   5.677   7.697 -0.4860  0.1652 -0.7252
   76MOL     C828658   0.650   5.753   7.810  0.2833 -0.7466 -0.8647
   76MOL     C928659   0.592   5.877   7.802 -0.0393 -0.3302 -0.5616
   76MOL    C1028660   0.519   5.908   7.687  0.4579 -0.0169 -0.1388
   76MOL    C1128661   0.513   5.820   7.574  0.1765  0.1631 -0.4584
   76MOL    H1228662   0.536   5.378   7.167 -3.8437 -1.7012 -1.3140
   76MOL    H1328663   0.506   5.312   7.378 -1.8498  0.0585 -0.6803
   76MOL    H1428664   0.654   5.441   7.522 -2.1916 -3.4008 -0.0716
   76MOL    H1528665   0.485   5.464   7.566 -0.7235  2.1419 -0.3670
   76MOL    H1628666   0.720   5.586   7.696 -1.1151 -0.2290 -0.2778
   76MOL    H1728667   0.705   5.718   7.896 -1.7684 -0.1967  0.7039
   76MOL    H1828668   0.596   5.941   7.889  0.9435 -1.2468  0.0845
   76MOL    H1928669   0.448   5.990   7.682  2.5328  1.8734  0.4464
   76MOL    H2028670   0.537   5.564   7.209 -0.8736 -0.7879 -1.0191
   76MOL    C2128671   0.432   5.842   7.448  0.8802 -0.0523  0.2500
   76MOL    C2228672   0.301   5.764   7.433 -0.1019 -0.6605 -0.5667
   76MOL    O2328673   0.311   5.905   7.471  0.3786  0.0215  0.1771
   76MOL    C2428674   0.241   5.679   7.537  0.5314 -0.5970 -0.0791
   76MOL    O2528675   0.097   5.683   7.542 -0.1751 -0.3087 -0.2825
   76MOL    C2628676   0.019   5.616   7.453 -0.0586 -0.5842 -0.2716
   76MOL    C2728677   0.070   5.521   7.362 -0.8240 -0.1928 -0.0225
   76MOL    C2828678   8.149   5.459   7.271 -0.3498  0.1320 -0.1886
   76MOL    C2928679   8.008   5.483   7.281  0.4912  0.3733 -0.0095
   76MOL    C3028680   7.969   5.590   7.369 -0.3906 -0.1307 -0.0550
   76MOL    C3128681   8.055   5.661   7.453  0.3050  0.3064  0.0579
   76MOL    H3228682   0.490   5.885   7.367 -0.1435 -0.5033 -0.7184
   76MOL    H3328683   0.274   5.743   7.329  0.4986 -1.9211 -0.4834
   76MOL    H3428684   0.280   5.697   7.638  0.8605 -3.7879  0.4110
   76MOL    H3528685   0.272   5.577   7.517  1.1016 -0.4360 -0.0348
   76MOL    H3628686   0.170   5.481   7.368 -0.8555 -0.0241  2.0713
   76MOL    H3728687   0.005   5.378   7.205  0.1706  0.9717 -1.0305
   76MOL    H3828688   7.941   5.438   7.209  1.9553  1.0492 -1.8577
   76MOL    H3928689   7.866   5.621   7.381  0.1920  1.8955 -0.0686
   76MOL    C4028690   8.000   5.762   7.553  0.0590 -0.5238 -0.1221
   76MOL    C4128691   8.036   5.908   7.546  0.6677  0.2943 -0.4398
   76MOL    O4228692   7.916   5.858   7.494  0.0413  0.0477  0.0816
   76MOL    C4328693   8.121   5.980   7.446  0.4775  0.5876 -0.6436
   76MOL    O4428694   8.056   6.105   7.412 -0.2238  0.1745  0.2796
   76MOL    C4528695   8.130   6.212   7.362 -0.9603  0.5908 -0.9356
   76MOL    C4628696   0.100   6.203   7.329  0.2259 -0.6622 -0.9612
   76MOL    C4728697   0.160   6.318   7.275  0.2289  0.1226  0.1889
   76MOL    C4828698   0.094   6.439   7.262  1.1411 -0.3892 -0.4782
   76MOL    C4928699   8.130   6.445   7.300 -0.2332 -0.6639 -0.6756
   76MOL    C5028700   8.061   6.334   7.350  0.4965  0.0566  0.5120
   76MOL    H5128701   7.959   5.716   7.643 -1.3901 -1.3636 -1.1851
   76MOL    H5228702   8.025   5.955   7.644 -3.1422  0.7377 -1.0177
   76MOL    H5328703   8.153   5.917   7.363 -3.2307 -2.3583  0.0378
   76MOL    H5428704   0.050   6.002   7.488  0.3087  1.2668 -0.5906
   76MOL    H5528705   0.155   6.111   7.338  0.6118 -0.3791 -0.3932
   76MOL    H5628706   0.265   6.308   7.255  0.2653 -2.1479  1.3839
   76MOL    H5728707   0.160   6.524   7.246 -0.6006  1.2882  0.9592
   76MOL    H5828708   8.079   6.540   7.300  0.2621 -0.3937  1.0194
   76MOL    C5928709   7.917   6.347   7.391  0.6669  0.1252  0.4158
   76MOL    C6028710   7.857   6.334   7.525 -0.6347 -0.4712 -0.3748
   76MOL    O6128711   7.880   6.464   7.466  0.1928 -0.3588  0.0210
   76MOL    C6228712   7.938   6.303   7.651 -0.0258  0.3252  0.5215
   76MOL    O6328713   7.867   6.315   7.776  0.1091 -0.3136 -0.4260
   76MOL    C6428714   7.853   6.445   7.828  0.6247  0.6522  0.2306
   76MOL    C6528715   7.918   6.559   7.770  0.4072  0.0215 -0.5876
   76MOL    C6628716   7.900   6.682   7.827  0.0171  0.2069  0.0421
   76MOL    C6728717   7.833   6.693   7.950 -0.1675  0.8561  0.0299
   76MOL    C6828718   7.767   6.580   8.007 -0.1628 -0.1127 -1.2001
   76MOL    C6928719   7.779   6.452   7.943  0.2749 -0.5737 -0.1430
   76MOL    H7028720   7.856   6.330   7.302 -1.1127  1.4517  1.3546
   76MOL    H7128721   7.754   6.299   7.532 -0.7527 -0.1861 -0.7060
   76MOL    H7228722   8.029   6.363   7.652 -0.6797  1.3454  0.1149
   76MOL    H7328723   7.955   6.196   7.648  0.3122  0.3614  1.2368
   76MOL    H7428724   7.985   6.561   7.686 -0.4672  1.0193 -1.2897
   76MOL    H7528725   7.951   6.766   7.781  1.4739 -1.6723 -1.8676
   76MOL    H7628726   7.815   6.789   7.995  3.3822  0.8952  1.5330
   76MOL    H7728727   7.705   6.585   8.096  1.9598  1.0657  0.2499
   76MOL    C7828728   7.700   6.325   7.980 -0.8807 -0.2387 -0.4140
   76MOL    C7928729   7.745   6.232   8.089 -0.6362 -0.1642 -0.7456
   76MOL    O8028730   7.642   6.331   8.116 -0.0133  0.4197 -0.3575
   76MOL    C8128731   7.874   6.258   0.007 -0.1575  0.0580  0.8127
   76MOL    O8228732   7.866   6.160   0.113  0.1832  0.1616 -0.1530
   76MOL    C8328733   7.930   6.193   0.230  0.5835  0.0259 -0.3197
   76MOL    C8428734   8.057   6.268   0.236  0.2306 -0.5312 -0.5929
   76MOL    C8528735   8.128   6.287   0.353 -0.2386 -0.0910 -0.1594
   76MOL    C8628736   8.080   6.244   0.475 -0.0190  0.0360 -0.0964
   76MOL    C8728737   7.956   6.167   0.470  0.3453 -0.1264 -0.5524
   76MOL    C8828738   7.886   6.140   0.350 -0.1847  0.1740  0.2659
   76MOL    H8928739   7.641   6.291   7.895  0.0398  0.0538 -1.1753
   76MOL    H9028740   7.715   6.127   8.096 -0.3752 -0.2201 -0.4548
   76MOL    H9128741   7.876   6.366   0.024 -0.3543  0.1483  0.2962
   76MOL    H9228742   7.960   6.234   8.114 -0.5954 -0.7237  0.5102
   76MOL    H9328743   8.103   6.302   0.144  1.5852 -0.1176  0.2226
   76MOL    H9428744   0.051   6.344   0.354  0.7541 -1.6969  2.3177
   76MOL    H9528745   8.125   6.255   0.573 -0.2546 -2.0781  0.2921
   76MOL    H9628746   7.918   6.123   0.561  1.0900  0.2398 -0.0589
   76MOL    C9728747   7.768   6.049   0.340  0.0587 -0.6239 -0.5610
   76MOL    C9828748   7.762   5.915   0.407 -0.2412 -0.1370 -0.0100
   76MOL    O9928749   7.694   6.034   0.464 -0.5129 -0.2146 -0.0957
   76MOL   C10028750   7.872   5.845   0.484 -0.8368 -0.3132 -0.6159
   76MOL   O10128751   7.794   5.757   0.560  0.4109  0.2397  0.1640
   76MOL   C10228752   7.770   5.626   0.519  0.3602  0.4815 -0.2563
   76MOL   C10328753   7.807   5.572   0.393  0.1369 -0.3132 -0.0917
   76MOL   C10428754   7.785   5.441   0.358 -0.1438  0.0237 -0.2548
   76MOL   C10528755   7.729   5.349   0.445  0.0549  0.6777  0.1625
   76MOL   C10628756   7.689   5.397   0.570 -0.3786  0.6585 -0.7233
   76MOL   C10728757   7.702   5.535   0.601  1.2840 -0.4372  0.3391
   76MOL   H10828758   7.711   6.062   0.248 -0.6983  2.8831  0.3084
   76MOL   H10928759   7.689   5.847   0.364 -2.2618  0.4625  2.3565
   76MOL   H11028760   7.914   5.909   0.560  0.8560 -3.1769  0.9590
   76MOL   H11128761   7.953   5.804   0.424 -0.6961 -0.7100 -0.1601
   76MOL   H11228762   7.860   5.635   0.323  0.4235  0.0570  0.4581
   76MOL   H11328763   7.834   5.408   0.267  0.6362 -0.0638  0.1905
   76MOL   H11428764   7.720   5.246   0.414  0.0087  0.7007  0.1002
   76MOL   H11528765   7.649   5.331   0.645  1.3985 -2.6025 -2.5295
   76MOL   C11628766   7.647   5.585   0.729  0.1551 -0.2097  0.6033
   76MOL   C11728767   7.540   5.690   0.745 -0.2309  0.1831  0.6541
   76MOL   O11828768   7.506   5.551   0.745 -0.3186  0.0442 -0.1927
   76MOL   C11928769   7.486   5.779   0.628  0.4275 -0.5687  0.7845
   76MOL   O12028770   7.353   5.830   0.645  0.3919 -0.6221  0.4494
   76MOL   C12128771   7.329   5.937   0.724 -0.7722 -0.3951  0.4280
   76MOL   C12228772   7.431   6.001   0.801 -0.7661  0.7578 -0.3425
   76MOL   C12328773   7.412   6.111   0.880  0.2159  0.2246 -0.1421
   76MOL   C12428774   7.282   6.166   0.888 -0.0964  0.1647  0.2414
   76MOL   C12528775   7.179   6.116   0.806  0.1196 -0.0584  0.8668
   76MOL   C12628776   7.199   6.001   0.728 -0.6527  0.6782 -0.6249
   76MOL   H12728777   7.714   5.577   0.814  1.4085  0.2668 -0.3394
   76MOL   H12828778   7.542   5.745   0.839 -0.7891  2.2838 -0.5390
   76MOL   H12928779   7.492   5.718   0.537  3.3431  0.6251  0.1256
   76MOL   H13028780   7.558   5.859   0.608  0.6984 -0.9099  0.3785
   76MOL   H13128781   7.532   5.964   0.792 -0.3203  1.9908 -0.3895
   76MOL   H13228782   7.486   6.149   0.948 -0.3641  0.5083  0.3280
   76MOL   H13328783   7.269   6.259   0.940 -1.4009  0.6662 -0.9675
   76MOL   H13428784   7.079   6.152   0.825  0.4154  0.6251  1.1242
   76MOL   C13528785   7.086   5.929   0.651 -0.0129 -0.1212 -0.7193
   76MOL   C13628786   7.016   5.800   0.695 -0.1157  0.1290 -0.2010
   76MOL   O13728787   6.961   5.931   0.729 -0.3071 -0.2445 -0.0175
   76MOL   C13828788   7.059   5.707   0.806  0.1176 -0.7472 -0.3101
   76MOL   O13928789   6.977   5.667   0.906  0.3998  0.0963 -0.1677
   76MOL   C14028790   6.873   5.588   0.876  0.0084 -0.2573 -0.4184
   76MOL   C14128791   6.867   5.503   0.767 -0.3079 -0.2858  0.1655
   76MOL   C14228792   6.757   5.419   0.751 -0.5103 -1.1645  0.6051
   76MOL   C14328793   6.647   5.426   0.836  0.1414 -0.5086 -0.7741
   76MOL   C14428794   6.643   5.519   0.940  0.4211 -0.0711  0.3049
   76MOL   C14528795   6.765   5.592   0.967  0.1708 -0.7380 -0.1416
   76MOL   H14628796   7.074   5.955   0.546 -2.8126  2.2143  0.0929
   76MOL   H14728797   6.971   5.754   0.607 -0.2533  0.4780 -0.3152
   76MOL   H14828798   7.130   5.766   0.864 -2.5567  0.9638  1.3876
   76MOL   H14928799   7.122   5.625   0.774  0.7554 -0.4333  0.1447
   76MOL   H15028800   6.946   5.507   0.694 -0.6462 -1.2534 -0.2613
   76MOL   H15128801   6.752   5.358   0.662  0.3842 -0.4076  0.0312
   76MOL   H15228802   6.553   5.374   0.823 -1.9861  2.7995  0.6433
   76MOL   H15328803   6.557   5.531   1.003  1.0250 -1.3824  1.4161
   76MOL   C15428804   6.774   5.670   1.092  0.8527  0.7838 -0.3326
   76MOL   C15528805   6.752   5.818   1.105 -0.0227 -0.2510 -0.1619
   76MOL   O15628806   6.645   5.727   1.134  0.4616 -0.0469  0.5595
   76MOL   C15728807   6.736   5.898   0.979 -0.2343  0.0894 -0.2500
   76MOL   O15828808   6.682   6.025   0.998  0.4630  0.2137 -0.2351
   76MOL   C15928809   6.756   6.126   1.059  0.0314 -0.0250  0.0225
   76MOL   C16028810   6.897   6.127   1.058 -0.0840  0.1102 -0.5116
   76MOL   C16128811   6.975   6.227   1.122  0.2308  0.3025 -0.6472
   76MOL   C16228812   6.909   6.337   1.187  0.5241  0.0099 -0.3285
   76MOL   C16328813   6.766   6.329   1.187 -0.6703  1.0626 -0.0434
   76MOL   C16428814   6.689   6.227   1.128  0.5856 -0.3859 -0.7092
   76MOL   H16528815   6.824   5.621   1.175  0.9656 -0.4030 -1.0782
   76MOL   H16628816   6.771   5.883   1.190 -0.6966  1.4948 -1.3323
   76MOL   H16728817   6.674   5.841   0.910  1.1699 -1.7177 -0.0677
   76MOL   H16828818   6.835   5.897   0.932 -0.1646  0.6591 -0.1108
   76MOL   H16928819   6.964   6.053   1.016 -0.2493 -0.1454 -0.3250
   76MOL   H17028820   7.080   6.217   1.103  0.2427 -2.7754  0.7352
   76MOL   H17128821   6.962   6.409   1.248 -1.0445  1.4827 -0.6874
   76MOL   H17228822   6.716   6.402   1.249 -0.1759 -1.4304  3.4108
   76MOL   C17328823   6.536   6.228   1.120 -0.7729  0.0308  0.3325
   76MOL   C17428824   6.461   6.160   1.221 -0.4953  0.3960 -0.2557
   76MOL   O17528825   6.479   6.302   1.230 -0.1333 -0.0501 -0.1168
   76MOL   C17628826   6.517   6.062   1.334 -0.3063 -0.3816 -0.8359
   76MOL   O17728827   6.437   6.049   1.450  0.3726  0.2355 -0.4029
   76MOL   C17828828   6.318   5.986   1.438  0.2583  0.4729  0.1526
   76MOL   C17928829   6.281   5.899   1.326  0.7817 -0.3370  0.1319
   76MOL   C18028830   6.168   5.815   1.333 -0.8442  0.0319 -0.4081
   76MOL   C18128831   6.086   5.836   1.444  0.8050 -0.5919 -0.0367
   76MOL   C18228832   6.125   5.913   1.551  0.4547  0.2424  0.2007
   76MOL   C18328833   6.235   5.992   1.548 -0.0500  0.2884  0.2069
   76MOL   H18428834   6.490   6.225   1.021 -0.7167  0.2776  0.2983
   76MOL   H18528835   6.361   6.127   1.194  0.8459 -5.1147  0.7476
   76MOL   H18628836   6.612   6.105   1.366 -0.7933  0.5428 -0.6297
   76MOL   H18728837   6.548   5.968   1.289  0.7966 -1.2099  1.5407
   76MOL   H18828838   6.343   5.887   1.238  0.3621  1.1772 -0.3954
   76MOL   H18928839   6.155   5.742   1.254  1.6289 -1.2823  0.3280
   76MOL   H19028840   6.002   5.768   1.456  0.4913  0.0365  1.4185
   76MOL   H19128841   6.069   5.910   1.643  0.6402  0.3185  0.3172
   76MOL   C19228842   6.266   6.077   1.668  0.1897 -0.1887 -0.6208
   76MOL   C19328843   6.290   6.226   1.662  0.2152 -0.0744 -0.1606
   76MOL   O19428844   6.163   6.168   1.705  0.1843 -0.2988 -0.4617
   76MOL   C19528845   6.287   6.307   1.536  0.1873 -0.3942  0.0571
   76MOL   O19628846   6.286   6.450   1.564 -0.1768  0.0002  0.4437
   76MOL   C19728847   6.175   6.513   1.612 -0.3536  0.1237  0.4085
   76MOL   C19828848   6.044   6.461   1.594  0.2784  0.3445 -0.4304
   76MOL   C19928849   5.936   6.546   1.611  0.0236  0.2957  0.2249
   76MOL   C20028850   5.948   6.671   1.674  0.3634  0.6311  0.1983
   76MOL   C20128851   6.076   6.717   1.706 -0.5394  0.3867  0.0210
   76MOL   C20228852   6.191   6.641   1.669 -0.0196 -0.2224 -0.1036
   76MOL   H20328853   6.307   6.020   1.752  0.4702  1.5997  0.4781
   76MOL   H20428854   6.349   6.277   1.738  1.7215 -1.1284 -0.5871
   76MOL   H20528855   6.206   6.282   1.469 -0.2069  1.6836 -0.2848
   76MOL   H20628856   6.378   6.277   1.485  0.1679 -2.5808  1.2493
   76MOL   H20728857   6.024   6.366   1.546  0.7777  0.0158  0.0007
   76MOL   H20828858   5.837   6.517   1.577  0.7012 -0.9593 -0.7470
   76MOL   H20928859   5.855   6.725   1.685 -0.3603 -0.6708  0.6657
   76MOL   H21028860   6.085   6.814   1.753 -0.2876  0.2504  0.2533
   76MOL   C21128861   6.330   6.693   1.712 -0.7197  0.0938  0.3066
   76MOL   C21228862   6.398   6.802   1.627 -0.0889 -0.0472 -0.3871
   76MOL   O21328863   6.340   6.822   1.761  0.1070  0.6780 -0.3545
   76MOL   C21428864   6.329   6.881   1.521 -0.0982 -0.4220 -0.8929
   76MOL   O21528865   6.401   7.006   1.494  0.1619 -0.1026  0.0355
   76MOL   C21628866   6.504   7.003   1.397  0.2502  0.2014  0.0207
   76MOL   C21728867   6.523   6.899   1.306 -0.1459 -0.1071 -0.3545
   76MOL   C21828868   6.641   6.906   1.220 -0.4306 -0.3280  0.3763
   76MOL   C21928869   6.719   7.024   1.215  0.0215  0.2734 -0.2841
   76MOL   C22028870   6.682   7.132   1.301 -1.0503  1.0006  0.2238
   76MOL   C22128871   6.582   7.120   1.396  0.2312  0.3234  0.3112
   76MOL   H22228872   6.388   6.616   1.762  3.0588  2.4168 -0.2677
   76MOL   H22328873   6.507   6.801   1.629 -0.0861 -1.4573 -0.8946
   76MOL   H22428874   6.236   6.913   1.568  0.6717  2.7387 -1.3562
   76MOL   H22528875   6.313   6.818   1.433  1.8092 -2.8574  0.4441
   76MOL   H22628876   6.468   6.806   1.303 -0.3037 -0.0840  1.0610
   76MOL   H22728877   6.656   6.819   1.158 -0.3602  0.4652 -0.7341
   76MOL   H22828878   6.799   7.035   1.143  1.3635 -0.6583  1.0274
   76MOL   H22928879   6.733   7.227   1.300 -0.0891  0.5074 -1.6013
   76MOL   C23028880   6.563   7.233   1.495  0.4790 -0.4116  0.4710
   76MOL   C23128881   6.596   7.229   1.635 -0.0765 -0.2810 -0.3186
   76MOL   O23228882   6.687   7.293   1.543 -0.0863 -0.1560  0.6860
   76MOL   C23328883   6.656   7.107   1.712 -0.1884 -0.0619  0.1739
   76MOL   O23428884   6.664   7.150   1.844 -0.2881 -0.6570 -0.3318
   76MOL   C23528885   6.748   7.255   1.890  0.6403 -0.2006  0.4858
   76MOL   C23628886   6.855   7.299   1.811  0.3512  0.0683 -0.7615
   76MOL   C23728887   6.935   7.401   1.861 -0.4566 -0.4644 -0.0218
   76MOL   C23828888   6.911   7.456   1.991  0.3468  0.2658 -0.3804
   76MOL   C23928889   6.804   7.413   2.069  0.1028  0.6087  0.1244
   76MOL   C24028890   6.721   7.311   2.015  0.4327 -0.8781 -0.0859
   76MOL   H24128891   6.492   7.307   1.458  0.8364  1.0475  2.6154
   76MOL   H24228892   6.541   7.298   1.698 -0.4208  1.5830 -2.5980
   76MOL   H24328893   6.752   7.077   1.669 -0.5573  0.4064 -1.0009
   76MOL   H24428894   6.589   7.022   1.704 -1.1835  0.6431  0.9212
   76MOL   H24528895   6.870   7.261   1.711 -1.6723  1.5240 -1.6518
   76MOL   H24628896   7.022   7.433   1.804 -1.4052  3.3125  0.5101
   76MOL   H24728897   6.972   7.539   2.024  0.2343  0.3483 -0.3782
   76MOL   H24828898   6.769   7.452   2.164 -2.6631 -0.4904 -0.3905
   76MOL   C24928899   6.595   7.266   2.094 -0.8373  0.1902 -0.3505
   76MOL   C25028900   6.569   7.132   2.155 -0.8565  0.2839 -1.1262
   76MOL   O25128901   6.617   7.244   2.237  0.0750 -0.0439 -0.1199
   76MOL   C25228902   6.663   7.019   2.143  0.0302 -0.8631  0.3622
   76MOL   O25328903   6.603   6.915   2.212 -0.4649 -0.3902 -0.4319
   76MOL   C25428904   6.669   6.793   2.217  0.4399 -0.6767 -0.2607
   76MOL   C25528905   6.805   6.779   2.173  0.3094  0.4769 -0.1907
   76MOL   C25628906   6.867   6.658   2.181  0.0180  0.2192  0.2758
   76MOL   C25728907   6.800   6.536   2.214 -0.4026 -0.0109  0.3021
   76MOL   C25828908   6.667   6.551   2.259 -0.5459  0.2108  0.7092
   76MOL   C25928909   6.596   6.678   2.256 -0.7065  0.5428  0.6047
   76MOL   H26028910   6.505   7.321   2.068 -1.3272 -0.4168  0.0270
   76MOL   H26128911   6.464   7.104   2.164 -0.3245 -1.5987 -0.6114
   76MOL   H26228912   6.755   7.050   2.192 -1.6316  0.4244  2.7463
   76MOL   H26328913   6.684   6.993   2.040 -2.2743 -2.1283  0.1730
   76MOL   H26428914   6.863   6.863   2.139 -1.5274  1.2168 -1.6406
   76MOL   H26528915   6.966   6.666   2.137  0.3098 -1.8715  0.4859
   76MOL   H26628916   6.852   6.443   2.234 -1.3615 -0.6932 -0.3160
   76MOL   H26728917   6.618   6.465   2.303 -0.5786 -1.0871 -1.7699
   76MOL   C26828918   6.451   6.697   2.308 -0.9532 -0.1002 -0.2380
   76MOL   C26928919   6.340   6.740   2.228 -0.1764  0.1081 -0.1180
   76MOL   O27028920   6.373   6.595   2.239  0.6112 -0.2960 -0.0032
   76MOL   C27128921   6.344   6.780   2.079 -0.3497  0.2325  0.5681
   76MOL   O27228922   6.290   6.915   2.060 -0.0972  0.1356 -0.1711
   76MOL   C27328923   6.153   6.925   2.055  0.7442  0.2702 -0.1657
   76MOL   C27428924   6.056   6.818   2.060 -0.0706 -0.0925  0.3059
   76MOL   C27528925   5.922   6.842   2.038 -0.1958  0.0496 -0.3949
   76MOL   C27628926   5.876   6.974   2.034 -0.2868 -1.0161 -0.1655
   76MOL   C27728927   5.965   7.085   2.035  0.3926 -0.3390  0.6523
   76MOL   C27828928   6.101   7.054   2.048 -0.2964 -0.4230 -0.0542
   76MOL   H27928929   6.442   6.691   2.416 -1.9521 -0.2650 -0.3260
   76MOL   H28028930   6.240   6.751   2.270 -1.2966  2.1555 -3.1300
   76MOL   H28128931   6.284   6.728   2.005  2.2199  0.7727 -1.9540
   76MOL   H28228932   6.447   6.764   2.047 -0.2316 -1.7241  1.8262
   76MOL   H28328933   6.083   6.715   2.076  1.6283  0.5907  2.0461
   76MOL   H28428934   5.853   6.759   2.038 -0.8644  0.5972 -0.0736
   76MOL   H28528935   5.768   6.978   2.033 -0.3024 -1.5401 -1.4494
   76MOL   H28628936   5.919   7.183   2.033 -1.4317 -1.1746 -2.1526
   76MOL   C28728937   6.199   7.167   2.032  0.3935  0.4755  0.2014
   76MOL   C28828938   6.259   7.207   1.900  0.3712 -0.8920  0.5824
   76MOL   O28928939   6.142   7.269   1.955  0.0667 -0.1869 -0.0583
   76MOL   C29028940   6.243   7.123   1.773 -1.3167  0.4863 -0.0467
   76MOL   O29128941   6.192   7.201   1.664  0.1051  0.8246  0.7604
   76MOL   C29228942   6.054   7.239   1.664 -0.0981  0.2070  1.1536
   76MOL   C29328943   5.941   7.176   1.734  0.0096  0.2666 -0.1558
   76MOL   C29428944   5.807   7.210   1.705 -0.4045 -0.3310 -0.0276
   76MOL   C29528945   5.792   7.327   1.626 -1.1659  0.0155  0.7774
   76MOL   C29628946   5.897   7.394   1.564  0.5787  0.5836 -0.6463
   76MOL   C29728947   6.031   7.345   1.573  0.8037 -0.2345 -0.0526
   76MOL   H29828948   6.242   7.204   2.126  0.6301  2.7896 -0.7802
   76MOL   H29928949   6.349   7.268   1.902 -0.8514  0.9973 -0.6941
   76MOL   H30028950   6.175   7.040   1.791  1.0256 -0.8325  3.2315
   76MOL   H30128951   6.343   7.093   1.741 -2.4777 -1.1350 -2.3156
   76MOL   H30228952   5.956   7.086   1.791 -1.4909  0.3128  0.3497
   76MOL   H30328953   5.717   7.170   1.748 -0.0974 -1.5054 -0.4744
   76MOL   H30428954   5.695   7.373   1.610 -0.4839  1.1902 -0.0408
   76MOL   H30528955   5.892   7.490   1.514  1.4847  0.0660 -1.7330
   76MOL   C30628956   6.146   7.415   1.494 -1.0540  0.1530 -0.1356
   76MOL   C30728957   6.134   7.476   1.350 -0.3063  0.3204  0.4168
   76MOL   O30828958   6.127   7.554   1.468 -1.1190 -0.3504  0.7403
   76MOL   C30928959   6.006   7.474   1.261 -1.1761 -0.4275 -0.1391
   76MOL   O31028960   6.039   7.521   1.130 -0.3618 -0.6377 -0.8618
   76MOL   C31128961   6.070   7.652   1.118 -0.5635 -0.2206 -0.5444
   76MOL   C31228962   6.040   7.752   1.215 -0.6304 -0.0608  0.4866
   76MOL   C31328963   6.089   7.878   1.199 -0.1619  0.1837 -0.3703
   76MOL   C31428964   6.168   7.908   1.082  0.5416  0.1493 -0.4716
   76MOL   C31528965   6.185   7.817   0.979 -0.0962 -0.1800 -0.2936
   76MOL   C31628966   6.140   7.689   1.004  0.1848  0.0096 -0.4396
   76MOL   H31728967   6.242   7.392   1.540 -0.3495  2.5415 -0.3350
   76MOL   H31828968   6.233   7.487   1.305 -1.7567 -1.5118 -3.5036
   76MOL   H31928969   5.925   7.527   1.311 -0.2517  0.1618  0.7545
   76MOL   H32028970   5.978   7.369   1.257  1.7287 -1.2249 -0.8988
   76MOL   H32128971   5.981   7.738   1.304 -2.3970  0.1271 -0.6324
   76MOL   H32228972   6.077   7.942   1.286 -0.8692  1.9650 -1.7495
   76MOL   H32328973   6.209   8.007   1.070  1.3191  0.0386  1.2106
   76MOL   H32428974   6.234   7.847   0.887 -0.5493  0.6082 -0.2812
   76MOL   C32528975   6.162   7.580   0.901 -0.1348 -0.5508  0.9077
   76MOL   C32628976   6.065   7.527   0.796  0.3505  0.3347  0.4047
   76MOL   O32728977   6.161   7.632   0.765  0.8024  0.3850 -0.4873
   76MOL   C32828978   5.915   7.567   0.790 -0.6671 -0.1073  1.0334
   76MOL   O32928979   5.879   7.607   0.658 -0.0208  0.4145  0.3032
   76MOL   C33028980   5.876   7.507   0.557  0.4136 -0.4163 -0.2367
   76MOL   C33128981   5.888   7.371   0.582  0.0050  0.4820  0.0678
   76MOL   C33228982   5.894   7.271   0.476  0.0720 -0.2824  0.2230
   76MOL   C33328983   5.894   7.323   0.349  0.0510  0.9556 -0.7899
   76MOL   C33428984   5.873   7.459   0.314  0.2571  0.5235  0.4658
   76MOL   C33528985   5.865   7.551   0.421  0.1646 -0.3911  0.3008
   76MOL   H33628986   6.255   7.528   0.925  0.3373  0.0310  0.3408
   76MOL   H33728987   6.091   7.432   0.751 -1.0113 -0.2429  0.8026
   76MOL   H33828988   5.898   7.657   0.849 -1.1134  1.5427 -1.5225
   76MOL   H33928989   5.850   7.492   0.834 -0.4096 -0.8898  0.1102
   76MOL   H34028990   5.902   7.329   0.680  0.5197  1.1132  0.2687
   76MOL   H34128991   5.915   7.166   0.489  1.1900  0.0502  1.1939
   76MOL   H34228992   5.887   7.250   0.270 -0.7432  0.7033 -0.4943
   76MOL   H34328993   5.862   7.484   0.210  0.2955  1.4246  0.6797
   76MOL   C34428994   5.839   7.696   0.399 -0.2836 -0.5015  0.8118
   76MOL   C34528995   5.941   7.792   0.330 -0.5055 -0.3601  0.4733
   76MOL   O34628996   5.838   7.729   0.258  0.2866  0.6677  0.1630
   76MOL   C34728997   6.079   7.743   0.315 -0.1164  0.3921  0.4128
   76MOL   O34828998   6.173   7.845   0.294  0.2126 -0.3692 -0.4433
   76MOL   C34928999   6.168   7.912   0.168 -0.5720 -0.1604  0.9223
   76MOL   C35029000   6.076   7.882   0.063  0.4242  0.6615 -0.6641
   76MOL   C35129001   6.082   7.967   8.121 -0.7354  0.2185  0.0201
   76MOL   C35229002   6.178   8.069   8.106  0.1432  0.1317 -0.2056
   76MOL   C35329003   6.272   8.086   0.033  0.4597  0.3625  0.4648
   76MOL   C35429004   6.267   8.013   0.151  0.5993 -0.6954  0.1825
   76MOL   H35529005   5.763   7.748   0.457  0.2393  1.8449 -0.5268
   76MOL   H35629006   5.922   7.892   0.368  0.8522 -0.0438  0.3295
   76MOL   H35729007   6.088   7.662   0.244 -0.8273 -0.7450  1.6030
   76MOL   H35829008   6.115   7.692   0.404  3.0644  1.3495 -0.2589
   76MOL   H35929009   5.988   7.822   0.077  1.3511 -0.3525  0.9664
   76MOL   H36029010   6.006   7.950   8.045  1.9415  0.2962 -2.7689
   76MOL   H36129011   6.188   8.136   8.022 -0.2446 -1.7672 -1.7958
   76MOL   H36229012   6.349   8.157   0.010  1.2403 -1.0384 -1.4051
   76MOL   C36329013   6.373   8.022   0.259 -0.8104  0.0235  0.0737
   76MOL   C36429014   6.514   7.980   0.234  0.3326  0.5733 -0.4600
   76MOL   O36529015   6.474   8.116   0.220 -0.0456  0.0636  0.1745
   76MOL   C36629016   6.554   7.912   0.108 -0.3830 -0.7306 -0.5720
   76MOL   O36729017   6.696   7.922   0.085 -0.0773  0.3476 -0.3300
   76MOL   C36829018   6.754   7.827   0.000  0.1535 -0.0068  0.1386
   76MOL   C36929019   6.890   7.827   8.167  0.1208 -0.2867  0.0756
   76MOL   C37029020   6.959   7.738   8.093 -0.1426 -0.2782 -0.4105
   76MOL   C37129021   6.897   7.651   8.005  0.2872 -0.1584  0.8374
   76MOL   C37229022   6.760   7.666   7.992  0.8436  0.3435  0.5987
   76MOL   C37329023   6.686   7.752   8.072 -0.5532 -0.3814 -0.2508
   76MOL   H37429024   6.340   8.033   0.362 -0.4534  2.2319 -0.0136
   76MOL   H37529025   6.573   7.954   0.321 -0.6035 -0.1436 -0.0261
   76MOL   H37629026   6.501   7.947   0.019  0.0449 -2.6702 -1.6001
   76MOL   H37729027   6.533   7.807   0.128 -0.3042 -0.8380 -1.0323
   76MOL   H37829028   6.952   7.899   0.049  0.4416 -0.5020 -0.0040
   76MOL   H37929029   7.067   7.745   8.095 -0.4202  6.0284  0.2284
   76MOL   H38029030   6.944   7.569   7.953 -0.7931  0.6027 -1.4073
   76MOL   H38129031   6.713   7.597   7.924 -1.0415  2.1334  0.0200
   76MOL   H38229032   6.580   7.770   8.059 -0.6688 -1.3036 -0.5515
   77MOL     C129033   0.909   2.185   0.339  0.2802  0.0994  0.0562
   77MOL     C229034   0.912   2.322   0.265 -0.2021  0.5072  0.3522
   77MOL     O329035   0.815   2.289   0.369 -0.2003  0.5266  0.5342
   77MOL     C429036   0.891   2.322   0.115  0.4456  0.3848 -0.1148
   77MOL     O529037   0.884   2.448   0.066 -0.3405 -0.2156 -0.1150
   77MOL     C629038   0.878   2.472   8.102 -0.6882  0.3234 -0.0689
   77MOL     C729039   0.863   2.369   8.001  0.5990 -0.0191  0.0642
   77MOL     C829040   0.845   2.400   7.863  0.3046  0.4973 -0.3631
   77MOL     C929041   0.860   2.530   7.813  0.2129  0.3835 -0.0076
   77MOL    C1029042   0.878   2.628   7.910 -0.3853  0.0006  0.7244
   77MOL    C1129043   0.882   2.609   8.052 -0.2156 -0.1542  0.3633
   77MOL    H1229044   0.981   2.163   0.418  0.3161 -0.2761 -0.0778
   77MOL    H1329045   0.989   2.392   0.295 -1.7140  1.8131  1.2747
   77MOL    H1429046   0.795   2.278   0.090  0.4068  0.5123 -0.1930
   77MOL    H1529047   0.973   2.271   0.065  0.5561  0.5727 -0.1261
   77MOL    H1629048   0.866   2.270   8.044  0.5454  0.4284  1.1107
   77MOL    H1729049   0.823   2.317   7.797 -0.7817  1.1881 -0.8941
   77MOL    H1829050   0.870   2.550   7.707 -0.5387 -0.0617 -0.1618
   77MOL    H1929051   0.883   2.728   7.868 -4.4199 -0.2819 -0.5908
   77MOL    H2029052   0.864   2.106   0.279  0.4183 -0.3452  0.5319
   77MOL    C2129053   0.872   2.729   8.138  0.1205  0.7118  0.0600
   77MOL    C2229054   0.991   2.811   0.021 -0.2096  0.1132  0.1024
   77MOL    O2329055   0.920   2.849   8.073  0.1225  0.0665  0.4991
   77MOL    C2429056   1.137   2.783   0.003 -0.3182  0.1981  0.1844
   77MOL    O2529057   1.218   2.887   0.070 -0.1088 -0.3263  0.0209
   77MOL    C2629058   1.353   2.896   0.045  0.8534 -0.4140 -0.3658
   77MOL    C2729059   1.428   2.782   0.016  0.1633 -0.1599  0.1214
   77MOL    C2829060   1.564   2.801   8.145 -0.4073 -0.3892  0.3416
   77MOL    C2929061   1.626   2.928   8.144 -0.4018 -0.1912  0.3058
   77MOL    C3029062   1.545   3.041   0.001  0.0334  0.5312  0.6847
   77MOL    C3129063   1.411   3.029   0.041 -0.6392 -0.0514  0.9442
   77MOL    H3229064   0.775   2.733   0.017 -0.1406 -1.6757 -0.2189
   77MOL    H3329065   0.961   2.869   0.108 -1.7422 -1.7294  0.8214
   77MOL    H3429066   1.158   2.799   8.067  0.8422  0.4425  0.4413
   77MOL    H3529067   1.159   2.683   0.041  1.2978 -0.1436 -1.5931
   77MOL    H3629068   1.380   2.687   0.030  2.4510 -1.0154  2.5835
   77MOL    H3729069   1.634   2.720   8.134 -0.9164 -0.6948 -0.7298
   77MOL    H3829070   1.734   2.936   8.134 -0.0576 -0.9280  3.1282
   77MOL    H3929071   1.588   3.140   0.008  0.7270  0.3595 -0.8584
   77MOL    C4029072   1.338   3.153   0.082  0.3292 -0.4281  0.2157
   77MOL    C4129073   1.351   3.197   0.225 -0.2702  0.3994  0.5699
   77MOL    O4229074   1.411   3.267   0.115 -0.6887  0.0142  0.2007
   77MOL    C4329075   1.449   3.149   0.328  0.0870 -0.1062 -0.0824
   77MOL    O4429076   1.472   3.227   0.446  0.0977 -0.1633  0.0366
   77MOL    C4529077   1.583   3.306   0.431  0.3435 -0.3221  0.6286
   77MOL    C4629078   1.712   3.256   0.459  0.0606 -0.3678 -0.0419
   77MOL    C4729079   1.826   3.334   0.435 -0.3970 -0.1438 -0.3053
   77MOL    C4829080   1.815   3.467   0.405  0.5198  0.1507  0.3577
   77MOL    C4929081   1.689   3.521   0.384 -0.0564 -0.0098 -0.2318
   77MOL    C5029082   1.572   3.443   0.394 -0.4699 -0.4441  0.3013
   77MOL    H5129083   1.247   3.176   0.027  0.1355 -1.8208 -0.0891
   77MOL    H5229084   1.266   3.252   0.265  0.0605  1.8722 -0.7250
   77MOL    H5329085   1.544   3.132   0.278  0.4243  0.8095  0.2459
   77MOL    H5429086   1.421   3.048   0.360 -3.7181  0.5758 -1.0286
   77MOL    H5529087   1.724   3.151   0.482 -0.2290 -0.6990 -1.3197
   77MOL    H5629088   1.923   3.294   0.461 -0.9272 -0.4764  1.1864
   77MOL    H5729089   1.905   3.525   0.416  0.8728 -0.6052  1.4946
   77MOL    H5829090   1.675   3.627   0.379 -0.1336  0.0762  1.4056
   77MOL    C5929091   1.438   3.506   0.360 -0.0238  0.4728  0.7250
   77MOL    C6029092   1.354   3.585   0.453  0.5513  0.3001  0.3799
   77MOL    O6129093   1.441   3.644   0.357  0.4038  0.4608  0.1078
   77MOL    C6229094   1.392   3.607   0.596 -0.4220 -0.5016 -0.0754
   77MOL    O6329095   1.391   3.489   0.674  0.5186  0.1984 -0.3327
   77MOL    C6429096   1.357   3.499   0.811  0.2152  0.1643  0.3203
   77MOL    C6529097   1.242   3.565   0.856 -0.2657 -0.0607 -0.1121
   77MOL    C6629098   1.217   3.574   0.994 -0.1357 -0.0730  0.5376
   77MOL    C6729099   1.297   3.509   1.086 -0.0285 -0.1146  0.4426
   77MOL    C6829100   1.405   3.434   1.038  0.5283  0.2842 -0.5088
   77MOL    C6929101   1.441   3.439   0.902 -0.4142 -0.2689 -0.5446
   77MOL    H7029102   1.382   3.455   0.282 -4.0840  0.3949  3.5727
   77MOL    H7129103   1.254   3.621   0.429 -0.1510 -1.7529  0.0969
   77MOL    H7229104   1.341   3.693   0.640  2.0500  1.4217 -0.8348
   77MOL    H7329105   1.496   3.639   0.590 -0.1279 -0.6567  3.5207
   77MOL    H7429106   1.173   3.621   0.796 -1.0991 -0.8391  0.1144
   77MOL    H7529107   1.125   3.616   1.033 -0.2415 -0.5992  0.8620
   77MOL    H7629108   1.279   3.499   1.193  2.5977 -2.0064  0.7711
   77MOL    H7729109   1.475   3.398   1.113  0.3700  1.0325  0.0075
   77MOL    C7829110   1.569   3.374   0.852 -0.0331 -0.3878  0.0783
   77MOL    C7929111   1.706   3.433   0.877 -0.4876  0.4770  0.5337
   77MOL    O8029112   1.655   3.325   0.954 -0.3541 -0.0419 -0.6089
   77MOL    C8129113   1.714   3.572   0.929 -0.3908  0.1216  0.5887
   77MOL    O8229114   1.847   3.598   0.973 -0.0148 -0.1327  0.8203
   77MOL    C8329115   1.947   3.595   0.880  0.4259  0.1890 -0.1151
   77MOL    C8429116   1.923   3.614   0.744 -0.0673  0.6052 -0.4067
   77MOL    C8529117   2.035   3.634   0.656 -1.0162 -0.2292 -0.5486
   77MOL    C8629118   2.164   3.609   0.707  0.4764 -0.4281 -0.2073
   77MOL    C8729119   2.186   3.582   0.843  0.2009  0.1057  0.3555
   77MOL    C8829120   2.078   3.585   0.932  0.2821  0.6296 -0.2141
   77MOL    H8929121   1.541   3.291   0.787  0.6258 -0.8298  0.3646
   77MOL    H9029122   1.776   3.403   0.799 -0.0721 -0.2973  1.1925
   77MOL    H9129123   1.652   3.599   1.014  0.4215  2.2513  0.5157
   77MOL    H9229124   1.686   3.644   0.853 -0.8129  0.2495  0.8618
   77MOL    H9329125   1.824   3.628   0.702 -0.0572  1.1191 -0.2711
   77MOL    H9429126   2.022   3.654   0.551  0.4375  2.2019 -0.2940
   77MOL    H9529127   2.241   3.606   0.631  0.6364 -0.0573 -0.0617
   77MOL    H9629128   2.285   3.571   0.885 -0.3851 -1.7159  1.3014
   77MOL    C9729129   2.100   3.568   1.080  0.5840  0.1417  0.2704
   77MOL    C9829130   2.065   3.444   1.158  0.8059 -0.8240 -0.4444
   77MOL    O9929131   2.194   3.459   1.108 -0.4232 -0.3015 -0.3685
   77MOL   C10029132   1.976   3.337   1.094  0.8038 -0.4777  0.3219
   77MOL   O10129133   1.973   3.225   1.181  0.0628 -0.2438 -0.1771
   77MOL   C10229134   2.073   3.134   1.174 -0.0695  0.5877  0.8238
   77MOL   C10329135   2.171   3.141   1.073 -0.1062 -0.2254  0.5408
   77MOL   C10429136   2.278   3.048   1.076  0.3068  0.4434  0.5489
   77MOL   C10529137   2.291   2.954   1.174 -0.0970  0.3165  0.0543
   77MOL   C10629138   2.199   2.957   1.277 -0.0150 -0.1754  0.5338
   77MOL   C10729139   2.083   3.032   1.272  0.2057 -0.0518 -1.4503
   77MOL   H10829140   2.131   3.659   1.131 -1.9823  1.0041  0.3271
   77MOL   H10929141   2.042   3.474   1.260  1.5642 -0.6416 -0.3238
   77MOL   H11029142   2.000   3.324   0.989  1.8361  1.5216  0.2803
   77MOL   H11129143   1.876   3.381   1.090  0.9730 -0.0148  1.0369
   77MOL   H11229144   2.161   3.213   0.993  0.0582  0.2023  0.9026
   77MOL   H11329145   2.353   3.051   0.998 -0.0398  2.3991  0.2760
   77MOL   H11429146   2.379   2.891   1.167 -1.1106 -1.2945  1.4640
   77MOL   H11529147   2.225   2.883   1.351 -0.5711 -0.3242  0.5820
   77MOL   C11629148   1.982   3.030   1.383  0.5368  0.7368  0.2451
   77MOL   C11729149   1.846   2.955   1.375 -0.1879 -0.5785  0.5840
   77MOL   O11829150   1.964   2.895   1.428  0.7378  0.2743  0.7816
   77MOL   C11929151   1.805   2.889   1.245  0.1179  0.1167 -0.2020
   77MOL   O12029152   1.753   2.760   1.258 -0.0315 -0.0070  0.2971
   77MOL   C12129153   1.643   2.732   1.331 -0.5162 -0.4492 -0.5675
   77MOL   C12229154   1.529   2.818   1.330  0.1717  0.2805  0.2168
   77MOL   C12329155   1.415   2.794   1.410  0.2315  0.8688 -0.4319
   77MOL   C12429156   1.413   2.670   1.481 -0.3628 -0.0466 -0.5387
   77MOL   C12529157   1.521   2.585   1.468  0.1107  0.6418 -0.3701
   77MOL   C12629158   1.638   2.615   1.407  0.4928  0.5520 -0.4574
   77MOL   H12729159   1.993   3.104   1.462 -2.7464  0.8682  0.6728
   77MOL   H12829160   1.769   2.980   1.447 -0.7303 -1.0932  0.1803
   77MOL   H12929161   1.894   2.894   1.181  1.8706  0.4618  2.2030
   77MOL   H13029162   1.734   2.956   1.197  0.5659  0.2289 -0.7240
   77MOL   H13129163   1.532   2.907   1.269 -1.0445 -0.2113 -0.5762
   77MOL   H13229164   1.336   2.867   1.410 -1.6104 -1.0466  0.4939
   77MOL   H13329165   1.331   2.630   1.539 -0.3805 -1.3535 -1.4523
   77MOL   H13429166   1.511   2.483   1.502  0.3771  0.8147  0.2334
   77MOL   C13529167   1.762   2.526   1.411  0.2842 -0.2233 -0.2176
   77MOL   C13629168   1.869   2.530   1.510  0.2614  0.4495  0.2498
   77MOL   O13729169   1.766   2.435   1.528 -0.0248  0.0243  0.3429
   77MOL   C13829170   1.883   2.637   1.619  0.5967 -0.2024  0.6907
   77MOL   O13929171   1.971   2.598   1.728 -0.1444  0.2365 -0.3099
   77MOL   C14029172   2.103   2.572   1.688 -0.0359 -0.0791  0.6950
   77MOL   C14129173   2.159   2.625   1.572  0.0706 -0.0434  0.4541
   77MOL   C14229174   2.297   2.587   1.528 -0.0285 -0.1734  0.2536
   77MOL   C14329175   2.376   2.509   1.616 -0.5457  0.3466 -0.1055
   77MOL   C14429176   2.304   2.448   1.722  0.0177 -0.8486  0.2677
   77MOL   C14529177   2.172   2.479   1.759  0.1811  0.2181 -0.1511
   77MOL   H14629178   1.787   2.487   1.313 -0.6459  0.2679 -0.6599
   77MOL   H14729179   1.964   2.491   1.475 -0.7838  0.8978 -3.2761
   77MOL   H14829180   1.784   2.647   1.664  0.3291 -0.5135  0.1769
   77MOL   H14929181   1.907   2.734   1.575 -0.0331 -0.0506  0.6663
   77MOL   H15029182   2.104   2.696   1.512  0.6589  1.1614  1.3189
   77MOL   H15129183   2.342   2.631   1.441  0.8153 -2.4784 -0.5258
   77MOL   H15229184   2.473   2.471   1.587 -0.7230  0.4659 -0.8747
   77MOL   H15329185   2.365   2.375   1.774  0.0826 -1.1385 -0.2157
   77MOL   C15429186   2.107   2.413   1.882 -0.0414 -0.1220 -0.2893
   77MOL   C15529187   1.980   2.325   1.882  0.1434 -0.5649 -0.1628
   77MOL   O15629188   2.113   2.270   1.874 -0.1591 -0.1407 -0.1317
   77MOL   C15729189   1.899   2.282   1.762  0.1326  0.0043  0.2762
   77MOL   O15829190   1.887   2.144   1.757 -0.0110  0.0896  1.1469
   77MOL   C15929191   1.802   2.080   1.839  1.0764  0.5147 -0.2507
   77MOL   C16029192   1.695   2.150   1.910 -0.1425  0.2504 -0.5288
   77MOL   C16129193   1.613   2.082   1.996  0.0182 -0.1833 -0.7259
   77MOL   C16229194   1.626   1.944   2.015 -0.5632 -0.3900 -0.8404
   77MOL   C16329195   1.718   1.872   1.940  0.3721 -1.0802 -0.0564
   77MOL   C16429196   1.805   1.939   1.849 -0.4501  0.7494 -0.6447
   77MOL   H16529197   2.131   2.447   1.982  2.9387 -0.9399 -0.6740
   77MOL   H16629198   1.923   2.294   1.970 -0.3688 -0.3485 -0.4118
   77MOL   H16729199   1.964   2.308   1.679 -0.1707 -0.2469 -0.0432
   77MOL   H16829200   1.807   2.339   1.747 -1.1899 -2.3750 -0.9772
   77MOL   H16929201   1.682   2.257   1.905  0.9260  0.3325 -1.9239
   77MOL   H17029202   1.542   2.130   2.062 -0.0974 -2.4349  0.8476
   77MOL   H17129203   1.566   1.884   2.081  1.2561  0.6832  1.8783
   77MOL   H17229204   1.725   1.766   1.963  1.8938 -0.9567  0.1119
   77MOL   C17329205   1.884   1.872   1.745  0.1229  0.0106  0.2622
   77MOL   C17429206   2.037   1.860   1.766 -0.8334  0.0459 -0.5752
   77MOL   O17529207   1.949   1.755   1.794 -0.7332 -0.6652  0.1111
   77MOL   C17629208   2.109   1.901   1.887  0.0646  0.4161  0.2309
   77MOL   O17729209   2.235   1.837   1.891 -0.2710  0.0035  0.0649
   77MOL   C17829210   2.357   1.894   1.849 -0.5153  0.0084  0.4822
   77MOL   C17929211   2.372   2.034   1.821  0.2300 -0.3381 -0.7377
   77MOL   C18029212   2.495   2.082   1.766 -0.4458 -0.2692  0.6938
   77MOL   C18129213   2.600   1.996   1.736 -0.1005 -0.5824 -1.0088
   77MOL   C18229214   2.595   1.869   1.784 -0.2378 -0.3530 -0.3040
   77MOL   C18329215   2.476   1.815   1.831  0.3960 -0.2614  0.4354
   77MOL   H18429216   1.838   1.860   1.648 -0.5325  1.2734  0.4088
   77MOL   H18529217   2.092   1.869   1.673  0.6703  0.6784  0.3470
   77MOL   H18629218   2.050   1.866   1.972 -0.6536 -2.9251 -1.5411
   77MOL   H18729219   2.119   2.009   1.883 -2.0407  0.7105  1.9665
   77MOL   H18829220   2.288   2.101   1.821  1.1407  0.8316  0.1350
   77MOL   H18929221   2.504   2.188   1.745  3.0668 -0.4504  0.9192
   77MOL   H19029222   2.689   2.033   1.686 -0.3759  0.2672 -0.8827
   77MOL   H19129223   2.670   1.795   1.758 -0.4382 -0.6515 -0.0354
   77MOL   C19229224   2.481   1.679   1.882  0.9766  0.3235  0.7978
   77MOL   C19329225   2.401   1.557   1.838  0.3748  0.7192 -0.0339
   77MOL   O19429226   2.527   1.585   1.788 -0.0833 -0.3569 -0.0122
   77MOL   C19529227   2.289   1.555   1.734 -0.2892 -0.0745  0.2453
   77MOL   O19629228   2.191   1.467   1.783 -0.4029  0.0396 -0.1459
   77MOL   C19729229   2.067   1.467   1.722 -0.0677  0.6954  0.1272
   77MOL   C19829230   2.034   1.542   1.607 -0.0767  0.0010 -0.2847
   77MOL   C19929231   1.908   1.530   1.540  0.6285  0.5549 -0.6621
   77MOL   C20029232   1.803   1.464   1.608 -0.0997  1.0793  0.7254
   77MOL   C20129233   1.831   1.388   1.724 -0.3400  0.4245 -0.1825
   77MOL   C20229234   1.967   1.382   1.769 -0.2137 -0.5589 -0.3050
   77MOL   H20329235   2.549   1.683   1.967  0.9298 -1.1660  0.9328
   77MOL   H20429236   2.392   1.468   1.901 -0.1509 -1.4721 -3.1197
   77MOL   H20529237   2.334   1.538   1.637 -1.1567  0.9900 -0.3676
   77MOL   H20629238   2.241   1.653   1.736 -0.4665 -0.1638  0.4523
   77MOL   H20729239   2.110   1.601   1.557  0.9885  1.1580  2.5896
   77MOL   H20829240   1.878   1.599   1.462  1.6368  1.8724  0.0940
   77MOL   H20929241   1.700   1.458   1.577  0.6106  1.4248 -1.7492
   77MOL   H21029242   1.751   1.336   1.777 -1.8489  2.4638 -0.3947
   77MOL   C21129243   1.994   1.303   1.891 -0.5622  0.6137  0.6972
   77MOL   C21229244   1.994   1.368   2.033  0.3045  0.4970  0.2874
   77MOL   O21329245   1.883   1.284   1.981  0.5472  0.5495  0.1654
   77MOL   C21429246   1.954   1.508   2.050 -0.8872  0.0021  0.2848
   77MOL   O21529247   1.934   1.545   2.186 -0.1957 -0.2037  0.7873
   77MOL   C21629248   1.809   1.541   2.247  0.6305 -0.0651 -0.5610
   77MOL   C21729249   1.701   1.464   2.195  0.8162  0.6048  0.1211
   77MOL   C21829250   1.582   1.447   2.272 -0.5598  0.5987 -0.4179
   77MOL   C21929251   1.579   1.497   2.402  0.8012  0.8604 -0.3742
   77MOL   C22029252   1.689   1.564   2.463  0.1214  0.2592 -0.0349
   77MOL   C22129253   1.803   1.584   2.381  0.3335  0.3018 -0.9411
   77MOL   H22229254   2.070   1.226   1.875 -2.4525 -1.1015 -0.1458
   77MOL   H22329255   2.053   1.332   2.116  0.3807  1.0958  0.4938
   77MOL   H22429256   1.860   1.526   1.997  0.0520  0.3522 -1.3184
   77MOL   H22529257   2.032   1.568   2.004 -2.7776  2.0462 -0.3750
   77MOL   H22629258   1.693   1.417   2.099 -0.9365  1.1666 -0.0205
   77MOL   H22729259   1.503   1.393   2.221 -0.6003 -0.1850  0.4562
   77MOL   H22829260   1.489   1.491   2.462  0.0976  1.5624 -1.3343
   77MOL   H22929261   1.693   1.599   2.565  0.9568 -2.3691  0.8836
   77MOL   C23029262   1.922   1.661   2.442 -0.0720 -0.4920  0.0794
   77MOL   C23129263   1.965   1.793   2.376  0.0884  0.9063  0.0450
   77MOL   O23229264   1.881   1.790   2.492 -0.1862  0.3849  0.3989
   77MOL   C23329265   1.900   1.856   2.253 -0.7627 -0.0958 -0.4820
   77MOL   O23429266   1.897   1.997   2.259  0.0635 -0.7469 -0.5586
   77MOL   C23529267   2.015   2.067   2.229 -0.8248  0.0827 -0.0432
   77MOL   C23629268   2.130   2.001   2.176  0.1989  0.4637  0.0176
   77MOL   C23729269   2.245   2.066   2.146  0.0586  0.2093 -0.7537
   77MOL   C23829270   2.251   2.198   2.154  0.2899 -0.5818  0.6486
   77MOL   C23929271   2.140   2.272   2.209 -0.4997  0.0337 -0.1477
   77MOL   C24029272   2.025   2.206   2.256  0.0277  1.0887 -0.2359
   77MOL   H24129273   1.981   1.594   2.503  0.7419  1.0680  1.0256
   77MOL   H24229274   2.068   1.824   2.391  0.5204 -0.1767 -0.6252
   77MOL   H24329275   1.796   1.825   2.240 -0.4061 -1.5114 -0.0539
   77MOL   H24429276   1.952   1.818   2.165 -0.7550  1.2925 -1.0857
   77MOL   H24529277   2.134   1.894   2.164 -3.8123 -0.0326  2.2114
   77MOL   H24629278   2.335   2.027   2.101  0.8690  1.3561 -0.1763
   77MOL   H24729279   2.345   2.242   2.126 -1.2611  2.8020  0.4507
   77MOL   H24829280   2.146   2.380   2.222 -1.6841 -0.2187  2.8450
   77MOL   C24929281   1.910   2.272   2.315 -0.1630 -0.0983  0.8740
   77MOL   C25029282   1.888   2.248   2.464 -1.0260 -0.3095  0.4705
   77MOL   O25129283   1.938   2.375   2.407 -0.2514  0.4115 -0.0632
   77MOL   C25229284   1.996   2.167   2.540  0.8127  0.2409  0.5553
   77MOL   O25329285   1.976   2.180   2.684 -0.9627  0.8169 -0.0091
   77MOL   C25429286   2.015   2.301   2.739  0.2690  0.7305 -1.0365
   77MOL   C25529287   2.087   2.401   2.679  0.1360 -0.4934 -0.1455
   77MOL   C25629288   2.134   2.508   2.755  0.3895 -0.2759  0.0729
   77MOL   C25729289   2.087   2.523   2.890 -0.3665  0.3226 -0.0827
   77MOL   C25829290   2.019   2.420   2.951  0.8646  0.2296 -0.2045
   77MOL   C25929291   1.981   2.311   2.875 -0.0477  0.0508 -0.3115
   77MOL   H26029292   1.825   2.277   2.247  1.0830  0.2082 -0.6683
   77MOL   H26129293   1.785   2.246   2.501 -0.8437  1.3335  1.0879
   77MOL   H26229294   2.093   2.194   2.498  0.6523 -0.4441 -0.2696
   77MOL   H26329295   1.974   2.063   2.518 -0.6290  0.4130  1.1122
   77MOL   H26429296   2.118   2.401   2.575 -1.8253 -0.6113 -0.7415
   77MOL   H26529297   2.196   2.588   2.717  0.6206 -0.9600 -0.9966
   77MOL   H26629298   2.115   2.611   2.945 -0.8445 -0.0237  0.7198
   77MOL   H26729299   2.004   2.423   3.058  1.2946 -1.4976 -0.0723
   77MOL   C26829300   1.896   2.201   2.941 -0.3352  0.4751 -0.0322
   77MOL   C26929301   1.957   2.063   2.975 -0.4509  0.3673  0.1311
   77MOL   O27029302   1.940   2.170   3.074 -0.2076  0.3144  0.3795
   77MOL   C27129303   2.109   2.039   2.952 -0.2821  0.1796  0.0738
   77MOL   O27229304   2.152   1.920   3.012  0.4383 -0.0073  0.3772
   77MOL   C27329305   2.081   1.809   2.963  0.6803 -0.2364  0.4702
   77MOL   C27429306   2.030   1.793   2.833  0.9748 -0.6053 -0.0695
   77MOL   C27529307   1.963   1.682   2.799  0.7954 -0.4498 -0.3435
   77MOL   C27629308   1.950   1.572   2.885  0.8853 -0.3009 -0.4102
   77MOL   C27729309   2.011   1.580   3.009  0.1877 -0.7345 -0.5918
   77MOL   C27829310   2.070   1.701   3.058  1.1677 -0.5582 -0.8165
   77MOL   H27929311   1.789   2.221   2.940  0.0422  2.5798  0.4055
   77MOL   H28029312   1.888   1.980   2.984 -0.8531  0.7339  0.4603
   77MOL   H28129313   2.164   2.117   3.004  0.7452 -0.3247 -0.2456
   77MOL   H28229314   2.129   2.048   2.845 -2.4648  0.1085 -0.3691
   77MOL   H28329315   2.023   1.873   2.761 -1.1670 -1.2459 -0.5951
   77MOL   H28429316   1.919   1.677   2.701 -2.0702  2.5471  0.6740
   77MOL   H28529317   1.899   1.484   2.846 -2.9534  1.3691  0.5552
   77MOL   H28629318   2.016   1.491   3.071  1.6042 -0.1623  0.1442
   77MOL   C28729319   2.108   1.705   3.206  0.6893  0.4062  0.2553
   77MOL   C28829320   2.044   1.797   3.304  0.0087  0.4077 -0.2826
   77MOL   O28929321   1.996   1.660   3.291 -0.2615 -0.0894 -0.2623
   77MOL   C29029322   1.961   1.922   3.265  0.2682  0.0010  0.8682
   77MOL   O29129323   1.903   1.989   3.380 -0.1654 -0.0046  0.1234
   77MOL   C29229324   1.987   2.069   3.465 -0.2786  0.0596  0.2942
   77MOL   C29329325   2.123   2.100   3.432 -0.4398 -0.6621 -0.4940
   77MOL   C29429326   2.195   2.170   3.527 -0.0976 -0.3544 -0.8454
   77MOL   C29529327   2.131   2.206   3.652 -0.2319  0.1756 -0.1190
   77MOL   C29629328   1.999   2.177   3.670 -0.0122 -0.3646  0.1439
   77MOL   C29729329   1.925   2.102   3.578 -0.0327 -0.4530 -0.2459
   77MOL   H29829330   2.206   1.662   3.223  0.1055 -0.2466  2.0156
   77MOL   H29929331   2.117   1.812   3.384  1.5564 -2.2504 -1.1467
   77MOL   H30029332   1.886   1.894   3.191 -0.0404 -0.0993  1.2183
   77MOL   H30129333   2.027   1.990   3.212  2.8686 -1.5980  1.9638
   77MOL   H30229334   2.163   2.076   3.334 -0.2395  1.0008 -0.8407
   77MOL   H30329335   2.291   2.210   3.497 -1.4022  1.6546 -2.4693
   77MOL   H30429336   2.180   2.261   3.731  0.2504 -1.1107  0.4936
   77MOL   H30529337   1.955   2.202   3.766  0.1438 -0.7292  0.3116
   77MOL   C30629338   1.786   2.055   3.616  0.5270 -0.7297 -0.4170
   77MOL   C30729339   1.749   1.923   3.666  0.0139  0.4136 -0.4942
   77MOL   O30829340   1.765   2.025   3.755 -0.2221  0.4246  0.1547
   77MOL   C30929341   1.848   1.811   3.666  0.2408  0.9526 -0.1573
   77MOL   O31029342   1.803   1.695   3.600  0.4231 -0.3306  0.0766
   77MOL   C31129343   1.899   1.597   3.583  0.2623  0.0322 -0.3793
   77MOL   C31229344   2.036   1.599   3.629  1.1768  0.0089  0.1056
   77MOL   C31329345   2.120   1.485   3.607 -0.9855  0.3717 -0.5296
   77MOL   C31429346   2.066   1.374   3.537 -0.7134 -0.1628  0.2692
   77MOL   C31529347   1.938   1.381   3.488  0.0381 -0.0347 -0.6696
   77MOL   C31629348   1.851   1.485   3.513  0.4561  0.4882  0.1497
   77MOL   H31729349   1.718   2.126   3.570  0.1696 -0.4864  0.4708
   77MOL   H31829350   1.645   1.892   3.656  0.1158 -0.3795  0.7785
   77MOL   H31929351   1.874   1.789   3.770  1.2385  1.7954 -0.2075
   77MOL   H32029352   1.941   1.846   3.620 -0.4399  3.0558  0.0093
   77MOL   H32129353   2.077   1.680   3.687 -0.3599  0.3992  0.6719
   77MOL   H32229354   2.219   1.475   3.648 -0.7584 -0.1395 -1.1958
   77MOL   H32329355   2.119   1.281   3.526  0.3318  0.1623  2.4425
   77MOL   H32429356   1.904   1.295   3.432 -1.4527  0.3630 -0.3811
   77MOL   C32529357   1.708   1.466   3.476  0.0190 -0.5269 -0.0073
   77MOL   C32629358   1.639   1.505   3.337  0.5606  1.0444  0.1992
   77MOL   O32729359   1.691   1.372   3.368  1.0370 -0.1725  0.2203
   77MOL   C32829360   1.718   1.581   3.228  0.2085 -0.3401  0.2075
   77MOL   O32929361   1.616   1.602   3.122 -0.4094 -0.2684  0.4903
   77MOL   C33029362   1.605   1.517   3.010  0.6878 -0.2282  0.1240
   77MOL   C33129363   1.659   1.387   3.016  0.2973  0.2106  0.4376
   77MOL   C33229364   1.670   1.310   2.903 -0.2825  0.2289 -0.5350
   77MOL   C33329365   1.623   1.356   2.782  0.3008  0.4128 -0.0663
   77MOL   C33429366   1.549   1.476   2.779 -0.6233 -0.1141  0.1291
   77MOL   C33529367   1.537   1.556   2.891 -0.0513 -0.3912 -0.4181
   77MOL   H33629368   1.653   1.421   3.558  0.9059 -0.9203  0.3674
   77MOL   H33729369   1.532   1.520   3.343  0.4453 -0.3410  1.8159
   77MOL   H33829370   1.806   1.528   3.191  0.0193  0.9956 -2.2904
   77MOL   H33929371   1.751   1.677   3.266 -3.2090  1.9532 -2.2454
   77MOL   H34029372   1.697   1.345   3.108 -0.2310 -0.5187  0.3248
   77MOL   H34129373   1.722   1.216   2.907  0.4353  0.5704 -1.6797
   77MOL   H34229374   1.645   1.293   2.697  0.4080 -0.0229  0.2823
   77MOL   H34329375   1.511   1.514   2.686  0.6445 -1.0455 -0.7760
   77MOL   C34429376   1.457   1.687   2.887  0.7950  0.7027 -0.1348
   77MOL   C34529377   1.515   1.827   2.871  0.8354  0.1905 -0.3613
   77MOL   O34629378   1.448   1.759   2.766  0.6172 -0.1586 -0.5997
   77MOL   C34729379   1.665   1.851   2.854 -0.2105  0.1927  0.0291
   77MOL   O34829380   1.690   1.988   2.812 -0.0201  0.2420 -0.2791
   77MOL   C34929381   1.631   2.018   2.687  0.0362 -0.0028 -0.4751
   77MOL   C35029382   1.627   1.932   2.579  0.1212  0.5820 -0.0603
   77MOL   C35129383   1.585   1.979   2.454  0.3913  0.2191  0.5471
   77MOL   C35229384   1.531   2.103   2.435  0.3577 -0.9674 -0.0635
   77MOL   C35329385   1.521   2.187   2.542  0.3879  0.6858 -0.0405
   77MOL   C35429386   1.569   2.144   2.669  0.1109  0.4643 -0.0604
   77MOL   H35529387   1.363   1.670   2.940  0.4390  1.1064 -0.6343
   77MOL   H35629388   1.459   1.906   2.920  1.6130  1.3494 -1.3251
   77MOL   H35729389   1.709   1.774   2.791  1.4781 -0.5547  2.0620
   77MOL   H35829390   1.718   1.837   2.948  1.5570  1.3347 -0.7542
   77MOL   H35929391   1.656   1.829   2.595 -0.7672  0.2461 -0.5486
   77MOL   H36029392   1.579   1.907   2.373  0.4076  0.6436  0.1647
   77MOL   H36129393   1.487   2.132   2.341  1.6168 -0.1606 -0.4322
   77MOL   H36229394   1.455   2.271   2.527  0.4089  0.4807 -1.3925
   77MOL   C36329395   1.529   2.229   2.787  0.2562 -0.0947 -0.0820
   77MOL   C36429396   1.391   2.224   2.850 -0.2342  0.6244 -0.0762
   77MOL   O36529397   1.500   2.157   2.906  0.1445 -0.7252  0.0163
   77MOL   C36629398   1.270   2.142   2.823  0.0295 -0.1133  1.0761
   77MOL   O36729399   1.193   2.130   2.940  1.0015 -0.7269 -0.4669
   77MOL   C36829400   1.111   2.021   2.959 -0.5326 -0.5456  0.5024
   77MOL   C36929401   1.094   1.915   2.860  1.1188 -0.5604 -0.2371
   77MOL   C37029402   1.007   1.802   2.890  0.3114  0.2565 -0.2536
   77MOL   C37129403   0.941   1.800   3.014 -0.1333  0.1759  0.0879
   77MOL   C37229404   0.960   1.904   3.105  0.7406  0.5548  0.0453
   77MOL   C37329405   1.044   2.008   3.082 -0.1697 -0.2250 -0.1855
   77MOL   H37429406   1.586   2.322   2.794 -0.4016  0.5737 -2.9713
   77MOL   H37529407   1.350   2.314   2.896  0.5708  0.4926  0.9095
   77MOL   H37629408   1.308   2.043   2.797 -3.4240 -0.9525 -1.1916
   77MOL   H37729409   1.210   2.175   2.738  0.5915  0.1192  0.7637
   77MOL   H37829410   1.142   1.903   2.764  1.9721  0.3379  0.0642
   77MOL   H37929411   0.983   1.724   2.818  4.3154  0.1510 -1.6211
   77MOL   H38029412   0.878   1.717   3.043 -2.3572  0.9293 -2.4008
   77MOL   H38129413   0.908   1.906   3.200 -0.1417  0.8128 -0.4368
   77MOL   H38229414   1.060   2.088   3.153 -1.7874  0.1092 -0.1619
   78MOL     C129415   8.154   4.047   2.109  0.3564  0.7426 -0.1123
   78MOL     C229416   0.001   3.902   2.149  0.8391  0.0554 -0.1279
   78MOL     O329417   8.095   3.996   2.231 -0.2475  0.0388 -1.0162
   78MOL     C429418   0.108   3.850   2.239  0.3397  0.4493  0.1082
   78MOL     O529419   0.048   3.742   2.306  0.7332  0.2939 -0.1200
   78MOL     C629420   0.100   3.688   2.417  0.7361 -0.8737 -0.4549
   78MOL     C729421   0.220   3.726   2.480  0.7811  0.5569  0.1745
   78MOL     C829422   0.274   3.656   2.589  0.4385  0.2263  0.8581
   78MOL     C929423   0.199   3.553   2.644  0.5315  0.6682  0.2790
   78MOL    C1029424   0.077   3.516   2.595 -0.3002 -0.0608  0.5508
   78MOL    C1129425   0.028   3.577   2.475  0.1201 -0.0354 -0.8831
   78MOL    H1229426   8.087   4.075   2.028  1.7019  4.8678  0.0984
   78MOL    H1329427   8.109   3.833   2.091 -0.1484  0.2769  0.6466
   78MOL    H1429428   0.152   3.929   2.300  0.1002  0.7660 -0.1295
   78MOL    H1529429   0.187   3.804   2.178 -2.0734 -1.4875 -1.6564
   78MOL    H1629430   0.280   3.805   2.436  0.0678  1.4408  0.7763
   78MOL    H1729431   0.366   3.693   2.632  0.3195  0.2364  1.1048
   78MOL    H1829432   0.252   3.494   2.718  0.2665  0.3981  0.2514
   78MOL    H1929433   0.019   3.434   2.635 -1.3759 -0.8552 -2.5173
   78MOL    H2029434   0.075   4.107   2.115  1.7107 -1.3086  0.7726
   78MOL    C2129435   8.071   3.536   2.411  1.0232  0.0973  0.2347
   78MOL    C2229436   8.056   3.479   2.272 -0.1287 -0.5764  0.1304
   78MOL    O2329437   8.071   3.391   2.385  0.0157 -0.0150 -0.2160
   78MOL    C2429438   0.007   3.484   2.173  0.2157  0.3001 -0.3138
   78MOL    O2529439   8.160   3.381   2.071  0.3442 -0.1363  0.2595
   78MOL    C2629440   0.031   3.252   2.098 -0.5231 -0.1128 -0.3084
   78MOL    C2729441   0.107   3.215   2.216 -0.4426  0.2433 -0.1986
   78MOL    C2829442   0.159   3.085   2.236 -0.3195 -0.6525 -0.0948
   78MOL    C2929443   0.138   2.994   2.134 -0.0104  0.2437 -0.4782
   78MOL    C3029444   0.062   3.023   2.019  0.3761 -0.3987 -0.1683
   78MOL    C3129445   0.006   3.153   2.003 -0.2370  0.7939 -0.0171
   78MOL    H3229446   7.977   3.566   2.457  1.2391 -0.8814  1.3204
   78MOL    H3329447   7.960   3.481   2.221  1.0441 -0.7076 -2.1462
   78MOL    H3429448   0.105   3.483   2.221  0.6556 -2.2061 -1.1885
   78MOL    H3529449   0.004   3.577   2.115 -0.1389 -0.5908 -1.7572
   78MOL    H3629450   0.128   3.289   2.292  1.5727 -0.8495  0.3231
   78MOL    H3729451   0.208   3.049   2.326 -0.3050  0.8125  0.4853
   78MOL    H3829452   0.177   2.893   2.143 -0.2148  0.1297 -0.8585
   78MOL    H3929453   0.051   2.946   1.945  2.9156 -0.5445 -0.4358
   78MOL    C4029454   8.101   3.177   1.877  0.6258 -0.5716  0.5158
   78MOL    C4129455   8.159   3.252   1.753  0.6148 -0.1503 -0.3155
   78MOL    O4229456   8.160   3.111   1.760 -0.5408  0.0449  0.3060
   78MOL    C4329457   0.121   3.322   1.766  0.1288  0.4082 -0.0601
   78MOL    O4429458   0.165   3.357   1.634  0.0697  0.3369  0.2741
   78MOL    C4529459   0.240   3.266   1.561 -0.5536 -0.1574 -0.4734
   78MOL    C4629460   0.275   3.136   1.603  0.4176 -0.1272  0.0193
   78MOL    C4729461   0.332   3.047   1.512 -0.4178  0.2562  0.2021
   78MOL    C4829462   0.385   3.104   1.390  0.8635 -0.9125  0.7693
   78MOL    C4929463   0.365   3.233   1.352 -0.3763 -0.5015 -0.3585
   78MOL    C5029464   0.300   3.318   1.440 -0.0704  0.2504  0.1816
   78MOL    H5129465   7.992   3.185   1.881  0.7651  1.5554  0.4285
   78MOL    H5229466   8.094   3.289   1.674  0.9538  1.0673 -0.0271
   78MOL    H5329467   0.183   3.265   1.836  0.8835 -0.8888 -1.7610
   78MOL    H5429468   0.115   3.415   1.823 -0.2346  0.1010  0.4083
   78MOL    H5529469   0.240   3.099   1.698 -2.2580 -0.1299 -0.9336
   78MOL    H5629470   0.352   2.942   1.528 -0.3786  0.4016  1.1784
   78MOL    H5729471   0.426   3.038   1.315 -0.9554  1.4688 -2.4268
   78MOL    H5829472   0.411   3.277   1.264 -2.0029  1.1124 -0.4635
   78MOL    C5929473   0.288   3.463   1.413  0.1435 -0.6832  0.4022
   78MOL    C6029474   0.363   3.575   1.503  0.7281  0.1797 -0.3288
   78MOL    O6129475   0.408   3.528   1.376 -0.2349  0.0297 -0.0816
   78MOL    C6229476   0.451   3.537   1.615 -0.5904  0.0023 -0.5349
   78MOL    O6329477   0.510   3.657   1.665 -0.3441  0.1878  0.5233
   78MOL    C6429478   0.430   3.735   1.757  0.0573 -0.0602  0.1226
   78MOL    C6529479   0.291   3.719   1.789 -0.0625  0.3357 -0.8861
   78MOL    C6629480   0.223   3.808   1.875 -0.7559 -0.5801 -0.2652
   78MOL    C6729481   0.300   3.905   1.941  1.1346 -0.4495  0.3118
   78MOL    C6829482   0.435   3.914   1.925  0.4274  0.3459  0.6329
   78MOL    C6929483   0.503   3.831   1.834 -0.3084 -0.3609 -0.1145
   78MOL    H7029484   0.198   3.497   1.362  0.7354  0.3913  0.0534
   78MOL    H7129485   0.326   3.677   1.504 -0.1733 -0.1377  0.9359
   78MOL    H7229486   0.534   3.472   1.587 -0.9663 -0.6657 -0.1121
   78MOL    H7329487   0.391   3.479   1.685  0.7033 -0.7588 -0.0294
   78MOL    H7429488   0.226   3.648   1.739 -2.7184  2.7732 -1.0146
   78MOL    H7529489   0.116   3.804   1.882 -0.7955  0.4772 -0.1752
   78MOL    H7629490   0.247   3.979   2.000  1.1445 -0.6656  0.5863
   78MOL    H7729491   0.482   3.991   1.984  1.7655 -0.2130  0.3219
   78MOL    C7829492   0.649   3.845   1.826  0.0112 -0.1785  0.0383
   78MOL    C7929493   0.709   3.918   1.712 -0.8891 -0.3679 -0.3134
   78MOL    O8029494   0.700   3.979   1.847 -0.7640  0.8781  0.0439
   78MOL    C8129495   0.625   3.988   1.602 -0.1840  0.5222  0.3782
   78MOL    O8229496   0.714   4.024   1.501  0.7230  0.7044 -0.0438
   78MOL    C8329497   0.753   4.157   1.478 -0.4070  0.1395  0.4534
   78MOL    C8429498   0.757   4.250   1.578 -0.2912  0.3188  0.9058
   78MOL    C8529499   0.790   4.384   1.559 -0.4282 -0.2776  1.4110
   78MOL    C8629500   0.824   4.429   1.426  0.2658 -0.1476  0.6013
   78MOL    C8729501   0.825   4.338   1.324 -0.1223  0.5609 -0.2532
   78MOL    C8829502   0.796   4.200   1.354 -0.3547 -0.6949 -0.0672
   78MOL    H8929503   0.705   3.760   1.866  0.5998  0.7210  1.1456
   78MOL    H9029504   0.811   3.890   1.688  0.3675  3.4030  0.3837
   78MOL    H9129505   0.573   4.075   1.642 -2.4163 -1.1441  1.2352
   78MOL    H9229506   0.558   3.913   1.560 -1.0025  1.3727  0.1640
   78MOL    H9329507   0.728   4.231   1.681  0.2366 -0.4318  0.9188
   78MOL    H9429508   0.790   4.445   1.647 -0.9668  0.8987  0.6084
   78MOL    H9529509   0.833   4.535   1.410  1.5654 -0.1738  1.0720
   78MOL    H9629510   0.848   4.361   1.221 -3.1439  0.6790 -0.9343
   78MOL    C9729511   0.793   4.085   1.252  0.0735 -0.1606 -0.3049
   78MOL    C9829512   0.684   4.077   1.148  0.0758 -0.5960  0.6917
   78MOL    O9929513   0.812   4.128   1.116 -0.1937 -0.1390 -0.5228
   78MOL   C10029514   0.569   4.178   1.131 -0.0786  0.0505  0.1521
   78MOL   O10129515   0.531   4.220   1.263 -0.1656 -0.2356 -0.0345
   78MOL   C10229516   0.450   4.135   1.337  0.1696 -0.6396  0.4779
   78MOL   C10329517   0.416   4.006   1.283  0.1255  0.1256 -1.0367
   78MOL   C10429518   0.335   3.921   1.361  0.3124 -0.0605  0.2968
   78MOL   C10529519   0.287   3.967   1.484  1.0643 -0.6458 -0.0825
   78MOL   C10629520   0.308   4.097   1.532  0.0472 -0.6116  0.0486
   78MOL   C10729521   0.390   4.186   1.455  0.3640 -0.0760 -0.3298
   78MOL   H10829522   0.868   4.009   1.275  0.4773  0.8540  1.9013
   78MOL   H10929523   0.676   3.985   1.090  2.1316 -0.2047 -0.2500
   78MOL   H11029524   0.483   4.137   1.078 -0.4501 -1.7212  2.0403
   78MOL   H11129525   0.605   4.254   1.062  2.9352 -0.0499  1.5245
   78MOL   H11229526   0.447   3.965   1.189  0.9636  0.3746 -0.8673
   78MOL   H11329527   0.316   3.824   1.317 -0.2983 -0.4942  1.4971
   78MOL   H11429528   0.226   3.906   1.550 -0.8682  0.9361 -0.3925
   78MOL   H11529529   0.269   4.141   1.622  1.1705  0.0045  0.2494
   78MOL   C11629530   0.406   4.320   1.505 -0.2097 -0.2647 -0.4189
   78MOL   C11729531   0.377   4.452   1.440  0.1359 -0.1902 -0.2538
   78MOL   O11829532   0.288   4.396   1.532  0.5632  0.2428  0.0990
   78MOL   C11929533   0.311   4.473   1.300  0.3061  0.5315 -0.6129
   78MOL   O12029534   0.306   4.622   1.267 -0.1530 -0.2649  0.1668
   78MOL   C12129535   0.423   4.693   1.230 -0.2705  0.2059 -0.0358
   78MOL   C12229536   0.536   4.624   1.176  0.3476  0.9123 -0.1962
   78MOL   C12329537   0.654   4.687   1.133  0.3339 -0.2310 -0.4750
   78MOL   C12429538   0.670   4.825   1.160  0.1287  0.2845  0.0347
   78MOL   C12529539   0.558   4.897   1.215  0.3901  0.0944 -0.2538
   78MOL   C12629540   0.436   4.837   1.252  0.3569 -0.3185  0.3803
   78MOL   H12729541   0.470   4.322   1.594 -0.1101 -0.6580 -0.4796
   78MOL   H12829542   0.436   4.533   1.481 -0.8405  0.7379 -0.6793
   78MOL   H12929543   0.211   4.431   1.308  0.4772 -0.2284 -2.1987
   78MOL   H13029544   0.363   4.416   1.222  0.4232 -0.9606  0.5348
   78MOL   H13129545   0.534   4.517   1.163  1.2007  0.6049  1.9039
   78MOL   H13229546   0.732   4.634   1.079 -0.7388 -1.7163 -0.6043
   78MOL   H13329547   0.750   4.884   1.117  0.5191  3.0192  4.1961
   78MOL   H13429548   0.576   5.003   1.227  0.7310  0.0079  0.0205
   78MOL   C13529549   0.325   4.919   1.305 -1.7822  0.6620  1.0325
   78MOL   C13629550   0.281   4.926   1.453 -0.0312 -0.1822 -0.0288
   78MOL   O13729551   0.369   5.019   1.391 -0.0958 -0.5578 -0.0772
   78MOL   C13829552   0.359   4.852   1.550  1.1744 -0.4381  0.3250
   78MOL   O13929553   0.424   4.951   1.631 -0.1442  0.0958 -0.2545
   78MOL   C14029554   0.509   4.897   1.726  0.0304 -0.4734 -0.1190
   78MOL   C14129555   0.460   4.807   1.817  0.1846  0.1557  1.1732
   78MOL   C14229556   0.536   4.761   1.922 -1.2699 -0.1554  0.2757
   78MOL   C14329557   0.672   4.806   1.928 -0.8205 -0.2207  0.0496
   78MOL   C14429558   0.721   4.897   1.837 -0.4173  0.1765 -0.1940
   78MOL   C14529559   0.640   4.944   1.731 -0.5368 -0.3696 -0.4775
   78MOL   H14629560   0.258   4.956   1.228  0.3749  0.2875 -1.0717
   78MOL   H14729561   0.182   4.962   1.477  0.5323  2.9977 -2.0987
   78MOL   H14829562   0.427   4.779   1.507  1.1475 -0.0983 -0.3061
   78MOL   H14929563   0.283   4.800   1.607 -0.8235  0.4452 -1.4442
   78MOL   H15029564   0.357   4.776   1.816 -0.2895  1.7475 -0.0179
   78MOL   H15129565   0.501   4.704   2.007  0.1395  0.1695  1.0930
   78MOL   H15229566   0.732   4.767   2.009 -1.8481 -1.9672 -0.0044
   78MOL   H15329567   0.826   4.921   1.846 -0.0420 -1.8659  1.2473
   78MOL   C15429568   0.699   5.026   1.623  0.5477  0.0998 -0.3368
   78MOL   C15529569   0.709   5.179   1.639  0.7774 -0.0589  0.8143
   78MOL   O15629570   0.822   5.090   1.656  0.2447  0.5212 -0.3444
   78MOL   C15729571   0.673   5.258   1.767  0.0603  0.5317 -0.0313
   78MOL   O15829572   0.725   5.391   1.739 -0.0863  0.2361 -0.0997
   78MOL   C15929573   0.853   5.423   1.783 -0.2836  0.1500 -0.7058
   78MOL   C16029574   0.914   5.367   1.899  0.0367 -0.1464  0.3193
   78MOL   C16129575   1.039   5.407   1.937  1.3709 -0.4591 -0.5367
   78MOL   C16229576   1.114   5.505   1.857 -0.1632  0.7568 -0.8063
   78MOL   C16329577   1.054   5.564   1.745  1.1048  0.1988 -0.2303
   78MOL   C16429578   0.924   5.521   1.710 -0.0118  0.1999  0.2245
   78MOL   H16529579   0.692   4.977   1.526 -0.9658  0.7432 -0.5609
   78MOL   H16629580   0.715   5.240   1.549  0.3801  1.6845  1.9459
   78MOL   H16729581   0.706   5.204   1.855  2.0041  3.2519  1.0024
   78MOL   H16829582   0.565   5.273   1.774 -0.0419  0.3331 -1.0370
   78MOL   H16929583   0.870   5.295   1.966 -1.5587 -0.3067 -0.8850
   78MOL   H17029584   1.085   5.351   2.017  0.7910  0.4871  0.4650
   78MOL   H17129585   1.216   5.518   1.890  0.2071  0.4824 -1.7974
   78MOL   H17229586   1.099   5.647   1.692  0.9770 -0.1887 -0.9566
   78MOL   C17329587   0.867   5.573   1.579 -0.1522 -0.1321 -0.4118
   78MOL   C17429588   0.771   5.685   1.567 -0.3120 -0.6168  0.3774
   78MOL   O17529589   0.915   5.701   1.548  0.2773 -0.1976  0.2802
   78MOL   C17629590   0.726   5.768   1.685 -0.1454 -0.2265  0.2857
   78MOL   O17729591   0.638   5.875   1.655 -0.1620 -0.3878  0.2219
   78MOL   C17829592   0.679   5.986   1.590  0.1297  0.0972 -0.0684
   78MOL   C17929593   0.815   6.009   1.559  0.6054  0.1919 -0.7017
   78MOL   C18029594   0.849   6.126   1.493 -0.2551  0.2240 -0.2367
   78MOL   C18129595   0.749   6.213   1.453  0.4525  0.1559  0.0149
   78MOL   C18229596   0.610   6.186   1.468 -1.4850  0.2152  0.6495
   78MOL   C18329597   0.579   6.069   1.543  0.3467 -0.0521  0.2642
   78MOL   H18429598   0.861   5.488   1.511 -2.2671 -1.2462  1.1258
   78MOL   H18529599   0.715   5.704   1.475  0.1980  0.4849  0.2831
   78MOL   H18629600   0.807   5.805   1.747 -0.1248 -0.7205  0.5606
   78MOL   H18729601   0.672   5.699   1.751 -3.5321 -0.7649 -2.8472
   78MOL   H18829602   0.896   5.942   1.585 -0.2683 -1.1027 -1.2630
   78MOL   H18929603   0.954   6.149   1.478 -0.5915  1.1712 -1.1351
   78MOL   H19029604   0.767   6.296   1.386 -0.3250  1.7288  1.7333
   78MOL   H19129605   0.528   6.245   1.428 -3.3067 -2.1502  0.7845
   78MOL   C19229606   0.435   6.033   1.583 -0.7999  0.1157  0.0281
   78MOL   C19329607   0.327   6.131   1.628 -0.1863 -0.2412  0.8752
   78MOL   O19429608   0.343   6.092   1.490 -0.4559  0.0692 -0.3213
   78MOL   C19529609   0.344   6.279   1.645  0.2807  0.5848  0.3690
   78MOL   O19629610   0.432   6.285   1.756 -0.1084 -0.0806 -0.2960
   78MOL   C19729611   0.379   6.317   1.880  0.1164 -0.3093  0.3770
   78MOL   C19829612   0.337   6.451   1.914 -0.7533  0.0486  0.1458
   78MOL   C19929613   0.283   6.481   2.036  0.5313  0.1005  0.0931
   78MOL   C20029614   0.266   6.377   2.132 -0.7017 -0.2038  0.4038
   78MOL   C20129615   0.313   6.247   2.101  0.0471  0.7093  0.3310
   78MOL   C20229616   0.369   6.210   1.978 -0.6369  0.2942 -0.4202
   78MOL   H20329617   0.411   5.928   1.591  0.0447 -0.1556 -0.8284
   78MOL   H20429618   0.240   6.092   1.681 -0.2055 -0.9334  0.3358
   78MOL   H20529619   0.247   6.323   1.668 -0.0234  0.8949 -1.4788
   78MOL   H20629620   0.394   6.327   1.561 -0.3906 -1.9877 -1.5375
   78MOL   H20729621   0.351   6.526   1.837  2.4497 -1.3419 -0.7522
   78MOL   H20829622   0.251   6.579   2.069 -1.9173  0.2900 -2.6244
   78MOL   H20929623   0.227   6.393   2.231 -2.0530 -0.3761 -0.0853
   78MOL   H21029624   0.302   6.177   2.183  0.1557 -0.9002 -0.9851
   78MOL   C21129625   0.418   6.076   1.946  0.5367  0.3510  0.3075
   78MOL   C21229626   0.556   6.023   1.968  0.4561  0.2555 -0.4070
   78MOL   O21329627   0.453   6.008   2.070 -0.6518  0.1105  0.4216
   78MOL   C21429628   0.680   6.110   2.002 -0.1002  0.5904 -0.3581
   78MOL   O21529629   0.780   6.024   2.049 -0.2798 -0.0353 -0.2588
   78MOL   C21629630   0.903   6.078   2.083 -0.8401 -0.6498 -0.2041
   78MOL   C21729631   0.908   6.173   2.190 -0.0898  0.1538 -0.9070
   78MOL   C21829632   1.032   6.224   2.229 -0.4085  0.1038  0.5241
   78MOL   C21929633   1.152   6.181   2.175  0.1431  0.3894  0.0578
   78MOL   C22029634   1.153   6.066   2.084 -0.5617 -0.1483  0.1433
   78MOL   C22129635   1.026   6.025   2.028 -0.4557  0.4743  0.2365
   78MOL   H22229636   0.354   6.014   1.883  2.0765  0.2310 -1.1825
   78MOL   H22329637   0.582   5.933   1.912  1.2563  1.0195 -1.2927
   78MOL   H22429638   0.643   6.177   2.080  0.4569 -0.9770  1.2865
   78MOL   H22529639   0.711   6.159   1.910 -1.4719 -1.0286 -1.7206
   78MOL   H22629640   0.818   6.206   2.240 -0.0441 -0.6588 -0.2854
   78MOL   H22729641   1.046   6.303   2.302 -0.0431  1.4259 -0.9498
   78MOL   H22829642   1.246   6.228   2.198 -0.3869  0.5491  2.0231
   78MOL   H22929643   1.237   6.020   2.035 -1.4056 -0.9438 -0.5700
   78MOL   C23029644   1.024   5.917   1.919 -0.1599 -0.4668 -0.1856
   78MOL   C23129645   1.080   5.930   1.784  0.4674 -0.6948 -0.2052
   78MOL   O23229646   1.155   5.871   1.891  0.2827 -0.1502  0.0588
   78MOL   C23329647   1.137   6.053   1.728 -0.4298 -0.0033 -0.0133
   78MOL   O23429648   1.282   6.048   1.716  0.3374 -0.3793 -0.0234
   78MOL   C23529649   1.325   6.093   1.596 -0.9148 -0.5049  0.4461
   78MOL   C23629650   1.306   6.016   1.482  0.4846 -0.5927  0.0055
   78MOL   C23729651   1.348   6.059   1.353 -0.2780  0.6370  0.1188
   78MOL   C23829652   1.395   6.192   1.348  0.0643  0.1853  0.5089
   78MOL   C23929653   1.419   6.269   1.463 -0.0919  0.1816 -0.0294
   78MOL   C24029654   1.394   6.217   1.590 -0.4069  0.4632  0.4298
   78MOL   H24129655   0.952   5.840   1.944 -0.8150  0.5396  1.0726
   78MOL   H24229656   1.058   5.857   1.706 -0.9334  0.8429 -1.2549
   78MOL   H24329657   1.106   6.132   1.797 -0.6554 -0.7589  0.7566
   78MOL   H24429658   1.079   6.065   1.637  1.2169 -1.4585 -1.2750
   78MOL   H24529659   1.263   5.918   1.494  1.2197 -0.9201  0.0389
   78MOL   H24629660   1.334   5.995   1.267  0.1832 -0.0623  0.5631
   78MOL   H24729661   1.410   6.246   1.256  0.2019  0.8329  0.9062
   78MOL   H24829662   1.470   6.364   1.460 -1.3993  1.0295  3.0666
   78MOL   C24929663   1.411   6.298   1.716  0.0770 -0.6764  0.2717
   78MOL   C25029664   1.526   6.287   1.811  0.1455  0.2906  0.0127
   78MOL   O25129665   1.516   6.396   1.718  0.4824  0.1705 -0.4329
   78MOL   C25229666   1.643   6.187   1.804  0.8119 -0.0904 -0.3482
   78MOL   O25329667   1.598   6.048   1.820  0.0135  0.6015  0.4095
   78MOL   C25429668   1.546   6.004   1.940  0.2261 -0.7402 -0.8468
   78MOL   C25529669   1.559   6.081   2.059 -0.6557 -0.1423  0.2034
   78MOL   C25629670   1.500   6.034   2.181 -0.4427  0.3611  0.1314
   78MOL   C25729671   1.439   5.911   2.195  0.4554 -0.5032  0.1891
   78MOL   C25829672   1.429   5.832   2.077 -0.1454  0.4177 -0.2305
   78MOL   C25929673   1.493   5.876   1.960 -0.4327  0.4732  0.0589
   78MOL   H26029674   1.314   6.325   1.759  0.2367  0.4912 -0.0905
   78MOL   H26129675   1.500   6.317   1.912 -1.6550 -1.4831  0.0983
   78MOL   H26229676   1.722   6.222   1.871  1.0732  0.2322 -0.8241
   78MOL   H26329677   1.694   6.192   1.707 -0.7213  0.6067 -1.1288
   78MOL   H26429678   1.604   6.179   2.063  0.3198 -0.4767 -2.1235
   78MOL   H26529679   1.516   6.092   2.270 -2.0233  1.6940 -0.4347
   78MOL   H26629680   1.410   5.872   2.291  0.7741 -0.2959  0.3693
   78MOL   H26729681   1.390   5.731   2.072  0.8966  0.0799 -1.8120
   78MOL   C26829682   1.509   5.782   1.850  0.0656  0.1247  0.7104
   78MOL   C26929683   1.624   5.748   1.769 -0.9149 -0.3472  0.0490
   78MOL   O27029684   1.596   5.679   1.890 -0.2151 -0.7962 -0.1325
   78MOL   C27129685   1.760   5.820   1.759 -0.4874 -0.0370 -0.7700
   78MOL   O27229686   1.861   5.715   1.751 -0.2347  0.2006  0.2598
   78MOL   C27329687   1.887   5.662   1.631 -0.1251  0.3081 -0.9220
   78MOL   C27429688   1.830   5.710   1.514 -0.3318  0.0612 -0.4060
   78MOL   C27529689   1.850   5.638   1.395 -0.1096  0.6948  0.2565
   78MOL   C27629690   1.936   5.524   1.384 -0.1405  0.0676 -0.0984
   78MOL   C27729691   2.005   5.489   1.502 -0.1577  0.3685  0.5905
   78MOL   C27829692   1.983   5.551   1.623  0.3356 -0.6455 -0.7046
   78MOL   H27929693   1.410   5.744   1.824  0.0935  0.1020  0.6367
   78MOL   H28029694   1.595   5.690   1.681 -0.1075 -0.2224 -0.3136
   78MOL   H28129695   1.774   5.878   1.850 -0.9595 -0.2889 -0.5375
   78MOL   H28229696   1.752   5.900   1.685  0.1601 -1.5220 -2.4956
   78MOL   H28329697   1.776   5.803   1.502 -0.1380 -0.0545 -2.3832
   78MOL   H28429698   1.809   5.681   1.305 -1.2110 -0.7489  0.0574
   78MOL   H28529699   1.941   5.477   1.287  0.6163 -0.8819  0.3877
   78MOL   H28629700   2.072   5.405   1.499  2.5322  2.5339 -2.2995
   78MOL   C28729701   2.067   5.519   1.745 -0.7296  0.3121 -0.3340
   78MOL   C28829702   2.028   5.443   1.859 -0.2991 -0.2481 -0.6983
   78MOL   O28929703   2.089   5.377   1.748  0.2825  0.0847  0.8303
   78MOL   C29029704   1.885   5.403   1.889  0.3684 -0.2546 -0.5130
   78MOL   O29129705   1.874   5.332   2.009 -0.4437 -0.3291 -0.3887
   78MOL   C29229706   1.750   5.307   2.058 -0.1929 -0.4610  0.1193
   78MOL   C29329707   1.631   5.352   1.993  0.3395  0.1310  0.6892
   78MOL   C29429708   1.507   5.327   2.057 -0.3990  0.6623  0.1124
   78MOL   C29529709   1.496   5.253   2.179 -0.7681  0.4133  0.5711
   78MOL   C29629710   1.612   5.207   2.242  0.1264  0.4747  0.5715
   78MOL   C29729711   1.739   5.242   2.186 -0.4722  0.2391  0.3984
   78MOL   H29829712   2.162   5.571   1.733 -0.1661 -0.5871  0.1357
   78MOL   H29929713   2.079   5.457   1.954  0.4678 -4.0309 -0.4641
   78MOL   H30029714   1.858   5.330   1.813 -2.6100 -2.0920  2.1854
   78MOL   H30129715   1.819   5.490   1.892 -0.0877 -0.6525  1.2915
   78MOL   H30229716   1.628   5.411   1.903 -2.5913  0.6511  1.0817
   78MOL   H30329717   1.418   5.371   2.014  1.3353  3.0007 -1.2515
   78MOL   H30429718   1.397   5.233   2.219 -0.5102  0.5405  1.2708
   78MOL   H30529719   1.605   5.142   2.328  0.3728  0.3129  0.4699
   78MOL   C30629720   1.862   5.189   2.254  0.0988  0.2480 -0.5810
   78MOL   C30729721   1.952   5.275   2.332 -0.6083  0.1794 -0.4839
   78MOL   O30829722   1.863   5.195   2.398  0.0905 -0.1419 -0.0119
   78MOL   C30929723   1.938   5.421   2.361 -0.5604  0.4970 -0.5184
   78MOL   O31029724   1.802   5.462   2.365  0.5003 -0.3179 -0.0455
   78MOL   C31129725   1.785   5.589   2.419  0.2011  0.3958  0.7130
   78MOL   C31229726   1.882   5.689   2.433  0.2387 -0.2286  0.4400
   78MOL   C31329727   1.849   5.814   2.481  0.3373  0.7596 -0.4476
   78MOL   C31429728   1.714   5.847   2.510  0.3106  0.3444  0.0910
   78MOL   C31529729   1.613   5.756   2.488 -0.5534 -0.4428  0.0030
   78MOL   C31629730   1.650   5.623   2.449  0.3825  0.1335 -0.3072
   78MOL   H31729731   1.900   5.092   2.220  0.8958  0.3995 -0.1391
   78MOL   H31829732   2.054   5.238   2.346 -0.7441 -0.2522 -0.6108
   78MOL   H31929733   2.002   5.458   2.281  0.1614 -2.9377 -1.5859
   78MOL   H32029734   1.997   5.444   2.450  0.5838  2.5327 -1.7631
   78MOL   H32129735   1.981   5.678   2.391 -0.4569 -0.9432 -1.0226
   78MOL   H32229736   1.933   5.882   2.492 -1.1278  2.6145 -0.5122
   78MOL   H32329737   1.693   5.947   2.545  0.4101  0.4790 -0.2323
   78MOL   H32429738   1.511   5.782   2.514 -2.0249 -3.4487 -2.4340
   78MOL   C32529739   1.545   5.518   2.442  0.2116 -0.3862 -0.5625
   78MOL   C32629740   1.470   5.466   2.563 -0.3083  0.2887  0.8054
   78MOL   O32729741   1.414   5.567   2.481 -0.3789 -0.5310  0.9115
   78MOL   C32829742   1.480   5.497   2.711  0.8112  1.2253 -0.3693
   78MOL   O32929743   1.359   5.511   2.780 -0.5170  0.5723 -0.0948
   78MOL   C33029744   1.295   5.399   2.818 -0.2638 -0.0271  0.3202
   78MOL   C33129745   1.346   5.267   2.805  0.0415 -0.1576 -0.3122
   78MOL   C33229746   1.272   5.161   2.858  0.2322  1.0402 -0.6750
   78MOL   C33329747   1.141   5.176   2.908 -0.0372 -1.0056  0.4472
   78MOL   C33429748   1.094   5.304   2.927 -1.0234  0.0666 -0.0514
   78MOL   C33529749   1.168   5.416   2.882 -0.5722  0.4983 -0.5671
   78MOL   H33629750   1.541   5.454   2.353 -5.3097 -0.4480 -0.4437
   78MOL   H33729751   1.424   5.368   2.556  2.7078 -1.0781 -1.0126
   78MOL   H33829752   1.529   5.595   2.711 -0.2385  1.7629 -1.2836
   78MOL   H33929753   1.546   5.424   2.757 -2.0383 -0.8392  0.5478
   78MOL   H34029754   1.448   5.247   2.773 -0.3508 -0.8831 -1.1147
   78MOL   H34129755   1.312   5.062   2.874 -1.4306  0.7722  2.3374
   78MOL   H34229756   1.081   5.099   2.955  0.0043 -0.6796  1.0341
   78MOL   H34329757   1.008   5.334   2.986 -0.1399 -0.9256  1.7715
   78MOL   C34429758   1.114   5.561   2.901 -0.4415  0.0015  0.5634
   78MOL   C34529759   1.048   5.642   2.792  0.2626 -0.2138 -1.2584
   78MOL   O34629760   0.970   5.555   2.874 -0.7558 -0.2406 -0.2715
   78MOL   C34729761   1.058   5.604   2.648  0.1156  0.4301  0.4474
   78MOL   O34829762   0.953   5.666   2.579  0.3873  0.4866 -0.3451
   78MOL   C34929763   0.947   5.646   2.443  0.1077  0.6046  0.0108
   78MOL   C35029764   1.059   5.627   2.356  0.6830 -0.1194  0.0360
   78MOL   C35129765   1.032   5.613   2.219  0.1031  0.3730  0.0888
   78MOL   C35229766   0.903   5.614   2.169  0.5658 -0.6048 -0.4478
   78MOL   C35329767   0.796   5.636   2.251  0.2040  0.5802  0.2726
   78MOL   C35429768   0.818   5.653   2.388 -0.1287 -0.2453 -0.0237
   78MOL   H35529769   1.122   5.593   3.005 -0.0288  0.6439  0.3355
   78MOL   H35629770   1.036   5.749   2.799  1.3758 -0.1610  0.1348
   78MOL   H35729771   1.056   5.495   2.642 -0.9452  0.2924  2.5841
   78MOL   H35829772   1.153   5.645   2.616  0.8658  0.2039  2.3091
   78MOL   H35929773   1.162   5.619   2.388  0.8532 -1.2991 -0.7612
   78MOL   H36029774   1.114   5.594   2.152 -0.5436 -0.7003 -0.4180
   78MOL   H36129775   0.884   5.600   2.063 -2.1843  1.4126 -0.2952
   78MOL   H36229776   0.708   5.643   2.189  0.8723 -0.6435 -0.8534
   78MOL   C36329777   0.700   5.680   2.481  0.3862 -0.1457 -0.1689
   78MOL   C36429778   0.670   5.804   2.560  0.2073  0.0895 -0.5469
   78MOL   O36529779   0.619   5.784   2.428  0.4172 -0.4261 -0.2702
   78MOL   C36629780   0.774   5.907   2.567 -0.5115  0.7227  0.6146
   78MOL   O36729781   0.733   6.028   2.627 -0.5141 -0.2898  0.5278
   78MOL   C36829782   0.644   6.111   2.565 -0.1020  0.0955  0.3267
   78MOL   C36929783   0.641   6.126   2.428 -0.4366 -0.1093 -0.0842
   78MOL   C37029784   0.548   6.216   2.373  0.3822 -0.0623  0.6589
   78MOL   C37129785   0.452   6.285   2.457  0.3486  0.9419  0.6016
   78MOL   C37229786   0.447   6.255   2.597 -0.3782  0.9695 -0.2472
   78MOL   C37329787   0.550   6.174   2.649 -0.0269 -0.1784  0.7177
   78MOL   H37429788   0.646   5.589   2.506 -3.1594  2.6603  3.0122
   78MOL   H37529789   0.590   5.807   2.634  0.1469 -0.9766 -0.5685
   78MOL   H37629790   0.835   5.908   2.477 -1.3413 -3.3367 -0.0784
   78MOL   H37729791   0.855   5.873   2.632 -0.4351 -0.1550  0.0582
   78MOL   H37829792   0.713   6.071   2.369 -0.3236 -0.9836  0.8487
   78MOL   H37929793   0.555   6.243   2.268  0.3937 -0.2311  0.6161
   78MOL   H38029794   0.384   6.358   2.415  1.0987  0.9551 -0.6280
   78MOL   H38129795   0.372   6.295   2.665  1.1775  2.6987  0.5019
   78MOL   H38229796   0.541   6.144   2.752  0.6336  1.4164  1.2544
   79MOL     C129797   4.697   4.512   0.197 -0.0907  0.7179  0.7472
   79MOL     C229798   4.622   4.383   0.205 -0.5568  0.0126  0.1299
   79MOL     O329799   4.762   4.384   0.204  0.0107  0.1491  0.4147
   79MOL     C429800   4.549   4.334   0.090 -0.0174 -0.1211 -0.2030
   79MOL     O529801   4.581   4.412   8.142  0.5024 -0.1556 -0.0309
   79MOL     C629802   4.493   4.395   8.041 -0.2859  0.0234  0.4951
   79MOL     C729803   4.483   4.273   7.965 -0.0810  0.2847 -0.0169
   79MOL     C829804   4.399   4.269   7.855  0.0343 -0.3380 -0.0177
   79MOL     C929805   4.317   4.381   7.820 -0.4617 -0.1907 -0.4022
   79MOL    C1029806   4.325   4.504   7.895  0.1981 -0.4345 -0.4106
   79MOL    C1129807   4.423   4.510   7.996  0.3903 -0.2031 -0.4143
   79MOL    H1229808   4.699   4.569   0.289 -1.3818  0.6967  0.8097
   79MOL    H1329809   4.580   4.352   0.301  2.7745  0.4036  1.7931
   79MOL    H1429810   4.445   4.348   0.120  0.0544 -2.4576  1.3174
   79MOL    H1529811   4.559   4.228   0.066  2.4204  0.1110 -0.3254
   79MOL    H1629812   4.542   4.188   7.996 -0.9458 -0.7638 -1.1930
   79MOL    H1729813   4.404   4.186   7.787 -0.8301  1.7947 -2.7422
   79MOL    H1829814   4.260   4.370   7.729 -1.1977 -0.9867  0.1376
   79MOL    H1929815   4.262   4.584   7.859  1.2591  0.9173  0.6701
   79MOL    H2029816   4.725   4.565   0.106 -0.8493 -0.2047 -0.0363
   79MOL    C2129817   4.444   4.640   8.062  0.0232 -0.2512  0.0356
   79MOL    C2229818   4.567   4.733   8.044 -0.4238  0.1388  0.0794
   79MOL    O2329819   4.445   4.757   7.971 -0.6405 -0.2625  0.0118
   79MOL    C2429820   4.688   4.685   7.969 -0.7097 -0.1578  0.2924
   79MOL    O2529821   4.782   4.793   7.966 -0.0169  0.3831 -0.1034
   79MOL    C2629822   4.808   4.839   7.844 -0.2467  0.0978  0.7128
   79MOL    C2729823   4.716   4.859   7.746  0.0548  0.5350  0.5534
   79MOL    C2829824   4.755   4.905   7.620  0.6170  0.6979 -0.3344
   79MOL    C2929825   4.888   4.934   7.595  0.0208 -1.0540  0.0145
   79MOL    C3029826   4.977   4.926   7.698 -0.0486 -0.1371  0.1931
   79MOL    C3129827   4.941   4.878   7.825  0.3951 -1.0737  0.4719
   79MOL    H3229828   4.386   4.647   8.154  0.2201  0.1747  0.1324
   79MOL    H3329829   4.587   4.808   8.120  0.4271  0.6255 -0.6181
   79MOL    H3429830   4.661   4.634   7.876  3.3287 -2.0111  0.0612
   79MOL    H3529831   4.736   4.609   8.030  2.2849  0.3781 -1.3459
   79MOL    H3629832   4.609   4.847   7.756 -0.0708  0.7009 -0.5601
   79MOL    H3729833   4.674   4.900   7.548  1.6865  0.3892 -1.5258
   79MOL    H3829834   4.932   4.958   7.499  0.0536 -0.5729  0.1488
   79MOL    H3929835   5.083   4.938   7.682  0.0058  0.8617  1.2373
   79MOL    C4029836   5.050   4.849   7.922 -0.2388 -0.3668 -0.3398
   79MOL    C4129837   5.131   4.718   7.936 -0.2671  0.0216  0.1808
   79MOL    O4229838   5.172   4.829   7.861  0.0624 -0.0189 -0.2235
   79MOL    C4329839   5.071   4.590   7.872  0.9772  0.0888  0.3647
   79MOL    O4429840   5.152   4.475   7.903  0.1077  0.1496 -0.2602
   79MOL    C4529841   5.133   4.430   8.030 -0.4518 -0.1583 -0.6593
   79MOL    C4629842   5.048   4.482   8.133 -0.2679 -0.4995 -0.1505
   79MOL    C4729843   5.053   4.433   0.094  0.1074 -1.1489 -0.2826
   79MOL    C4829844   5.124   4.318   0.125 -0.3483  0.4927 -0.1155
   79MOL    C4929845   5.195   4.256   0.020 -0.0212  0.6591  0.6695
   79MOL    C5029846   5.206   4.312   8.060  0.6942  0.0849  0.7548
   79MOL    H5129847   5.058   4.918   8.006  0.7670 -1.2541  0.3105
   79MOL    H5229848   5.180   4.699   8.031 -0.5247 -0.9682  0.1243
   79MOL    H5329849   5.079   4.610   7.765  0.3211 -0.5415  0.1952
   79MOL    H5429850   4.965   4.571   7.886  0.2016  3.4840 -0.6743
   79MOL    H5529851   4.984   4.564   8.103  0.1121  0.0846  0.6282
   79MOL    H5629852   4.994   4.479   0.172  0.3977 -0.9646 -0.1722
   79MOL    H5729853   5.117   4.266   0.219 -2.0806 -1.9474 -1.5272
   79MOL    H5829854   5.265   4.175   0.035 -0.9925 -0.7270 -2.0094
   79MOL    C5929855   5.304   4.256   7.958  0.2939 -0.6833  0.6101
   79MOL    C6029856   5.436   4.315   7.924 -0.7409 -0.7303  0.2452
   79MOL    O6129857   5.426   4.202   8.011  0.1400 -0.1838  1.1701
   79MOL    C6229858   5.479   4.444   7.998 -0.0021 -0.3701  0.2693
   79MOL    O6329859   5.616   4.457   7.967  0.3495 -0.3597 -0.7058
   79MOL    C6429860   5.641   4.528   7.848 -0.2988  0.3384  0.5363
   79MOL    C6529861   5.556   4.559   7.733 -1.0289 -0.1259 -0.2571
   79MOL    C6629862   5.607   4.613   7.615  0.1991  0.1258 -0.3883
   79MOL    C6729863   5.742   4.644   7.609 -0.5069  0.7911  0.0399
   79MOL    C6829864   5.824   4.625   7.722  0.1381  0.8955 -0.3987
   79MOL    C6929865   5.773   4.574   7.839 -0.1427  0.6677 -0.1942
   79MOL    H7029866   5.251   4.211   7.874 -0.6694  0.9967  0.3050
   79MOL    H7129867   5.488   4.286   7.833 -3.3042 -1.2587 -1.0716
   79MOL    H7229868   5.462   4.430   8.104 -1.9979  0.7500  0.1255
   79MOL    H7329869   5.424   4.530   7.959  1.0178  0.0478 -0.2719
   79MOL    H7429870   5.454   4.526   7.727 -0.9510 -0.7866  1.6195
   79MOL    H7529871   5.537   4.621   7.534 -1.2706  1.7976  0.9990
   79MOL    H7629872   5.791   4.665   7.515 -0.0685 -0.5415 -0.0349
   79MOL    H7729873   5.928   4.648   7.705  0.6982 -1.1297  0.2011
   79MOL    C7829874   5.867   4.530   7.948  0.7470  0.1055 -0.0406
   79MOL    C7929875   5.918   4.390   7.947  0.3693 -0.2330  0.5471
   79MOL    O8029876   5.993   4.502   7.897 -0.1186  0.7026 -0.6338
   79MOL    C8129877   5.876   4.288   7.836  0.3011 -0.0781  0.3068
   79MOL    O8229878   5.935   4.158   7.843 -0.5106  0.4604  0.0340
   79MOL    C8329879   5.885   4.060   7.933 -0.4671  0.0582  0.3880
   79MOL    C8429880   5.770   4.079   8.012 -0.1487 -0.2755 -0.3389
   79MOL    C8529881   5.737   3.972   8.096  0.2509  0.3494  0.7586
   79MOL    C8629882   5.816   3.855   8.102  0.2455 -0.2376  0.1124
   79MOL    C8729883   5.931   3.840   8.027 -0.0675 -0.2928 -0.5840
   79MOL    C8829884   5.963   3.942   7.937 -0.2011 -0.5870 -0.6161
   79MOL    H8929885   5.867   4.598   8.033  1.0335  3.5329 -2.6587
   79MOL    H9029886   5.963   4.352   8.039 -0.2300 -1.5238  0.3154
   79MOL    H9129887   5.894   4.330   7.737  0.3767 -2.7083 -0.8372
   79MOL    H9229888   5.769   4.271   7.846  0.2117  0.5832  0.5469
   79MOL    H9329889   5.703   4.164   8.009  2.2311  1.5895 -1.7337
   79MOL    H9429890   5.645   3.971   8.152  1.5692  0.4311  3.0048
   79MOL    H9529891   5.780   3.776   8.167  1.9821 -1.6737 -0.6308
   79MOL    H9629892   5.994   3.753   8.038 -0.1535 -0.1199  1.3891
   79MOL    C9729893   6.077   3.928   7.838 -0.1503 -0.6901  0.1006
   79MOL    C9829894   6.214   3.994   7.852  1.1199 -0.7473 -0.1141
   79MOL    O9929895   6.191   3.854   7.882  0.1215 -0.0141 -0.3547
   79MOL   C10029896   6.234   4.089   7.968  0.1021 -0.0809  0.2241
   79MOL   O10129897   6.374   4.085   7.988 -0.2656 -0.0223 -0.4318
   79MOL   C10229898   6.455   4.158   7.905 -0.3293 -0.7222  0.5584
   79MOL   C10329899   6.405   4.264   7.815 -0.7604 -0.8554 -0.6158
   79MOL   C10429900   6.495   4.322   7.725 -0.7004  0.0032 -0.4692
   79MOL   C10529901   6.635   4.295   7.738  0.8081  0.0949 -0.5762
   79MOL   C10629902   6.679   4.190   7.822  0.2336 -0.0379  0.6409
   79MOL   C10729903   6.592   4.118   7.903 -0.3919  0.0968  0.5548
   79MOL   H10829904   6.028   3.884   7.752  0.0644  0.0266 -0.3984
   79MOL   H10929905   6.279   3.999   7.765 -0.6701  0.1183 -1.4321
   79MOL   H11029906   6.185   4.050   8.057 -1.3164 -0.0572 -0.5468
   79MOL   H11129907   6.197   4.190   7.950  1.7685  0.8641  1.9275
   79MOL   H11229908   6.301   4.283   7.793 -0.5115  0.2006 -0.8810
   79MOL   H11329909   6.465   4.395   7.651  0.5146 -0.2706 -1.2437
   79MOL   H11429910   6.699   4.357   7.678  1.6345 -0.7787 -0.6020
   79MOL   H11529911   6.786   4.174   7.812  0.4697  3.0469 -2.8003
   79MOL   C11629912   6.634   4.000   7.987  0.2913 -0.6614 -0.3757
   79MOL   C11729913   6.624   3.856   7.948 -0.3623 -0.2347  1.2269
   79MOL   O11829914   6.741   3.935   7.918 -0.8438 -0.5498 -0.0171
   79MOL   C11929915   6.574   3.794   7.811  0.3527  0.1316 -0.2028
   79MOL   O12029916   6.643   3.677   7.773  0.1046 -0.2490  0.0583
   79MOL   C12129917   6.632   3.567   7.848  0.6288  0.8313 -0.2264
   79MOL   C12229918   6.536   3.548   7.953  0.1954 -0.2122  0.3763
   79MOL   C12329919   6.524   3.429   8.019  0.3663 -0.2697  0.6217
   79MOL   C12429920   6.605   3.320   7.984 -0.3129 -0.2317 -0.2220
   79MOL   C12529921   6.699   3.339   7.882 -0.1530  0.0255 -0.1812
   79MOL   C12629922   6.723   3.462   7.818 -0.7883 -0.9070  0.0434
   79MOL   H12729923   6.650   4.022   8.092 -1.1325 -2.4278  0.2345
   79MOL   H12829924   6.636   3.792   8.034 -2.2534 -0.8892  1.0413
   79MOL   H12929925   6.586   3.869   7.733  0.6365 -0.4961 -0.7622
   79MOL   H13029926   6.466   3.779   7.815  0.3857 -0.8831 -2.4700
   79MOL   H13129927   6.462   3.623   7.975  0.2793 -0.5571  1.8519
   79MOL   H13229928   6.445   3.414   8.092 -0.8803 -0.5307 -0.7719
   79MOL   H13329929   6.592   3.222   8.027 -1.5661 -0.7733 -1.7903
   79MOL   H13429930   6.757   3.260   7.838 -0.7266  0.0397 -0.9763
   79MOL   C13529931   6.824   3.476   7.710 -0.0140  0.3535  0.4836
   79MOL   C13629932   6.936   3.572   7.699 -0.2346 -0.3995  0.5758
   79MOL   O13729933   6.955   3.445   7.758 -0.6473  0.1636  0.2115
   79MOL   C13829934   6.943   3.686   7.804 -0.7243  0.4659  0.1400
   79MOL   O13929935   7.073   3.736   7.803  0.1265  0.3785 -0.2670
   79MOL   C14029936   7.164   3.693   7.898  0.7464  0.6048 -0.5124
   79MOL   C14129937   7.131   3.586   7.987  0.2196  0.9880  0.8582
   79MOL   C14229938   7.233   3.558   8.089  0.2575  0.4895 -0.0806
   79MOL   C14329939   7.356   3.627   8.099 -0.4816 -0.3484  0.0727
   79MOL   C14429940   7.377   3.739   8.013  0.0661 -0.1449 -0.0967
   79MOL   C14529941   7.280   3.770   7.916 -0.0321  0.6307 -0.2887
   79MOL   H14629942   6.786   3.434   7.618  0.5275  1.2582 -0.1600
   79MOL   H14729943   7.001   3.575   7.612  0.4702  0.3308  1.1221
   79MOL   H14829944   6.903   3.650   7.899 -1.5166  0.0282 -0.3620
   79MOL   H14929945   6.886   3.771   7.766  1.2724  1.8031  0.0578
   79MOL   H15029946   7.037   3.534   7.977  0.1338  1.3027 -0.0608
   79MOL   H15129947   7.214   3.477   8.157 -0.0419  0.9258  0.3643
   79MOL   H15229948   7.433   3.599   8.169 -0.1186 -1.7738 -0.8768
   79MOL   H15329949   7.469   3.794   8.015  0.4382 -0.7809  2.4495
   79MOL   C15429950   7.305   3.885   7.829 -0.0977 -0.7390  0.0252
   79MOL   C15529951   7.233   4.026   7.827  0.2019 -0.4909  0.0748
   79MOL   O15629952   7.356   3.996   7.902  0.4483 -0.0918  0.5663
   79MOL   C15729953   7.107   4.064   7.905  0.1942 -0.2582  0.4661
   79MOL   O15829954   7.093   4.205   7.918  0.7347 -0.3755 -0.0419
   79MOL   C15929955   7.014   4.264   8.017 -0.5782  0.0127 -0.3633
   79MOL   C16029956   6.926   4.184   8.096 -0.5925 -0.6640 -0.1615
   79MOL   C16129957   6.855   4.249   0.031 -0.6255 -0.0978  0.2510
   79MOL   C16229958   6.874   4.388   0.057  0.5373  0.5147 -0.3345
   79MOL   C16329959   6.961   4.461   8.151 -0.0688 -0.3165 -0.0304
   79MOL   C16429960   7.038   4.400   8.051 -0.2453 -0.1701  0.1571
   79MOL   H16529961   7.371   3.868   7.744  0.2928  1.3121 -0.1041
   79MOL   H16629962   7.249   4.083   7.735 -0.0018  0.7672  0.8036
   79MOL   H16729963   7.104   3.999   7.992 -1.6600 -0.8089  0.0162
   79MOL   H16829964   7.024   4.023   7.847 -1.7218 -1.8836  4.1785
   79MOL   H16929965   6.901   4.083   8.068 -0.2167 -0.7854 -0.0614
   79MOL   H17029966   6.786   4.193   0.094 -1.1838 -0.0596 -0.3217
   79MOL   H17129967   6.811   4.432   0.133  1.7909 -0.1396  1.1079
   79MOL   H17229968   6.972   4.566   0.005 -1.5760 -0.3704  1.0144
   79MOL   C17329969   7.146   4.463   7.978  0.2852 -1.0576 -0.0988
   79MOL   C17429970   7.127   4.536   7.842  0.0937 -0.5107  0.2900
   79MOL   O17529971   7.131   4.605   7.970  0.3976  0.3260 -0.0167
   79MOL   C17629972   6.994   4.549   7.767  0.7064  0.1862  0.1859
   79MOL   O17729973   7.000   4.653   7.670 -0.2351 -0.5950  0.4786
   79MOL   C17829974   6.952   4.782   7.694 -0.2695  0.4082  0.4538
   79MOL   C17929975   6.946   4.837   7.826 -0.6367 -0.1200  0.0787
   79MOL   C18029976   6.889   4.962   7.848 -0.2811 -0.6518 -0.0711
   79MOL   C18129977   6.864   5.044   7.740  0.2107  0.1590 -0.0833
   79MOL   C18229978   6.868   4.998   7.606 -0.3765  0.0474 -0.0823
   79MOL   C18329979   6.917   4.865   7.588  0.2079 -0.2196 -0.1460
   79MOL   H18429980   7.247   4.436   8.009  1.5386  1.0965 -2.1902
   79MOL   H18529981   7.220   4.536   7.786 -1.6242  0.4112 -2.6505
   79MOL   H18629982   6.912   4.546   7.839  1.4483 -0.2293  1.0375
   79MOL   H18729983   6.982   4.463   7.702 -0.5209  0.6780 -0.2403
   79MOL   H18829984   6.977   4.786   7.916 -1.2551 -1.7604 -0.5965
   79MOL   H18929985   6.879   4.997   7.950 -0.6259 -3.4574  0.9231
   79MOL   H19029986   6.842   5.149   7.746  2.7708  0.8542 -1.8996
   79MOL   H19129987   6.844   5.064   7.524  1.6884 -0.5162 -1.1596
   79MOL   C19229988   6.890   4.802   7.453 -0.2587  0.4396 -0.4197
   79MOL   C19329989   6.786   4.700   7.412  0.1594 -0.3993  0.6575
   79MOL   O19429990   6.757   4.835   7.406 -0.8196  0.6885 -0.5253
   79MOL   C19529991   6.702   4.613   7.506 -0.1200  0.2261 -0.6515
   79MOL   O19629992   6.566   4.602   7.479 -0.3455 -0.1309 -0.5029
   79MOL   C19729993   6.522   4.542   7.360  0.3625 -0.0072  0.1233
   79MOL   C19829994   6.602   4.460   7.275  0.0027 -0.3819  0.6666
   79MOL   C19929995   6.565   4.410   7.151  0.7040  0.5404 -0.1513
   79MOL   C20029996   6.429   4.431   7.112  0.0793  0.0647 -0.3094
   79MOL   C20129997   6.342   4.517   7.190  1.0252 -0.1992 -0.7256
   79MOL   C20229998   6.391   4.567   7.312 -0.4888  0.2945 -0.0564
   79MOL   H20329999   6.965   4.829   7.379 -1.0994 -0.4473 -1.6161
   79MOL   H20430000   6.784   4.671   7.308 -1.8807 -0.7913  0.7762
   79MOL   H20530001   6.716   4.651   7.607 -0.5941 -2.0020  0.2900
   79MOL   H20630002   6.738   4.511   7.517  0.7319  0.5824 -0.0610
   79MOL   H20730003   6.697   4.431   7.316  0.6531  0.7099 -0.0378
   79MOL   H20830004   6.642   4.367   7.089  0.1977 -1.9230  0.8536
   79MOL   H20930005   6.387   4.415   7.015 -0.7709 -0.1796  0.0963
   79MOL   H21030006   6.244   4.541   7.151  0.6009  0.7111  0.8458
   79MOL   C21130007   6.299   4.633   7.406  0.5175 -0.1795  0.6479
   79MOL   C21230008   6.276   4.785   7.413  0.0281  0.4969 -0.2076
   79MOL   O21330009   6.191   4.695   7.329 -0.2422 -0.6561 -0.2405
   79MOL   C21430010   6.372   4.886   7.345 -0.2483  0.2128 -0.0676
   79MOL   O21530011   6.380   5.003   7.424 -0.1677  0.5081  0.0294
   79MOL   C21630012   6.486   5.088   7.409  0.2773 -0.0476 -0.1283
   79MOL   C21730013   6.562   5.104   7.289 -0.2406 -0.4038 -0.1061
   79MOL   C21830014   6.659   5.205   7.277  0.6278  1.1788  0.3517
   79MOL   C21930015   6.682   5.296   7.382 -0.9347 -0.0693 -0.2362
   79MOL   C22030016   6.612   5.281   7.500 -1.2890 -0.0269  0.1170
   79MOL   C22130017   6.508   5.181   7.511 -0.3425 -0.0404 -0.4064
   79MOL   H22230018   6.263   4.577   7.493 -0.7230 -0.4961 -0.0568
   79MOL   H22330019   6.221   4.824   7.498  2.0145  0.5927  1.0646
   79MOL   H22430020   6.325   4.929   7.257  0.0767  1.1107  0.1908
   79MOL   H22530021   6.464   4.837   7.313  0.1286  1.8896 -1.6573
   79MOL   H22630022   6.548   5.038   7.205 -1.1426 -0.6534  0.2380
   79MOL   H22730023   6.718   5.203   7.186  1.0142 -0.4987  0.6175
   79MOL   H22830024   6.763   5.365   7.366 -0.8513  0.0550  0.7396
   79MOL   H22930025   6.635   5.350   7.580  1.1629  1.9506 -2.1776
   79MOL   C23030026   6.429   5.167   7.640  0.0152  0.4728  0.0859
   79MOL   C23130027   6.437   5.049   7.728 -0.4481  0.7961 -0.3991
   79MOL   O23230028   6.507   5.165   7.759  0.2636 -0.1838 -0.5132
   79MOL   C23330029   6.537   4.932   7.699  0.4931  0.3055 -1.2733
   79MOL   O23430030   6.577   4.857   7.812 -0.4508  0.0371 -0.2765
   79MOL   C23530031   6.482   4.777   7.871  0.0833  0.6744 -0.1896
   79MOL   C23630032   6.358   4.742   7.808  0.4768  0.2393  0.1129
   79MOL   C23730033   6.263   4.662   7.881 -0.6582 -0.0027 -0.1890
   79MOL   C23830034   6.293   4.615   8.009 -0.8919 -0.2032  0.0124
   79MOL   C23930035   6.416   4.647   8.075  0.6356  0.4687  0.4328
   79MOL   C24030036   6.509   4.729   8.001 -0.9184 -0.1809  0.9035
   79MOL   H24130037   6.333   5.218   7.635 -1.2404 -1.6438  1.5431
   79MOL   H24230038   6.346   5.022   7.781 -1.4717  0.8990 -2.0611
   79MOL   H24330039   6.624   4.978   7.653  0.9882  1.9635  1.2305
   79MOL   H24430040   6.502   4.873   7.615  0.4146 -0.8396 -0.4399
   79MOL   H24530041   6.334   4.770   7.707  0.0367 -1.8474 -0.3869
   79MOL   H24630042   6.171   4.648   7.826 -0.3446 -1.2063 -0.4225
   79MOL   H24730043   6.221   4.564   8.071 -1.9259  1.0375 -0.1523
   79MOL   H24830044   6.437   4.613   0.006  0.6203 -0.6947  0.0463
   79MOL   C24930045   6.644   4.762   8.061  0.1481  0.2961  0.1207
   79MOL   C25030046   6.664   4.858   0.004 -0.4207  0.6544 -0.2164
   79MOL   O25130047   6.651   4.718   0.028 -0.3546  0.4661 -0.1346
   79MOL   C25230048   6.554   4.944   0.056 -0.0025  1.1574 -0.3814
   79MOL   O25330049   6.593   5.067   0.116 -0.1851 -0.9742 -0.5419
   79MOL   C25430050   6.531   5.182   0.067  0.1253 -0.4434  0.2521
   79MOL   C25530051   6.476   5.190   8.101 -0.7190  0.6079 -0.9182
   79MOL   C25630052   6.404   5.307   8.062 -0.3528  0.3792  0.5745
   79MOL   C25730053   6.371   5.398   8.164 -0.1752  0.1458 -0.0286
   79MOL   C25830054   6.431   5.391   0.120 -0.2725 -0.2979  0.3084
   79MOL   C25930055   6.514   5.291   0.159 -0.6953  0.3358  0.1980
   79MOL   H26030056   6.734   4.734   8.007  0.8234  1.4327  0.6218
   79MOL   H26130057   6.765   4.893   0.024 -0.9644  1.7581  0.6233
   79MOL   H26230058   6.522   4.887   0.143  0.1118  0.4544 -0.7916
   79MOL   H26330059   6.469   4.939   8.157  0.6616 -1.8430 -1.0474
   79MOL   H26430060   6.502   5.112   8.031  0.4866 -1.4907  1.7597
   79MOL   H26530061   6.372   5.319   7.960  1.9343  1.4530 -0.0293
   79MOL   H26630062   6.313   5.487   8.144  1.4795  1.6341  1.6667
   79MOL   H26730063   6.409   5.465   0.196  0.7638  1.5005 -1.1165
   79MOL   C26830064   6.590   5.297   0.289 -0.2144  0.1129 -0.3959
   79MOL   C26930065   6.729   5.353   0.295  0.3612 -0.4131 -0.5839
   79MOL   O27030066   6.624   5.436   0.321 -0.2728 -0.5271  0.3163
   79MOL   C27130067   6.801   5.408   0.178 -0.0207 -0.1401 -0.3536
   79MOL   O27230068   6.876   5.521   0.218 -0.7212 -0.1596  0.0362
   79MOL   C27330069   6.985   5.524   0.298  0.3047  0.8306 -0.3242
   79MOL   C27430070   7.032   5.405   0.361  0.0541  0.3085  0.6058
   79MOL   C27530071   7.137   5.415   0.456 -0.2278 -0.3231  0.6776
   79MOL   C27630072   7.193   5.542   0.480  0.1688 -0.6279 -0.3318
   79MOL   C27730073   7.148   5.654   0.409 -0.2788 -0.3703  0.3575
   79MOL   C27830074   7.040   5.645   0.320 -0.3334  0.4688 -0.0421
   79MOL   H27930075   6.564   5.240   0.378  2.1026  0.3608  0.4920
   79MOL   H28030076   6.789   5.323   0.381  0.0139 -0.9244 -0.5193
   79MOL   H28130077   6.731   5.444   0.103  0.2630  1.8066  0.2884
   79MOL   H28230078   6.864   5.325   0.145  0.6523  0.4474 -0.5544
   79MOL   H28330079   6.997   5.303   0.354 -1.3518  0.6125  2.6178
   79MOL   H28430080   7.166   5.330   0.517 -2.5736 -1.4244  0.3230
   79MOL   H28530081   7.274   5.545   0.550 -0.6985 -0.3451  0.6742
   79MOL   H28630082   7.186   5.753   0.432  0.1831 -0.9033  1.9587
   79MOL   C28730083   6.990   5.770   0.249  0.9650  0.5610  0.0717
   79MOL   C28830084   6.855   5.845   0.276  0.6799  0.4390 -0.4385
   79MOL   O28930085   6.975   5.869   0.343  1.0857  0.2090  0.5301
   79MOL   C29030086   6.736   5.783   0.362  0.1555  0.1269  0.4948
   79MOL   O29130087   6.677   5.885   0.440 -0.3743  0.1868 -0.0597
   79MOL   C29230088   6.587   5.855   0.536  0.0373  0.0254 -0.3415
   79MOL   C29330089   6.542   5.725   0.560  0.2693  0.2311  0.2517
   79MOL   C29430090   6.452   5.697   0.667 -0.3424  1.3488  0.3657
   79MOL   C29530091   6.411   5.797   0.751  0.1233  0.0550 -0.3268
   79MOL   C29630092   6.450   5.928   0.718  0.7861 -0.0031 -0.1901
   79MOL   C29730093   6.535   5.959   0.610 -0.9030  0.5443 -0.4319
   79MOL   H29830094   7.022   5.790   0.147  0.0715  0.1182 -0.3029
   79MOL   H29930095   6.838   5.928   0.208  0.7748  0.5666 -0.3083
   79MOL   H30030096   6.774   5.708   0.431  0.6091 -0.1893 -0.0885
   79MOL   H30130097   6.663   5.739   0.294 -1.0970  0.9336  1.2919
   79MOL   H30230098   6.570   5.650   0.487 -0.6544  0.9547 -0.8664
   79MOL   H30330099   6.427   5.595   0.691  1.0282  0.9461  0.0795
   79MOL   H30430100   6.366   5.775   0.846 -1.3033 -0.3461 -1.0810
   79MOL   H30530101   6.420   6.006   0.786  1.3538 -0.4753  0.6036
   79MOL   C30630102   6.577   6.097   0.582 -0.5237  0.1393 -0.3495
   79MOL   C30730103   6.488   6.189   0.497  0.0827  0.9661  0.9430
   79MOL   O30830104   6.492   6.195   0.638 -0.1247  0.3727 -0.1258
   79MOL   C30930105   6.348   6.144   0.427 -0.0125 -0.0241  0.0637
   79MOL   O31030106   6.346   6.198   0.290  0.8937 -0.4823 -0.3639
   79MOL   C31130107   6.302   6.329   0.267 -0.1094 -0.2993  0.5069
   79MOL   C31230108   6.250   6.411   0.373  0.2247  0.0257 -0.2000
   79MOL   C31330109   6.191   6.535   0.346 -0.4918  0.4474  0.8626
   79MOL   C31430110   6.177   6.580   0.211 -0.4303 -0.0871  0.5006
   79MOL   C31530111   6.226   6.494   0.109 -0.7621 -1.0952  0.0169
   79MOL   C31630112   6.284   6.374   0.131 -0.1915 -0.0331  0.1682
   79MOL   H31730113   6.683   6.113   0.599 -1.0293  1.2431  1.9556
   79MOL   H31830114   6.531   6.280   0.456  1.3706  0.3958  0.9978
   79MOL   H31930115   6.255   6.169   0.479  0.5486 -0.5953  1.3615
   79MOL   H32030116   6.354   6.035   0.431  0.4177 -0.0177 -0.2945
   79MOL   H32130117   6.259   6.383   0.477 -1.5619  1.4714  0.3686
   79MOL   H32230118   6.164   6.596   0.431  2.6703  1.4012  1.2555
   79MOL   H32330119   6.136   6.677   0.189  0.7143  0.7912  2.1173
   79MOL   H32430120   6.213   6.542   0.013 -3.5331 -3.0257 -0.6524
   79MOL   C32530121   6.350   6.295   0.018  0.2689  0.3496 -0.0856
   79MOL   C32630122   6.276   6.252   8.068  0.4102  0.4525 -0.2523
   79MOL   O32730123   6.349   6.369   8.064 -0.0670  0.0616  0.0773
   79MOL   C32830124   6.120   6.258   8.051 -0.4526 -0.0850 -0.6011
   79MOL   O32930125   6.088   6.206   7.919 -0.1684  0.0043 -0.2556
   79MOL   C33030126   5.966   6.235   7.870  0.0163 -0.1666 -0.1088
   79MOL   C33130127   5.856   6.283   7.946 -0.3536  0.2684 -0.0795
   79MOL   C33230128   5.737   6.328   7.888  0.4155 -0.5470  0.4077
   79MOL   C33330129   5.722   6.317   7.748 -0.2170  0.4368 -0.2715
   79MOL   C33430130   5.826   6.255   7.671 -0.3339 -0.1314  0.0818
   79MOL   C33530131   5.947   6.223   7.731 -0.8049  0.2485 -0.2703
   79MOL   H33630132   6.451   6.264   0.043 -0.1203 -0.1143  0.9419
   79MOL   H33730133   6.325   6.177   8.006  2.4153  0.0780  1.7565
   79MOL   H33830134   6.073   6.356   8.057 -0.2818 -0.0098 -0.4875
   79MOL   H33930135   6.069   6.207   8.133  2.2580 -3.0335 -0.6185
   79MOL   H34030136   5.871   6.301   8.051 -2.2441 -2.2237  0.6696
   79MOL   H34130137   5.652   6.372   7.939 -1.2611 -0.2654 -2.5005
   79MOL   H34230138   5.625   6.338   7.706 -0.3544  0.6907  0.1668
   79MOL   H34330139   5.816   6.239   7.564  0.5124 -2.7805  0.3641
   79MOL   C34430140   6.053   6.158   7.636  0.0887  0.0808  0.2632
   79MOL   C34530141   6.099   6.009   7.640  0.9200 -0.1925  0.5071
   79MOL   O34630142   6.006   6.061   7.537  0.1703 -0.2292 -0.2642
   79MOL   C34730143   6.040   5.913   7.745  0.6310 -0.0919 -0.0538
   79MOL   O34830144   6.114   5.795   7.755  0.2334  0.0895 -0.6381
   79MOL   C34930145   6.225   5.786   7.844 -0.3976  1.1724  0.9365
   79MOL   C35030146   6.260   5.896   7.925  0.1180 -0.3949 -0.7734
   79MOL   C35130147   6.366   5.883   8.019  0.1085  0.7613  0.1098
   79MOL   C35230148   6.445   5.772   8.021  0.0789 -0.6304  0.5203
   79MOL   C35330149   6.418   5.667   7.941  0.3978 -0.1911 -0.0224
   79MOL   C35430150   6.314   5.673   7.851  0.6344  0.4668 -0.1848
   79MOL   H35530151   6.104   6.239   7.585  0.8708  0.3229  1.3956
   79MOL   H35630152   6.200   5.993   7.604 -0.1556 -0.7208 -2.3895
   79MOL   H35730153   5.953   5.877   7.689  2.0361 -1.4231 -1.4210
   79MOL   H35830154   6.011   5.962   7.838  0.5641 -0.2419  0.0042
   79MOL   H35930155   6.209   5.991   7.920 -0.4201 -0.5948  0.9214
   79MOL   H36030156   6.399   5.962   8.085  0.2849  1.2275 -0.5292
   79MOL   H36130157   6.535   5.763   8.080  0.2621 -3.8275 -0.1319
   79MOL   H36230158   6.483   5.581   7.943  0.1307 -0.4146 -0.9149
   79MOL   C36330159   6.291   5.550   7.764 -0.1368 -1.3709 -1.0548
   79MOL   C36430160   6.326   5.553   7.619 -0.1244  0.1509 -0.7294
   79MOL   O36530161   6.419   5.501   7.716 -0.0032 -0.3744 -0.6418
   79MOL   C36630162   6.386   5.669   7.542  0.4000  0.1576  0.3058
   79MOL   O36730163   6.431   5.630   7.411 -0.3309  0.4769 -0.1697
   79MOL   C36830164   6.334   5.617   7.312  0.3980 -0.1649 -0.4220
   79MOL   C36930165   6.341   5.504   7.225 -0.3808 -0.5244  0.2553
   79MOL   C37030166   6.245   5.480   7.130  0.8787 -0.6969  0.4165
   79MOL   C37130167   6.150   5.577   7.111  0.8274 -0.0530  0.3317
   79MOL   C37230168   6.133   5.685   7.197  0.4590 -0.3655  0.0681
   79MOL   C37330169   6.216   5.702   7.305  0.2342  0.0699 -0.1089
   79MOL   H37430170   6.224   5.482   7.815 -0.7266  0.4287  0.6381
   79MOL   H37530171   6.266   5.478   7.569 -3.7769  1.3509  1.6252
   79MOL   H37630172   6.466   5.724   7.592  1.1253  1.6755 -2.4137
   79MOL   H37730173   6.305   5.739   7.528  1.0415  0.5336 -1.5767
   79MOL   H37830174   6.420   5.430   7.223 -0.6435 -0.7911 -0.7252
   79MOL   H37930175   6.255   5.394   7.066 -0.0375 -0.8588  0.4851
   79MOL   H38030176   6.098   5.580   7.016  1.3547 -0.2759  0.0338
   79MOL   H38130177   6.054   5.753   7.170  0.5114 -0.5288 -0.5116
   79MOL   H38230178   6.203   5.789   7.368  0.1915 -1.5453  2.1553
   80MOL     C130179   7.337   3.135   0.143 -0.3130 -0.2932  0.0004
   80MOL     C230180   7.486   3.170   0.128 -0.2315 -0.0375  0.0298
   80MOL     O330181   7.385   3.270   0.130  0.1769  0.4916  0.5974
   80MOL     C430182   7.553   3.137   8.166  0.3402 -1.1246 -0.6236
   80MOL     O530183   7.692   3.153   0.012 -0.1971  0.5852  0.4989
   80MOL     C630184   7.741   3.282   0.038 -0.0243  0.3052  0.0565
   80MOL     C730185   7.680   3.389   8.145  0.6530 -0.4889  0.0653
   80MOL     C830186   7.709   3.522   0.022  0.1968 -0.0055  0.2989
   80MOL     C930187   7.778   3.538   0.140  0.0769  0.4053 -0.5411
   80MOL    C1030188   7.848   3.431   0.200  0.5871  0.1180 -0.3060
   80MOL    C1130189   7.822   3.297   0.156  0.2169  0.2091  0.2440
   80MOL    H1230190   7.305   3.104   0.242 -4.0234  2.2449 -0.3005
   80MOL    H1330191   7.553   3.167   0.214  0.4355  0.6090 -0.4673
   80MOL    H1430192   7.503   3.190   8.084  1.1977  0.3120 -0.2425
   80MOL    H1530193   7.530   3.032   8.147  1.3273 -0.8559 -3.6276
   80MOL    H1630194   7.613   3.369   8.062  1.1329  0.0403 -0.4566
   80MOL    H1730195   7.685   3.614   8.141 -0.5380 -0.8170 -0.8564
   80MOL    H1830196   7.788   3.638   0.180 -2.3803 -0.6019  2.8751
   80MOL    H1930197   7.902   3.448   0.292  2.5700 -1.8610 -1.0521
   80MOL    H2030198   7.270   3.110   0.062 -1.2782 -1.2810  1.0931
   80MOL    C2130199   7.868   3.182   0.241  0.2482 -0.3809  0.1091
   80MOL    C2230200   8.002   3.117   0.224 -0.0151  0.3912  0.0848
   80MOL    O2330201   7.973   3.216   0.332 -0.2190  0.0778 -0.2154
   80MOL    C2430202   8.126   3.150   0.137  0.2051  0.4068  0.2730
   80MOL    O2530203   8.117   3.261   0.049  0.1395 -0.2310 -0.3554
   80MOL    C2630204   0.067   3.306   0.001 -0.2761 -0.2806  0.1634
   80MOL    C2730205   0.179   3.219   8.146  0.0514  0.2697 -0.0124
   80MOL    C2830206   0.297   3.274   8.090 -0.3020  0.6924 -0.0315
   80MOL    C2930207   0.303   3.409   8.052  0.2063  0.1197  0.0478
   80MOL    C3030208   0.199   3.498   8.088 -0.2350  0.2373 -0.1195
   80MOL    C3130209   0.081   3.444   8.150 -0.3053  0.2234  0.1220
   80MOL    H3230210   7.787   3.127   0.288 -0.1947  0.6447  0.5792
   80MOL    H3330211   8.008   3.021   0.275  0.4152 -0.6727 -1.9130
   80MOL    H3430212   8.155   3.055   0.092 -1.2090  0.1778 -0.1870
   80MOL    H3530213   0.042   3.168   0.202  0.3707  0.0735  0.1492
   80MOL    H3630214   0.174   3.112   8.159 -3.5560 -0.3162 -4.7815
   80MOL    H3730215   0.384   3.217   8.062 -0.7978  0.3732 -0.9280
   80MOL    H3830216   0.395   3.451   8.013  0.9736  0.6624  2.3518
   80MOL    H3930217   0.213   3.602   8.063  1.2403 -0.2966 -1.6109
   80MOL    C4030218   8.143   3.531   0.024 -0.6092  0.3787 -0.3442
   80MOL    C4130219   8.154   3.593   0.169  0.2386 -0.6080  0.2611
   80MOL    O4230220   0.017   3.661   0.052  0.1439 -0.2009 -0.3059
   80MOL    C4330221   0.106   3.574   0.266 -0.0577 -0.6181 -0.9712
   80MOL    O4430222   0.057   3.618   0.393 -0.7563  0.0192 -0.0861
   80MOL    C4530223   0.023   3.531   0.492 -0.4863 -0.0599 -0.7332
   80MOL    C4630224   0.032   3.391   0.484  0.2192  0.1433  0.0582
   80MOL    C4730225   0.024   3.310   0.601  0.0582 -0.1073  0.0060
   80MOL    C4830226   8.167   3.376   0.726 -0.3006  0.0987 -0.0071
   80MOL    C4930227   8.152   3.518   0.730 -1.0836 -0.2887  0.1545
   80MOL    C5030228   8.165   3.592   0.614 -0.5159 -0.9820 -0.0167
   80MOL    H5130229   8.043   3.525   8.153 -0.7346  1.9522 -0.3014
   80MOL    H5230230   8.073   3.645   0.219  2.3873  3.3386 -0.1404
   80MOL    H5330231   0.190   3.635   0.235  0.1244  0.0572  0.8037
   80MOL    H5430232   0.137   3.470   0.274  1.6821  0.0120  1.2016
   80MOL    H5530233   0.047   3.341   0.390  0.1310  0.3549 -0.0674
   80MOL    H5630234   0.029   3.203   0.592 -0.7237 -0.0195 -1.5229
   80MOL    H5730235   8.152   3.320   0.817  1.0217 -0.1635  0.0564
   80MOL    H5830236   8.134   3.578   0.817  1.3481  1.0172 -0.1992
   80MOL    C5930237   0.003   3.741   0.622  0.5144 -0.0870 -0.5873
   80MOL    C6030238   8.066   3.834   0.568 -0.0672  0.1428  0.7652
   80MOL    O6130239   8.073   3.800   0.709  0.2135 -0.0380 -0.5982
   80MOL    C6230240   7.949   3.775   0.488  0.0558 -0.3572  0.0608
   80MOL    O6330241   7.892   3.865   0.401  0.3020  0.2174  0.0111
   80MOL    C6430242   7.767   3.850   0.346  0.0502 -0.0651  0.0053
   80MOL    C6530243   7.672   3.756   0.395 -0.2206 -0.0732  0.5633
   80MOL    C6630244   7.554   3.730   0.324  0.2826 -0.2475 -0.6390
   80MOL    C6730245   7.520   3.812   0.212  0.0857 -0.0957  0.0209
   80MOL    C6830246   7.610   3.904   0.160  0.4823  0.0874  0.3065
   80MOL    C6930247   7.738   3.923   0.225  0.3716 -0.1846 -0.2971
   80MOL    H7030248   0.104   3.767   0.651 -0.2619  0.8593  1.3224
   80MOL    H7130249   8.089   3.939   0.550  0.1135 -0.1551 -0.8414
   80MOL    H7230250   7.877   3.739   0.561 -1.3048 -0.0438 -1.1044
   80MOL    H7330251   7.980   3.684   0.436  1.3172  0.0081  0.1402
   80MOL    H7430252   7.699   3.689   0.475  1.1329 -3.3708 -2.5671
   80MOL    H7530253   7.487   3.651   0.355  0.1318  0.8390  1.9642
   80MOL    H7630254   7.420   3.792   0.176 -0.0566 -2.1560  1.4524
   80MOL    H7730255   7.583   3.956   0.068 -1.2144 -1.0655  0.1237
   80MOL    C7830256   7.859   3.995   0.167 -0.9965 -0.1226 -0.3207
   80MOL    C7930257   7.933   3.954   0.044  0.4465 -0.4333  0.3543
   80MOL    O8030258   7.834   4.056   0.039  0.3823 -0.2204 -0.3293
   80MOL    C8130259   7.900   3.829   8.124  0.6771 -0.2401 -0.3143
   80MOL    O8230260   7.886   3.886   7.991 -0.2514  0.0743 -0.3872
   80MOL    C8330261   7.814   3.804   7.908  0.4060  0.6162  0.5263
   80MOL    C8430262   7.824   3.666   7.911 -0.1174  0.8305 -0.3805
   80MOL    C8530263   7.751   3.585   7.828  0.5184  0.2929  0.3482
   80MOL    C8630264   7.669   3.642   7.723 -0.2043  0.3625 -0.2524
   80MOL    C8730265   7.647   3.781   7.725  0.0816  0.0901 -0.2906
   80MOL    C8830266   7.727   3.863   7.811  0.2174 -0.0320 -0.3589
   80MOL    H8930267   7.901   4.063   0.242  1.0508 -0.9227 -0.7260
   80MOL    H9030268   8.030   4.002   0.033  1.2926 -2.0614  0.5665
   80MOL    H9130269   7.810   3.781   8.162  0.2088  0.5184 -0.4454
   80MOL    H9230270   7.985   3.762   8.120  0.2008 -0.7816 -1.3544
   80MOL    H9330271   7.901   3.624   7.975  0.9338  0.3671 -1.9206
   80MOL    H9430272   7.763   3.478   7.837  1.2388  0.4264  1.0519
   80MOL    H9530273   7.615   3.582   7.652  0.3106 -1.9259  1.2395
   80MOL    H9630274   7.591   3.837   7.652 -0.0655 -1.0101 -1.0246
   80MOL    C9730275   7.714   4.008   7.804  0.0281 -0.8829 -0.1007
   80MOL    C9830276   7.759   4.092   7.684  0.0250 -0.1265 -0.4132
   80MOL    O9930277   7.619   4.056   7.710  0.6605  0.3689  0.7896
   80MOL   C10030278   7.842   4.027   7.565  0.5025  0.1141  0.6705
   80MOL   O10130279   7.842   4.099   7.444  0.0874 -0.1607 -0.7580
   80MOL   C10230280   7.916   4.218   7.438 -1.0660  0.2990  0.8268
   80MOL   C10330281   8.007   4.261   7.539 -0.0341  0.5427 -0.5095
   80MOL   C10430282   8.068   4.387   7.518 -0.0894 -0.1647  0.1757
   80MOL   C10530283   8.028   4.469   7.411 -0.5723 -0.1867  0.3456
   80MOL   C10630284   7.944   4.419   7.313  0.3387 -0.6582  0.2630
   80MOL   C10730285   7.892   4.290   7.317 -0.3562  0.3676 -0.0617
   80MOL   H10830286   7.715   4.055   7.903  0.1570 -0.3477 -0.3549
   80MOL   H10930287   7.777   4.199   7.691  4.4387 -0.6761 -2.0820
   80MOL   H11030288   7.791   3.933   7.543 -0.7565  1.1386 -0.8622
   80MOL   H11130289   7.941   4.005   7.604  0.2123  1.8914  2.5092
   80MOL   H11230290   8.031   4.203   7.627 -3.8559 -1.5161 -0.7197
   80MOL   H11330291   8.144   4.415   7.590  2.4863 -1.0755 -2.0821
   80MOL   H11430292   8.063   4.571   7.403  0.0426 -0.3910  0.4224
   80MOL   H11530293   7.931   4.489   7.233 -1.3545  0.2267  1.2802
   80MOL   C11630294   7.826   4.230   7.197 -0.0497 -0.0116 -0.2605
   80MOL   C11730295   7.676   4.238   7.174  0.1865 -0.3649  0.2625
   80MOL   O11830296   7.780   4.307   7.093 -0.3598 -0.1777  0.5783
   80MOL   C11930297   7.593   4.320   7.256  0.4247 -0.1953  0.3907
   80MOL   O12030298   7.468   4.312   7.181  0.1759  0.6528 -0.2574
   80MOL   C12130299   7.411   4.429   7.131 -0.4974 -0.2034 -0.0759
   80MOL   C12230300   7.486   4.513   7.045 -0.0932  0.4513  0.6159
   80MOL   C12330301   7.435   4.627   6.991 -0.3838 -0.6027 -1.0133
   80MOL   C12430302   7.305   4.669   7.023 -0.7272  0.2767  0.0377
   80MOL   C12530303   7.231   4.588   7.111  0.1185 -0.2643 -0.6277
   80MOL   C12630304   7.281   4.466   7.166 -0.5059 -0.6514 -0.2728
   80MOL   H12730305   7.884   4.143   7.167  0.1088 -0.8713  2.4856
   80MOL   H12830306   7.633   4.148   7.131  2.3794 -0.6205 -1.4547
   80MOL   H12930307   7.641   4.417   7.258  1.0493 -0.5150  1.2377
   80MOL   H13030308   7.580   4.281   7.357  0.6853 -0.7041  0.2285
   80MOL   H13130309   7.585   4.475   7.022 -0.2290 -0.3796  1.3962
   80MOL   H13230310   7.494   4.696   6.932 -0.3731  2.2030  2.1284
   80MOL   H13330311   7.267   4.757   6.975 -1.0988  0.7652  1.2192
   80MOL   H13430312   7.132   4.623   7.135 -0.6581 -2.0664 -1.0839
   80MOL   C13530313   7.206   4.382   7.264  0.2805 -0.0663  0.5293
   80MOL   C13630314   7.205   4.418   7.407  0.8199 -0.0508 -0.6922
   80MOL   O13730315   7.103   4.459   7.318 -0.1199  0.0805 -0.2588
   80MOL   C13830316   7.298   4.523   7.458  0.0803 -0.2580 -0.6763
   80MOL   O13930317   7.437   4.488   7.481 -0.0936 -0.0458 -0.2369
   80MOL   C14030318   7.470   4.434   7.604  0.1211  0.0468  0.6418
   80MOL   C14130319   7.380   4.362   7.675 -0.6570  0.3112  0.0844
   80MOL   C14230320   7.417   4.299   7.796 -0.0677  0.1034  0.4051
   80MOL   C14330321   7.544   4.322   7.840  0.3162  0.1372  0.6050
   80MOL   C14430322   7.638   4.404   7.770 -0.6890  0.6150 -0.5745
   80MOL   C14530323   7.599   4.473   7.654 -0.9187  0.5671 -0.5999
   80MOL   H14630324   7.171   4.283   7.235 -2.1274  0.8759  0.0906
   80MOL   H14730325   7.182   4.326   7.461  0.5326  0.9330  0.8690
   80MOL   H14830326   7.252   4.572   7.544  0.1858 -1.6753  0.2093
   80MOL   H14930327   7.305   4.609   7.391 -1.4804  0.6632  0.3037
   80MOL   H15030328   7.277   4.349   7.646 -0.2696 -1.3521 -0.6403
   80MOL   H15130329   7.344   4.241   7.850 -0.9409  1.9194  1.2166
   80MOL   H15230330   7.579   4.276   7.931  3.6029  0.2860 -0.5172
   80MOL   H15330331   7.736   4.412   7.816  0.5600  1.0068 -3.1827
   80MOL   C15430332   7.700   4.558   7.583  0.6255  0.2882 -0.2744
   80MOL   C15530333   7.735   4.704   7.604  0.2934 -1.0313 -0.4489
   80MOL   O15630334   7.808   4.593   7.665 -0.0957  0.5408  0.4146
   80MOL   C15730335   7.650   4.793   7.700 -0.6114  0.4434 -0.1555
   80MOL   O15830336   7.717   4.894   7.775  0.4111 -0.1940 -0.4836
   80MOL   C15930337   7.777   4.998   7.709  0.2264 -0.4840  0.2642
   80MOL   C16030338   7.746   5.034   7.582 -0.1678 -0.0880  0.6278
   80MOL   C16130339   7.822   5.127   7.503 -0.6889 -0.2535 -0.8873
   80MOL   C16230340   7.920   5.197   7.572  0.0085  0.4791  0.2855
   80MOL   C16330341   7.945   5.172   7.713  0.5810 -0.6594 -0.2927
   80MOL   C16430342   7.870   5.071   7.784 -0.0551  0.0617  0.3896
   80MOL   H16530343   7.722   4.518   7.485 -1.4774 -2.1558  0.1908
   80MOL   H16630344   7.762   4.759   7.514 -0.9816 -0.9559 -0.7946
   80MOL   H16730345   7.600   4.725   7.770 -2.2163  1.1589 -0.5677
   80MOL   H16830346   7.571   4.840   7.640  0.2379  0.6324 -1.1401
   80MOL   H16930347   7.669   4.982   7.527 -0.9161  1.5124  0.1366
   80MOL   H17030348   7.807   5.158   7.401 -0.1470 -0.9778 -1.1936
   80MOL   H17130349   7.982   5.275   7.529 -0.4596  0.3613 -0.6194
   80MOL   H17230350   8.014   5.233   7.770 -0.5550 -0.2856  0.6846
   80MOL   C17330351   7.881   5.055   7.929  0.6443 -0.0236 -0.2185
   80MOL   C17430352   7.932   4.935   8.003 -0.3896  0.1649  0.2383
   80MOL   O17530353   8.019   5.047   7.968  0.6645  0.8689  0.2243
   80MOL   C17630354   7.975   4.806   7.942 -0.3811  0.5125 -0.5211
   80MOL   O17730355   8.065   4.739   8.037 -0.4225  0.4934 -0.9193
   80MOL   C17830356   8.019   4.621   8.093  1.0559  0.0792  0.6094
   80MOL   C17930357   7.983   4.628   0.056 -0.0801  0.7997 -0.4675
   80MOL   C18030358   7.951   4.506   0.125  0.5867 -0.1144 -0.4311
   80MOL   C18130359   7.973   4.383   0.062 -0.0836 -0.4282 -0.2561
   80MOL   C18230360   8.014   4.377   8.097 -0.0428  0.2446 -0.2609
   80MOL   C18330361   8.025   4.500   8.023  0.1082 -0.0331  0.4356
   80MOL   H18430362   7.821   5.118   7.994  2.0881 -0.8554  2.0052
   80MOL   H18530363   7.894   4.932   8.105  0.7391  0.1101  0.6685
   80MOL   H18630364   8.024   4.805   7.845 -0.6369  0.8920 -0.6557
   80MOL   H18730365   7.884   4.748   7.928  0.6995 -0.9715 -1.5783
   80MOL   H18830366   7.994   4.724   0.104 -1.2688  1.3255 -1.2255
   80MOL   H18930367   7.931   4.513   0.231  1.5162  0.1125 -0.2629
   80MOL   H19030368   7.948   4.296   0.120  1.0363 -1.9573 -2.0135
   80MOL   H19130369   8.008   4.284   8.042 -1.6041 -0.6702  1.3950
   80MOL   C19230370   8.075   4.487   7.885  0.0447 -0.0653  0.3057
   80MOL   C19330371   0.048   4.478   7.847  0.2461 -0.0684 -0.1109
   80MOL   O19430372   8.139   4.361   7.869  0.1926  0.3675 -0.2068
   80MOL   C19530373   0.156   4.506   7.955 -0.7187  0.3938 -0.0218
   80MOL   O19630374   0.286   4.457   7.916  0.6677  0.1519 -0.2240
   80MOL   C19730375   0.340   4.511   7.801 -0.1528  0.1926  0.2823
   80MOL   C19830376   0.334   4.651   7.781  0.4019 -0.4149 -0.3409
   80MOL   C19930377   0.392   4.704   7.665 -0.0319 -0.2778 -0.4940
   80MOL   C20030378   0.452   4.620   7.563 -0.0157 -0.3334  0.8015
   80MOL   C20130379   0.457   4.484   7.586 -0.1450 -0.8721 -0.2915
   80MOL   C20230380   0.397   4.426   7.701  0.9172  0.0446  0.0011
   80MOL   H20330381   7.998   4.516   7.814  0.0551  1.7054  0.9867
   80MOL   H20430382   0.083   4.496   7.745 -2.4293  1.5709 -0.7910
   80MOL   H20530383   0.122   4.462   8.049  0.9014 -3.9881 -1.3524
   80MOL   H20630384   0.163   4.614   7.963  0.0991  0.2924  0.7824
   80MOL   H20730385   0.280   4.720   7.844 -1.3997 -1.5261 -0.6370
   80MOL   H20830386   0.380   4.810   7.647  3.9017  0.4423  0.6150
   80MOL   H20930387   0.489   4.652   7.466 -0.9173 -2.3449 -0.2211
   80MOL   H21030388   0.494   4.417   7.510  0.3714 -1.9017  0.8568
   80MOL   C21130389   0.379   4.276   7.712 -0.4436 -0.5939 -0.5294
   80MOL   C21230390   0.298   4.193   7.614 -0.2352 -0.3499  0.5738
   80MOL   O21330391   0.438   4.198   7.604  0.1990 -0.7068 -0.1133
   80MOL   C21430392   0.230   4.245   7.497 -0.4111  0.4531 -0.2095
   80MOL   O21530393   0.240   4.148   7.394  0.4857  0.3771 -0.2367
   80MOL   C21630394   0.161   4.164   7.279  0.0807 -0.5315  0.4991
   80MOL   C21730395   0.096   4.284   7.254  0.0454  0.3166 -0.3013
   80MOL   C21830396   0.024   4.304   7.141 -0.1158 -0.5471  0.1185
   80MOL   C21930397   0.003   4.195   7.050 -0.2563 -0.4931  0.0610
   80MOL   C22030398   0.050   4.063   7.081  0.2078  0.4749 -1.0717
   80MOL   C22130399   0.144   4.059   7.192  0.0332  0.1359  0.1031
   80MOL   H22230400   0.390   4.232   7.811 -2.8541  2.0555  0.9665
   80MOL   H22330401   0.264   4.101   7.660  2.0919  0.0515  3.2074
   80MOL   H22430402   0.277   4.336   7.458 -0.0613  0.3294 -0.0737
   80MOL   H22530403   0.125   4.256   7.522 -0.5019 -1.0366  0.0732
   80MOL   H22630404   0.106   4.363   7.327  0.8615  0.0634 -0.1402
   80MOL   H22730405   8.147   4.398   7.115 -0.5919 -0.9141 -0.3615
   80MOL   H22830406   8.123   4.213   6.956 -1.2854  1.0970  0.9029
   80MOL   H22930407   0.035   3.976   7.020 -2.0189 -1.1729  1.7184
   80MOL   C23030408   0.180   3.921   7.241  0.2142  0.4310  1.2730
   80MOL   C23130409   0.097   3.845   7.344  0.5594  0.4275  0.2866
   80MOL   O23230410   0.079   3.830   7.202  1.0006  0.2415  0.2067
   80MOL   C23330411   8.154   3.917   7.414 -0.5122  0.1061 -0.1844
   80MOL   O23430412   8.102   3.822   7.514  0.6277 -0.3066  0.5900
   80MOL   C23530413   8.156   3.827   7.643 -0.2214 -0.0191  0.2033
   80MOL   C23630414   0.021   3.948   7.707  0.0286  0.7214  1.4001
   80MOL   C23730415   0.064   3.952   7.836 -0.4876  0.0059 -0.4766
   80MOL   C23830416   0.066   3.833   7.915  0.3638  0.1654  0.0809
   80MOL   C23930417   0.030   3.710   7.857 -0.4307 -0.2879  0.5348
   80MOL   C24030418   8.163   3.706   7.718  0.4157 -0.4946 -0.8900
   80MOL   H24130419   0.275   3.883   7.206  0.3959  1.5616  0.5237
   80MOL   H24230420   0.150   3.767   7.398 -1.1980 -0.4997  0.7318
   80MOL   H24330421   8.081   3.940   7.337 -0.9233  0.4354  0.2991
   80MOL   H24430422   0.018   4.011   7.459 -0.4309 -1.2765  2.7393
   80MOL   H24530423   0.017   4.044   7.657  2.1263  0.9131  1.5678
   80MOL   H24630424   0.091   4.049   7.874 -1.5948  0.8917 -1.9048
   80MOL   H24730425   0.102   3.844   8.016  0.0744  2.2059 -0.0252
   80MOL   H24830426   0.021   3.634   7.932 -0.4050  0.7136  1.5689
   80MOL   C24930427   8.129   3.575   7.658 -0.2772 -0.5846 -0.3586
   80MOL   C25030428   0.051   3.458   7.637  0.1865  0.2263  0.3000
   80MOL   O25130429   8.126   3.464   7.741  0.2779 -0.7455 -0.5444
   80MOL   C25230430   0.190   3.440   7.699 -0.0803 -0.1285  0.3709
   80MOL   O25330431   0.214   3.309   7.750 -0.4025  0.1509 -0.5021
   80MOL   C25430432   0.287   3.227   7.668 -0.3592 -0.3361 -0.1554
   80MOL   C25530433   0.363   3.268   7.553 -0.2708 -0.1567 -0.7220
   80MOL   C25630434   0.443   3.179   7.488  0.1266  0.6747  0.0689
   80MOL   C25730435   0.444   3.044   7.527  1.4408 -0.0753  0.1327
   80MOL   C25830436   0.378   3.000   7.643  0.3459 -0.1140  0.0839
   80MOL   C25930437   0.290   3.090   7.712  0.2479  0.2080  0.0177
   80MOL   H26030438   8.045   3.593   7.592  1.3007  0.5461 -2.1331
   80MOL   H26130439   0.030   3.383   7.561  0.9711  0.8823 -0.5712
   80MOL   H26230440   0.183   3.505   7.787 -1.9878 -0.6006  0.6086
   80MOL   H26330441   0.261   3.490   7.634  0.5358 -2.8387 -1.0814
   80MOL   H26430442   0.377   3.372   7.529 -0.0722  0.2444  1.0955
   80MOL   H26530443   0.501   3.207   7.402 -0.0709 -2.0118 -0.9919
   80MOL   H26630444   0.507   2.972   7.477  1.1896  0.9348 -1.6801
   80MOL   H26730445   0.376   2.897   7.676 -0.7258  0.5863  2.3403
   80MOL   C26830446   0.197   3.038   7.823 -0.0682  0.0688 -0.0297
   80MOL   C26930447   0.049   3.052   7.801 -0.3841  0.6006  0.3910
   80MOL   O27030448   0.115   2.923   7.787 -0.7819 -0.4659 -0.4680
   80MOL   C27130449   8.156   3.105   7.675 -0.0150 -0.5995  0.6222
   80MOL   O27230450   8.047   3.029   7.636 -0.2917  0.5271  0.0580
   80MOL   C27330451   7.927   3.031   7.710 -0.0277  0.5320 -0.5291
   80MOL   C27430452   7.903   3.125   7.813  0.3455  0.0368 -0.5354
   80MOL   C27530453   7.785   3.121   7.889 -0.0263  0.2530 -0.5516
   80MOL   C27630454   7.683   3.027   7.850  0.5029  0.2916 -0.0174
   80MOL   C27730455   7.707   2.933   7.743  0.1093 -0.1758  0.3326
   80MOL   C27830456   7.833   2.935   7.674 -0.5662  0.2855 -0.1840
   80MOL   H27930457   0.238   3.030   7.924  0.0200 -2.3244 -0.2329
   80MOL   H28030458   8.155   3.060   7.889 -0.5802  1.8804  0.1365
   80MOL   H28130459   0.055   3.110   7.591 -0.9351  4.1784  0.0347
   80MOL   H28230460   8.136   3.209   7.698  2.1692  0.4616 -1.9647
   80MOL   H28330461   7.970   3.209   7.826 -0.5063  0.0990  4.4691
   80MOL   H28430462   7.774   3.199   7.963  3.5329  1.6404 -1.3371
   80MOL   H28530463   7.587   3.020   7.898 -0.2739  0.0467 -1.5795
   80MOL   H28630464   7.628   2.867   7.709  0.5254  0.1570 -1.3350
   80MOL   C28730465   7.861   2.838   7.563  0.2222  0.1318 -0.1716
   80MOL   C28830466   7.906   2.698   7.586 -0.0813 -0.2457  0.1937
   80MOL   O28930467   7.766   2.732   7.553  0.1099 -0.0218 -0.4611
   80MOL   C29030468   7.945   2.662   7.728  0.0935  0.2496  0.8702
   80MOL   O29130469   7.898   2.533   7.747 -0.1097 -0.0168 -0.1122
   80MOL   C29230470   7.913   2.477   7.871 -0.2757  0.5724 -0.3174
   80MOL   C29330471   8.007   2.519   7.968 -0.0191  0.2853 -0.2773
   80MOL   C29430472   8.012   2.463   8.094 -0.2345 -0.3272  0.8983
   80MOL   C29530473   7.941   2.346   8.127  0.0009 -0.1227  0.6768
   80MOL   C29630474   7.848   2.299   8.028 -0.0451 -0.0098  0.4984
   80MOL   C29730475   7.830   2.369   7.906  0.1822 -0.3169 -0.1665
   80MOL   H29830476   7.876   2.888   7.467 -2.9906  0.5830 -0.4846
   80MOL   H29930477   7.952   2.635   7.510 -1.4659  0.8487 -1.6017
   80MOL   H30030478   7.902   2.722   7.808 -0.4005  0.7147  0.2605
   80MOL   H30130479   8.053   2.677   7.734 -0.1633  3.0856 -0.6091
   80MOL   H30230480   8.060   2.611   7.948  0.8296  0.0614  0.8873
   80MOL   H30330481   8.079   2.507   8.167 -0.1249 -0.1967  0.7159
   80MOL   H30430482   7.950   2.295   0.053 -0.4423 -0.0022  0.7825
   80MOL   H30530483   7.784   2.214   8.047  1.6254 -1.2324  0.7829
   80MOL   C30630484   7.714   2.325   7.812 -0.0934  0.8156  0.3929
   80MOL   C30730485   7.742   2.256   7.681  0.1962 -0.2563 -0.3829
   80MOL   O30830486   7.695   2.178   7.796 -0.8567 -0.3832 -0.0589
   80MOL   C30930487   7.878   2.230   7.621  0.5138 -0.1035 -0.1944
   80MOL   O31030488   7.852   2.144   7.511  0.4131  0.1565  0.1698
   80MOL   C31130489   7.864   2.002   7.534  0.5461  0.2457 -0.1530
   80MOL   C31230490   7.892   1.940   7.659 -0.2798  0.5631  0.5720
   80MOL   C31330491   7.895   1.799   7.668 -0.0470  0.1940  0.0381
   80MOL   C31430492   7.888   1.713   7.551  0.0616 -0.0916 -0.6626
   80MOL   C31530493   7.859   1.778   7.429  1.0598 -0.3276 -0.2524
   80MOL   C31630494   7.850   1.918   7.420 -1.1196 -0.1160 -0.1372
   80MOL   H31730495   7.628   2.389   7.828 -0.0414  1.2370 -0.9460
   80MOL   H31830496   7.667   2.259   7.602  0.0942 -2.0325 -0.3816
   80MOL   H31930497   7.945   2.183   7.694  0.7536 -0.0835 -0.4048
   80MOL   H32030498   7.923   2.323   7.588  0.3012 -0.4086 -1.3607
   80MOL   H32130499   7.882   1.997   7.751 -0.9358 -0.4881  1.1660
   80MOL   H32230500   7.912   1.755   7.766 -0.0995 -1.3615 -0.6302
   80MOL   H32330501   7.919   1.610   7.566  1.5691  0.6976  1.9169
   80MOL   H32430502   7.836   1.718   7.342  0.2472 -2.9372  1.6910
   80MOL   C32530503   7.818   1.983   7.286 -0.2055 -0.5043 -0.6443
   80MOL   C32630504   7.921   2.029   7.186 -0.0541  0.5345 -0.5134
   80MOL   O32730505   7.859   1.901   7.170 -0.6038  0.2254  0.1922
   80MOL   C32830506   8.072   2.025   7.214  0.1114 -0.0707  0.1713
   80MOL   O32930507   8.157   2.084   7.119  0.0875  0.1152  0.7333
   80MOL   C33030508   0.033   2.010   7.013  0.2710 -0.4551 -0.4367
   80MOL   C33130509   8.151   1.884   6.982 -0.2424  0.2789 -0.1159
   80MOL   C33230510   0.040   1.810   6.872  0.0508 -0.7535 -0.1653
   80MOL   C33330511   0.145   1.862   6.801  0.4310 -0.2196  0.0890
   80MOL   C33430512   0.190   1.989   6.836  0.0192 -0.2770 -0.1551
   80MOL   C33530513   0.130   2.065   6.937 -0.6878  0.6658 -0.0767
   80MOL   H33630514   7.716   2.020   7.280 -0.1736  0.0028  1.5956
   80MOL   H33730515   7.886   2.099   7.111 -2.8002  0.0791  0.2772
   80MOL   H33830516   8.104   1.922   7.232  1.9327  0.3102 -0.8230
   80MOL   H33930517   8.098   2.059   7.314  0.1413 -0.7750  0.4089
   80MOL   H34030518   8.070   1.843   7.039  0.4691 -1.8903 -0.6175
   80MOL   H34130519   0.002   1.713   6.843 -1.7677 -0.4603  1.1193
   80MOL   H34230520   0.199   1.812   6.722 -0.2873 -0.5858 -0.1786
   80MOL   H34330521   0.268   2.028   6.772  0.8150 -1.1107  0.2888
   80MOL   C34430522   0.164   2.212   6.954 -0.4910  0.5774  0.1739
   80MOL   C34530523   0.254   2.261   7.067 -1.0307  0.3925  0.1500
   80MOL   O34630524   0.301   2.233   6.937 -0.2547  0.1919 -0.4352
   80MOL   C34730525   0.292   2.163   7.178  0.3768 -0.3523  0.1368
   80MOL   O34830526   0.383   2.240   7.262  0.2280  0.6993 -0.2538
   80MOL   C34930527   0.458   2.175   7.364  0.0268 -0.2248 -0.3300
   80MOL   C35030528   0.426   2.046   7.410  0.1987  0.2927 -0.4662
   80MOL   C35130529   0.499   1.974   7.509  0.6751  0.3249  0.8474
   80MOL   C35230530   0.612   2.037   7.559 -0.6092 -0.0146  0.1189
   80MOL   C35330531   0.652   2.164   7.522 -0.3034  0.2494 -0.2751
   80MOL   C35430532   0.574   2.233   7.425 -0.0928  0.2173 -0.3271
   80MOL   H35530533   0.094   2.283   6.911 -0.7709 -0.6484 -1.4159
   80MOL   H35630534   0.251   2.367   7.091  0.1527 -0.1427  2.7910
   80MOL   H35730535   0.352   2.080   7.142  0.7829 -0.7654  1.6976
   80MOL   H35830536   0.204   2.126   7.232  1.0363 -1.6475  0.3444
   80MOL   H35930537   0.341   1.999   7.364 -0.9843  1.4061  0.5591
   80MOL   H36030538   0.478   1.871   7.532  0.2095 -0.0021 -0.9332
   80MOL   H36130539   0.673   1.983   7.629  1.3030  0.4506 -1.1430
   80MOL   H36230540   0.736   2.207   7.574 -0.2218  1.2190 -1.1815
   80MOL   C36330541   0.619   2.373   7.389 -0.2496 -0.7372  0.2400
   80MOL   C36430542   0.573   2.487   7.479 -0.7649  0.4052  0.0924
   80MOL   O36530543   0.707   2.436   7.493  0.7569 -0.5820  0.6323
   80MOL   C36630544   0.492   2.467   7.611 -0.3451 -0.0130  0.3162
   80MOL   O36730545   0.496   2.590   7.682 -0.5699  0.0931  0.3808
   80MOL   C36830546   0.422   2.601   7.796 -0.0163  0.0460 -0.2389
   80MOL   C36930547   0.329   2.504   7.837  0.2058  1.0323  0.3816
   80MOL   C37030548   0.247   2.537   7.946 -0.0831 -0.6369  0.1235
   80MOL   C37130549   0.261   2.655   8.018  0.3846  0.6357  0.1368
   80MOL   C37230550   0.360   2.746   7.976  0.5536 -0.6229 -0.5973
   80MOL   C37330551   0.442   2.716   7.868 -0.3982  0.2514 -0.4323
   80MOL   H37430552   0.637   2.398   7.285  2.1372 -2.5443  0.1866
   80MOL   H37530553   0.587   2.589   7.443  2.5490  0.6253  1.7315
   80MOL   H37630554   0.513   2.378   7.669  1.1535  0.8553  1.1392
   80MOL   H37730555   0.388   2.455   7.582 -0.7161  2.0560  0.6721
   80MOL   H37830556   0.316   2.408   7.788  0.2853  0.6968  1.0239
   80MOL   H37930557   0.168   2.466   7.967 -0.0583 -0.5308  0.5674
   80MOL   H38030558   0.189   2.679   8.095 -2.2122  3.1603 -2.9607
   80MOL   H38130559   0.373   2.837   8.033 -0.1847 -0.7954 -0.1442
   80MOL   H38230560   0.520   2.784   7.838  1.4384 -1.9985 -0.8378
   81MOL     C130561   4.657   2.558   2.344 -0.1067  0.1928 -0.8079
   81MOL     C230562   4.603   2.427   2.383 -0.3588  0.3101 -0.0565
   81MOL     O330563   4.743   2.459   2.410  0.0387  0.1283 -0.0227
   81MOL     C430564   4.570   2.317   2.287 -0.1292 -0.7250  0.1204
   81MOL     O530565   4.577   2.365   2.146 -1.0567 -0.0291 -0.2128
   81MOL     C630566   4.561   2.266   2.046  0.6829 -0.1592 -0.7707
   81MOL     C730567   4.557   2.128   2.083  0.1771 -0.1300 -0.0569
   81MOL     C830568   4.555   2.032   1.985 -0.1103 -0.8145  0.1440
   81MOL     C930569   4.548   2.069   1.848  0.6546  0.4932 -0.1823
   81MOL    C1030570   4.559   2.204   1.814  0.0858 -0.2179  0.0827
   81MOL    C1130571   4.564   2.302   1.913 -0.3296  0.2929 -0.3670
   81MOL    H1230572   4.623   2.645   2.399  0.0524 -0.3011  0.0831
   81MOL    H1330573   4.544   2.429   2.474 -2.6428 -2.0023 -1.4024
   81MOL    H1430574   4.464   2.294   2.302 -0.3186 -0.1025 -0.2359
   81MOL    H1530575   4.632   2.233   2.318 -0.1023 -1.1832 -1.1392
   81MOL    H1630576   4.559   2.087   2.183 -0.0759 -0.0927 -0.0357
   81MOL    H1730577   4.561   1.927   2.010 -0.1316 -0.5190  1.4151
   81MOL    H1830578   4.528   1.993   1.775 -1.4305  3.0003 -2.3232
   81MOL    H1930579   4.553   2.224   1.708  0.4288  0.1241  0.1253
   81MOL    H2030580   4.668   2.578   2.238 -1.9204 -0.5723 -1.1519
   81MOL    C2130581   4.582   2.441   1.867  0.5235 -0.4411 -0.3122
   81MOL    C2230582   4.701   2.525   1.866  0.5442 -0.1555 -0.0991
   81MOL    O2330583   4.660   2.459   1.748 -0.4904  0.4230 -0.4541
   81MOL    C2430584   4.835   2.480   1.911  0.1357  0.4226  0.2973
   81MOL    O2530585   4.938   2.570   1.876  0.0676  0.1104  0.2437
   81MOL    C2630586   5.068   2.538   1.896  0.7094  0.0265 -0.6571
   81MOL    C2730587   5.104   2.402   1.904  0.1741  0.2100 -0.2579
   81MOL    C2830588   5.240   2.361   1.932  0.4052 -0.2482  0.1595
   81MOL    C2930589   5.339   2.462   1.935  0.1650 -0.2598 -0.2072
   81MOL    C3030590   5.300   2.600   1.928 -0.2941  0.3173  0.3582
   81MOL    C3130591   5.164   2.640   1.908 -1.1369  0.3905 -0.0369
   81MOL    H3230592   4.491   2.501   1.873  2.9424  3.3099  0.1969
   81MOL    H3330593   4.672   2.629   1.876  0.1680 -0.1507 -1.1710
   81MOL    H3430594   4.846   2.388   1.854 -1.0970  1.2911 -1.3733
   81MOL    H3530595   4.827   2.445   2.014  0.3710 -0.6645 -0.0554
   81MOL    H3630596   5.027   2.327   1.898  1.7807 -1.3387 -1.8726
   81MOL    H3730597   5.269   2.258   1.945 -2.3182 -1.2033 -1.0179
   81MOL    H3830598   5.441   2.438   1.960  0.5964 -0.0075 -1.6518
   81MOL    H3930599   5.371   2.680   1.944  0.0966 -0.0310  0.3416
   81MOL    C4030600   5.117   2.784   1.904 -0.1018  0.7582  0.8086
   81MOL    C4130601   5.031   2.840   2.010 -0.0654  0.4044 -0.0588
   81MOL    O4230602   5.176   2.864   2.006  0.2780  0.0773 -0.2209
   81MOL    C4330603   4.983   2.758   2.121 -0.2146  0.0274  0.0745
   81MOL    O4430604   4.917   2.834   2.220 -0.9033  1.0875 -0.3325
   81MOL    C4530605   4.789   2.880   2.195 -0.3333 -0.1141 -0.0556
   81MOL    C4630606   4.721   2.853   2.074 -0.2624 -0.2053 -0.0505
   81MOL    C4730607   4.592   2.898   2.054  1.4816 -0.0832 -0.7869
   81MOL    C4830608   4.513   2.951   2.159  0.2276 -0.3676  0.3644
   81MOL    C4930609   4.582   2.978   2.285  0.5658  0.5168  0.5104
   81MOL    C5030610   4.720   2.946   2.304  0.4556 -0.7367  0.5367
   81MOL    H5130611   5.120   2.822   1.803 -0.8386  0.4161  0.6549
   81MOL    H5230612   4.971   2.928   1.992  0.6372  1.2210  1.4773
   81MOL    H5330613   5.071   2.706   2.159 -0.3417  1.0663  1.8229
   81MOL    H5430614   4.917   2.674   2.100 -0.6518  0.2969  0.3799
   81MOL    H5530615   4.770   2.793   1.999  1.2820 -1.0857  1.6182
   81MOL    H5630616   4.551   2.881   1.956 -0.1360  0.7433 -0.2599
   81MOL    H5730617   4.409   2.978   2.151  0.2254  0.2320  2.1137
   81MOL    H5830618   4.535   3.012   2.376  1.6558 -1.4544  1.8572
   81MOL    C5930619   4.779   2.976   2.437 -0.5587 -0.5713  0.2147
   81MOL    C6030620   4.890   3.074   2.460  0.1585 -0.2506  0.2326
   81MOL    O6130621   4.756   3.108   2.488 -0.2920  0.0738 -0.8824
   81MOL    C6230622   4.954   3.155   2.349  0.4212 -1.0064  0.1737
   81MOL    O6330623   5.033   3.254   2.414  0.1406 -0.4964  0.0911
   81MOL    C6430624   5.117   3.331   2.338 -0.7194 -0.1154 -0.5239
   81MOL    C6530625   5.171   3.296   2.212  0.1456  0.4076 -0.1106
   81MOL    C6630626   5.258   3.381   2.143  0.0374  0.4895 -0.5194
   81MOL    C6730627   5.285   3.508   2.206  0.3268  0.0150  0.0598
   81MOL    C6830628   5.227   3.546   2.325  0.1718 -0.1233  0.9966
   81MOL    C6930629   5.147   3.456   2.396 -0.0418  0.4116  0.1370
   81MOL    H7030630   4.744   2.899   2.506 -1.6637  0.2953  0.6543
   81MOL    H7130631   4.958   3.038   2.537  2.7300  2.5879 -0.5932
   81MOL    H7230632   4.878   3.192   2.280 -1.4080 -1.5039  1.8675
   81MOL    H7330633   5.019   3.090   2.291  2.0397 -0.2429  1.0946
   81MOL    H7430634   5.140   3.203   2.166 -0.3440 -0.1982  1.4257
   81MOL    H7530635   5.289   3.361   2.042 -1.0857 -1.0694 -0.5662
   81MOL    H7630636   5.346   3.579   2.151  1.5122 -1.7884 -0.9967
   81MOL    H7730637   5.254   3.644   2.363 -0.2450  0.2841  0.2660
   81MOL    C7830638   5.090   3.506   2.524  0.8922 -0.1546  0.3130
   81MOL    C7930639   5.117   3.448   2.657 -0.2769 -0.0290 -0.0934
   81MOL    O8030640   5.192   3.557   2.607  0.3512 -0.4298 -0.2025
   81MOL    C8130641   5.189   3.319   2.671  0.3744 -0.5720  0.0823
   81MOL    O8230642   5.229   3.302   2.811 -0.4286  0.0653  0.3926
   81MOL    C8330643   5.330   3.376   2.863  0.0422  0.0025 -0.0489
   81MOL    C8430644   5.410   3.447   2.775 -0.4322  0.7324  0.0659
   81MOL    C8530645   5.512   3.528   2.820  0.5099  0.4556  0.9463
   81MOL    C8630646   5.544   3.534   2.957  0.8284 -0.1491 -0.0804
   81MOL    C8730647   5.464   3.468   3.047 -0.7503  0.5880 -0.0642
   81MOL    C8830648   5.359   3.386   3.002 -0.5518 -0.0521  0.4186
   81MOL    H8930649   5.010   3.578   2.508 -0.4083 -1.8668 -1.1015
   81MOL    H9030650   5.047   3.480   2.735  0.4205  2.7061 -0.5174
   81MOL    H9130651   5.267   3.305   2.595 -0.3526 -0.6046 -0.6657
   81MOL    H9230652   5.121   3.235   2.654  1.2613 -0.9769 -1.6390
   81MOL    H9330653   5.395   3.449   2.668  0.0641  0.8724 -0.0030
   81MOL    H9430654   5.568   3.585   2.747  0.5608 -2.4610 -1.3791
   81MOL    H9530655   5.632   3.589   2.989 -0.7423  1.0437  2.3636
   81MOL    H9630656   5.485   3.474   3.153  1.3324  1.0758 -0.4918
   81MOL    C9730657   5.287   3.305   3.117 -0.1302  0.2411  0.1847
   81MOL    C9830658   5.324   3.167   3.129  1.3132  0.5981  0.4278
   81MOL    O9930659   5.366   3.266   3.225  0.8576 -0.0858  0.1217
   81MOL   C10030660   5.437   3.105   3.048  0.0003  0.8743  0.5300
   81MOL   O10130661   5.424   2.964   3.038 -0.2797  0.2257  0.9890
   81MOL   C10230662   5.423   2.889   3.152 -0.1657 -0.2034  0.8947
   81MOL   C10330663   5.461   2.940   3.284  0.1477  0.3780 -0.3052
   81MOL   C10430664   5.462   2.857   3.397  0.5867  0.1694  0.5417
   81MOL   C10530665   5.425   2.717   3.387  1.3248  0.1107  0.6623
   81MOL   C10630666   5.390   2.671   3.257  0.5626 -0.0928  0.4544
   81MOL   C10730667   5.401   2.751   3.142  0.2149 -0.2351  0.5029
   81MOL   H10830668   5.188   3.343   3.144 -0.9472 -1.2237 -0.6688
   81MOL   H10930669   5.251   3.096   3.166 -0.1990  0.8961 -1.8923
   81MOL   H11030670   5.535   3.128   3.090  0.3672 -1.7319  1.1736
   81MOL   H11130671   5.430   3.141   2.945 -0.8453 -0.4241  0.1184
   81MOL   H11230672   5.487   3.042   3.307  3.0920 -0.5074  0.4660
   81MOL   H11330673   5.490   2.900   3.492 -0.7796  0.0691  1.0031
   81MOL   H11430674   5.414   2.662   3.480 -1.9196 -0.6143 -0.0788
   81MOL   H11530675   5.378   2.564   3.248  2.9788 -0.1535 -3.5203
   81MOL   C11630676   5.384   2.684   3.002  0.3753 -0.0639 -0.3079
   81MOL   C11730677   5.501   2.658   2.907 -0.0798  0.2108 -0.3294
   81MOL   O11830678   5.453   2.558   2.996  0.2218 -0.0842 -0.3093
   81MOL   C11930679   5.646   2.708   2.932 -0.2443  0.5362 -0.0073
   81MOL   O12030680   5.739   2.611   2.882  0.3298  0.5087  0.3910
   81MOL   C12130681   5.772   2.606   2.747 -0.1382  0.1260 -0.2172
   81MOL   C12230682   5.737   2.705   2.651 -0.1198  0.0401  0.5804
   81MOL   C12330683   5.777   2.691   2.523 -0.0128 -0.0004 -0.1787
   81MOL   C12430684   5.867   2.589   2.487  0.4496  0.1280 -0.1138
   81MOL   C12530685   5.910   2.489   2.578  0.2480 -0.5132 -0.6354
   81MOL   C12630686   5.858   2.502   2.709 -0.1945 -0.1512  0.0519
   81MOL   H12730687   5.281   2.680   2.968  0.1000 -0.1171  0.5075
   81MOL   H12830688   5.478   2.641   2.802  0.7304  1.7817 -0.7828
   81MOL   H12930689   5.659   2.716   3.040  0.4074 -2.1609  0.1562
   81MOL   H13030690   5.668   2.802   2.881  0.8593 -0.8361 -2.1439
   81MOL   H13130691   5.670   2.786   2.678  0.4610  0.4353  0.8548
   81MOL   H13230692   5.737   2.757   2.447 -1.2006  0.4747  0.8471
   81MOL   H13330693   5.893   2.600   2.383  2.3601 -0.9208  0.2264
   81MOL   H13430694   5.970   2.404   2.551  0.8791  0.2236 -1.5743
   81MOL   C13530695   5.887   2.411   2.819 -0.5037  0.0582 -0.5459
   81MOL   C13630696   5.799   2.298   2.857  0.4701  0.0912  0.6745
   81MOL   O13730697   5.914   2.283   2.765  0.2271 -0.1359  0.0969
   81MOL   C13830698   5.664   2.276   2.792  0.6824  0.2408  0.0795
   81MOL   O13930699   5.619   2.144   2.822 -0.3389 -0.2137  0.1397
   81MOL   C14030700   5.499   2.099   2.772 -0.5750  0.2079 -0.4404
   81MOL   C14130701   5.411   2.187   2.704 -0.4764  0.4170 -0.1739
   81MOL   C14230702   5.286   2.136   2.659 -0.2381 -0.2019 -0.6355
   81MOL   C14330703   5.249   2.003   2.681 -0.8670  0.3638 -0.1540
   81MOL   C14430704   5.343   1.910   2.737  0.6564 -0.7483 -1.2417
   81MOL   C14530705   5.471   1.962   2.781  0.3705 -0.5443 -0.2061
   81MOL   H14630706   5.957   2.459   2.887 -1.6797  1.7079 -0.4727
   81MOL   H14730707   5.811   2.249   2.954  2.8101  0.0882  0.4128
   81MOL   H14830708   5.677   2.299   2.686  0.4584  1.5881  0.3377
   81MOL   H14930709   5.590   2.344   2.833  0.7875 -0.3806  1.3061
   81MOL   H15030710   5.447   2.289   2.695  0.2281  0.2370  0.5493
   81MOL   H15130711   5.209   2.195   2.611  0.3333  1.0725 -0.0058
   81MOL   H15230712   5.156   1.961   2.645 -0.5379 -0.8180  0.3187
   81MOL   H15330713   5.318   1.807   2.758 -1.7942 -0.2792 -1.6777
   81MOL   C15430714   5.568   1.866   2.837  0.1100 -0.0018 -0.3559
   81MOL   C15530715   5.601   1.843   2.987 -0.3888  0.1643 -0.7093
   81MOL   O15630716   5.509   1.753   2.923 -0.1241  0.0741 -0.4960
   81MOL   C15730717   5.544   1.920   3.104 -0.4633 -0.5192 -0.0590
   81MOL   O15830718   5.654   1.960   3.181 -0.4506  0.0704  0.3964
   81MOL   C15930719   5.646   2.081   3.252  0.0933 -0.3377 -0.0549
   81MOL   C16030720   5.528   2.163   3.256 -0.1226 -0.2211  0.6077
   81MOL   C16130721   5.523   2.284   3.323  0.1690  0.2028  0.1182
   81MOL   C16230722   5.628   2.313   3.413  0.4321  0.5848  0.8086
   81MOL   C16330723   5.742   2.234   3.422  0.8264  0.0584  0.5330
   81MOL   C16430724   5.757   2.123   3.332 -0.4072  0.8782 -0.3693
   81MOL   H16530725   5.641   1.831   2.764 -2.4935 -1.0712 -2.5075
   81MOL   H16630726   5.697   1.794   3.004 -0.7891 -1.0467 -1.8269
   81MOL   H16730727   5.482   1.846   3.154 -0.3618  0.0314  0.9047
   81MOL   H16830728   5.485   2.003   3.063 -0.9848 -0.9019 -0.0838
   81MOL   H16930729   5.439   2.145   3.197  1.4526  1.2267 -2.3704
   81MOL   H17030730   5.436   2.348   3.323 -0.1396 -0.1818  2.6718
   81MOL   H17130731   5.638   2.404   3.471  1.2952  1.1790 -0.2360
   81MOL   H17230732   5.828   2.249   3.487  0.2022 -1.1955  1.6544
   81MOL   C17330733   5.887   2.046   3.339  0.0848 -0.2267 -0.2895
   81MOL   C17430734   5.998   2.063   3.242  0.0504 -0.2163  0.0694
   81MOL   O17530735   6.000   2.132   3.370  0.3542 -0.1809  0.7903
   81MOL   C17630736   5.998   2.142   3.113  0.7861 -0.0040 -0.8179
   81MOL   O17730737   6.122   2.153   3.044  0.4577 -0.8862  0.8452
   81MOL   C17830738   6.211   2.259   3.065 -0.4828 -0.0752  0.0928
   81MOL   C17930739   6.227   2.322   3.186 -0.1472  0.5702 -0.0678
   81MOL   C18030740   6.325   2.417   3.199  0.1530 -0.8518 -0.0985
   81MOL   C18130741   6.403   2.453   3.094 -0.4138 -0.2887  0.0545
   81MOL   C18230742   6.393   2.391   2.969 -0.4515  0.1408  0.5117
   81MOL   C18330743   6.295   2.298   2.951  0.4473 -0.2170  0.1591
   81MOL   H18430744   5.885   1.962   3.408 -0.5476 -0.4029 -0.5149
   81MOL   H18530745   6.067   1.979   3.240  2.0387  1.3330  1.1390
   81MOL   H18630746   5.957   2.240   3.137  0.6942 -0.2030 -0.1326
   81MOL   H18730747   5.933   2.087   3.044  0.5540 -1.1459  0.2844
   81MOL   H18830748   6.163   2.314   3.273  0.2763 -1.5174  0.0831
   81MOL   H18930749   6.350   2.460   3.295 -1.8361 -1.5319  0.7303
   81MOL   H19030750   6.489   2.515   3.113 -1.8906  1.7012  0.3494
   81MOL   H19130751   6.459   2.418   2.888 -0.5612  3.1796  1.3573
   81MOL   C19230752   6.267   2.241   2.817 -0.0224 -0.1899  0.5381
   81MOL   C19330753   6.238   2.326   2.694  0.1024 -0.1566  0.3675
   81MOL   O19430754   6.364   2.270   2.724 -0.3594  0.0586  0.2794
   81MOL   C19530755   6.218   2.478   2.708 -0.5441  0.9754  0.1095
   81MOL   O19630756   6.192   2.529   2.577  0.3508  0.1018  0.0641
   81MOL   C19730757   6.291   2.608   2.534 -0.1043  0.4216  0.0383
   81MOL   C19830758   6.284   2.743   2.559 -0.2394  0.1643 -0.0094
   81MOL   C19930759   6.380   2.824   2.493 -0.1045  0.2322 -0.1988
   81MOL   C20030760   6.484   2.768   2.418  0.2529 -0.7648  0.0105
   81MOL   C20130761   6.490   2.630   2.398  0.4581  0.8783  0.4101
   81MOL   C20230762   6.386   2.549   2.449  0.3234  0.8633 -0.5900
   81MOL   H20330763   6.221   2.143   2.813  0.8379 -0.5665 -0.4106
   81MOL   H20430764   6.190   2.277   2.609 -0.2623 -0.6268  0.8373
   81MOL   H20530765   6.303   2.526   2.758  0.1538 -1.7768  1.6541
   81MOL   H20630766   6.132   2.503   2.770 -0.7605 -0.1455  0.2659
   81MOL   H20730767   6.201   2.790   2.611 -0.6213  1.5489 -1.8349
   81MOL   H20830768   6.363   2.931   2.495 -0.4409  0.1766  0.0567
   81MOL   H20930769   6.561   2.827   2.371 -0.4388  0.8752  0.8925
   81MOL   H21030770   6.569   2.581   2.342 -1.1544 -2.7752  1.1874
   81MOL   C21130771   6.379   2.396   2.421  0.0898  0.8472 -0.2037
   81MOL   C21230772   6.264   2.330   2.342  0.4795  0.4382  0.0037
   81MOL   O21330773   6.400   2.359   2.285 -0.4085 -0.2725  0.7372
   81MOL   C21430774   6.157   2.408   2.292 -0.1033  0.4175  0.4213
   81MOL   O21530775   6.138   2.376   2.153  0.7804  0.4103 -0.2190
   81MOL   C21630776   6.097   2.491   2.079  0.3449  0.7156  0.5529
   81MOL   C21730777   5.962   2.531   2.056 -0.2874 -0.0727 -0.4157
   81MOL   C21830778   5.925   2.634   1.969 -0.0056 -0.6953 -0.7679
   81MOL   C21930779   6.026   2.721   1.929 -0.4314 -0.0895  0.1420
   81MOL   C22030780   6.157   2.697   1.963 -0.3419  0.9657  0.5743
   81MOL   C22130781   6.197   2.576   2.030  0.7508 -0.3410  0.3777
   81MOL   H22230782   6.437   2.332   2.487 -1.3771 -2.3637 -1.9452
   81MOL   H22330783   6.250   2.222   2.330 -0.2012  0.4551  0.6488
   81MOL   H22430784   6.181   2.512   2.314 -0.3856  0.8026 -1.0394
   81MOL   H22530785   6.063   2.390   2.345 -0.6132  1.5447 -0.0705
   81MOL   H22630786   5.887   2.471   2.106 -0.9540  0.9959 -0.1203
   81MOL   H22730787   5.821   2.657   1.948  0.9868  1.4798 -3.7702
   81MOL   H22830788   6.000   2.809   1.872 -0.2379 -1.0883 -1.5192
   81MOL   H22930789   6.243   2.763   1.957 -0.7310  1.3475 -0.8756
   81MOL   C23030790   6.343   2.543   2.054 -0.0878 -0.0473 -0.1604
   81MOL   C23130791   6.404   2.430   1.985  0.1168  0.3892  0.2764
   81MOL   O23230792   6.419   2.571   1.935  0.3233  0.4238  0.0246
   81MOL   C23330793   6.317   2.332   1.902  0.8551  0.5818 -1.0227
   81MOL   O23430794   6.407   2.275   1.803  0.0843 -0.5234  0.1026
   81MOL   C23530795   6.369   2.170   1.723 -0.1748 -0.2761  0.0788
   81MOL   C23630796   6.243   2.104   1.736 -0.8468 -0.4595  0.3199
   81MOL   C23730797   6.210   1.997   1.646  0.8167  0.1424  0.1250
   81MOL   C23830798   6.313   1.945   1.562 -0.5079 -0.3078 -0.5393
   81MOL   C23930799   6.442   2.003   1.564  0.5107  0.0912  0.4267
   81MOL   C24030800   6.463   2.114   1.643 -0.3219 -0.7786 -0.3290
   81MOL   H24130801   6.395   2.595   2.134 -1.6307  0.5934  0.4441
   81MOL   H24230802   6.495   2.388   2.025 -0.8303  1.0607  3.2693
   81MOL   H24330803   6.225   2.376   1.865 -1.5745 -0.9194  2.9166
   81MOL   H24430804   6.285   2.250   1.967 -1.3778  0.8556 -1.7453
   81MOL   H24530805   6.179   2.140   1.815 -1.1727  0.6089 -0.4077
   81MOL   H24630806   6.108   1.962   1.646 -0.3330  3.1831 -3.1054
   81MOL   H24730807   6.285   1.858   1.504 -0.7173 -1.1262  0.7765
   81MOL   H24830808   6.527   1.972   1.505  0.7897  2.8309 -0.6908
   81MOL   C24930809   6.601   2.177   1.653 -0.0870  0.0918  0.1221
   81MOL   C25030810   6.691   2.147   1.761  0.7558 -0.1755 -0.6835
   81MOL   O25130811   6.698   2.073   1.636  0.1986  0.2849  0.0211
   81MOL   C25230812   6.652   2.061   1.878  0.7077  0.4791 -0.5069
   81MOL   O25330813   6.754   2.021   1.962 -0.2510  0.4314 -0.4512
   81MOL   C25430814   6.814   1.898   1.942 -0.0375 -0.4923 -0.1611
   81MOL   C25530815   6.821   1.814   1.824  0.2320 -0.4929  0.0227
   81MOL   C25630816   6.894   1.697   1.826 -0.2468  0.0129  0.5308
   81MOL   C25730817   6.966   1.653   1.945  0.9037  0.5514  0.4369
   81MOL   C25830818   6.951   1.735   2.062 -0.0166 -0.1003  0.4853
   81MOL   C25930819   6.875   1.851   2.059  0.2176  0.3872 -0.4214
   81MOL   H26030820   6.609   2.268   1.593 -1.0385 -0.6003 -1.0777
   81MOL   H26130821   6.775   2.213   1.782  0.2752  0.0870  0.4657
   81MOL   H26230822   6.601   1.969   1.848  0.4523 -0.0977  1.5561
   81MOL   H26330823   6.586   2.119   1.942  1.3984 -1.5672  2.1755
   81MOL   H26430824   6.776   1.841   1.730 -1.5347  0.0073  0.9914
   81MOL   H26530825   6.891   1.644   1.733  0.4715  0.9597 -0.0479
   81MOL   H26630826   7.016   1.558   1.935 -1.3836 -0.4999 -1.7416
   81MOL   H26730827   6.985   1.713   2.162 -0.8403  1.0423  1.0366
   81MOL   C26830828   6.865   1.936   2.183  0.1420  0.5651  0.2458
   81MOL   C26930829   6.747   1.958   2.280 -0.3070  0.0880  0.0629
   81MOL   O27030830   6.851   1.862   2.306  0.0180 -0.3211  0.4426
   81MOL   C27130831   6.606   1.903   2.263 -0.3584  0.9143 -0.2345
   81MOL   O27230832   6.560   1.898   2.394  0.4427 -0.2339  0.1999
   81MOL   C27330833   6.423   1.903   2.411 -0.2294  0.3476  0.0944
   81MOL   C27430834   6.329   1.890   2.300 -0.3363  0.2909  0.3588
   81MOL   C27530835   6.191   1.914   2.325  0.0536 -0.2021  0.8524
   81MOL   C27630836   6.149   1.940   2.458  0.2365  0.1020 -0.6871
   81MOL   C27730837   6.244   1.931   2.567 -1.1594 -0.6746 -0.0073
   81MOL   C27830838   6.381   1.911   2.542  0.3825 -0.0352  0.5830
   81MOL   H27930839   6.945   2.010   2.181  0.5887  0.0773 -1.4612
   81MOL   H28030840   6.756   2.054   2.332  1.6087 -0.1759  0.2246
   81MOL   H28130841   6.613   1.802   2.224  1.3177  0.9362 -0.0314
   81MOL   H28230842   6.554   1.975   2.199 -2.4985  0.7226  1.2187
   81MOL   H28330843   6.367   1.881   2.200 -1.5284  0.6401 -0.1365
   81MOL   H28430844   6.124   1.894   2.243  0.2530 -1.5164  1.0070
   81MOL   H28530845   6.043   1.958   2.467  0.1804  0.3667 -1.8427
   81MOL   H28630846   6.207   1.935   2.668 -0.8175 -0.1821  0.1014
   81MOL   C28730847   6.472   1.882   2.657  0.3646 -0.4496 -0.2539
   81MOL   C28830848   6.567   1.972   2.711 -0.3229 -0.0050  0.2827
   81MOL   O28930849   6.437   1.966   2.767  0.4897 -0.1272 -0.4468
   81MOL   C29030850   6.597   2.099   2.635 -1.0475  0.6531  0.5931
   81MOL   O29130851   6.691   2.188   2.706 -0.7419 -0.0634 -0.0571
   81MOL   C29230852   6.756   2.283   2.635 -0.5039  0.2875 -0.1240
   81MOL   C29330853   6.746   2.297   2.494  0.2136  0.0758 -0.5056
   81MOL   C29430854   6.817   2.397   2.427  0.6805 -0.1005 -0.1764
   81MOL   C29530855   6.915   2.478   2.495  0.8746  0.2737  0.9212
   81MOL   C29630856   6.926   2.458   2.632  0.3203 -0.5790  0.2370
   81MOL   C29730857   6.850   2.366   2.705 -0.3832 -0.3247 -0.3398
   81MOL   H29830858   6.495   1.776   2.667  0.3228 -1.0360 -5.0694
   81MOL   H29930859   6.648   1.910   2.747 -0.0991  0.1703  0.0822
   81MOL   H30030860   6.512   2.149   2.589 -1.2256 -0.5797 -0.4411
   81MOL   H30130861   6.671   2.065   2.563 -0.9538  0.1797  0.9137
   81MOL   H30230862   6.674   2.235   2.443  1.4181 -1.4237 -0.4259
   81MOL   H30330863   6.793   2.413   2.323  0.5776 -1.2354 -0.3330
   81MOL   H30430864   6.961   2.562   2.445  0.4897  0.9480  1.6915
   81MOL   H30530865   7.003   2.523   2.671  0.4101 -0.5227 -0.0343
   81MOL   C30630866   6.854   2.363   2.851 -1.3476  0.3780  0.4466
   81MOL   C30730867   6.941   2.268   2.931  0.3940 -0.0169  0.4440
   81MOL   O30830868   6.985   2.405   2.899  0.0497  0.6105  0.2725
   81MOL   C30930869   7.032   2.163   2.873  0.1331 -0.1257  0.5209
   81MOL   O31030870   7.064   2.059   2.974 -0.1819  0.4858  0.0779
   81MOL   C31130871   7.180   2.082   3.051 -0.1345  0.4121  0.2491
   81MOL   C31230872   7.232   2.210   3.073  0.1538  0.1485 -0.1302
   81MOL   C31330873   7.352   2.235   3.139  0.1936  0.0420 -0.2540
   81MOL   C31430874   7.407   2.125   3.211 -0.4459  0.1339 -0.0265
   81MOL   C31530875   7.350   1.995   3.204  0.0404 -0.0940 -0.7425
   81MOL   C31630876   7.243   1.976   3.117 -0.5367 -0.2757 -0.5745
   81MOL   H31730877   6.774   2.414   2.905 -2.6183 -2.5529  1.4157
   81MOL   H31830878   6.908   2.248   3.032 -0.9305  1.2125  0.2882
   81MOL   H31930879   7.117   2.212   2.827 -1.7021  0.8306 -1.9347
   81MOL   H32030880   6.977   2.109   2.796  0.1406  0.8073 -0.1430
   81MOL   H32130881   7.174   2.296   3.043 -0.9115 -1.0310 -1.5247
   81MOL   H32230882   7.397   2.331   3.161  2.0887 -0.3521 -2.3376
   81MOL   H32330883   7.498   2.141   3.268  1.1154  0.3102 -2.4986
   81MOL   H32430884   7.398   1.917   3.261  5.4087  2.9640 -0.7155
   81MOL   C32530885   7.181   1.841   3.107  0.3495 -1.0029 -0.7831
   81MOL   C32630886   7.207   1.748   2.985  0.1230  0.6114  0.2549
   81MOL   O32730887   7.275   1.732   3.115 -0.4705 -0.5500  0.4117
   81MOL   C32830888   7.285   1.806   2.864 -0.4432 -0.0726 -0.0016
   81MOL   O32930889   7.321   1.702   2.771  0.0457  0.1139 -0.2532
   81MOL   C33030890   7.431   1.633   2.803 -0.4083 -0.9668  0.3059
   81MOL   C33130891   7.427   1.539   2.910  0.0760  0.5472  0.7898
   81MOL   C33230892   7.549   1.467   2.940 -0.3132  0.0369  0.6734
   81MOL   C33330893   7.669   1.490   2.867  0.2750  0.1859 -0.7526
   81MOL   C33430894   7.666   1.577   2.753 -0.4452 -0.4553 -0.1274
   81MOL   C33530895   7.547   1.644   2.724 -0.6596 -0.1084  0.6535
   81MOL   H33630896   7.099   1.826   3.178  0.4877  2.2732  0.1538
   81MOL   H33730897   7.128   1.676   2.968 -1.0051  1.6408  1.1256
   81MOL   H33830898   7.373   1.854   2.905 -0.4097  0.3581 -0.5781
   81MOL   H33930899   7.237   1.883   2.803  0.2264  0.3119 -0.0470
   81MOL   H34030900   7.338   1.517   2.966 -3.2331  2.2790 -3.4800
   81MOL   H34130901   7.553   1.402   3.026 -0.8917 -1.0596 -0.1096
   81MOL   H34230902   7.750   1.421   2.887  0.0341  0.0145 -0.3674
   81MOL   H34330903   7.758   1.587   2.697 -1.4174  0.5388 -1.5596
   81MOL   C34430904   7.557   1.721   2.596 -0.0073 -0.0529  0.2228
   81MOL   C34530905   7.537   1.674   2.457  0.8563 -0.1582  0.3845
   81MOL   O34630906   7.430   1.732   2.533 -0.0809  0.0395  0.2833
   81MOL   C34730907   7.515   1.529   2.424  0.1001  0.3754  0.0451
   81MOL   O34830908   7.485   1.513   2.288  0.3357 -0.2668 -0.4497
   81MOL   C34930909   7.448   1.382   2.256  0.2373 -0.3695  0.1658
   81MOL   C35030910   7.491   1.265   2.323  0.4080 -0.1927  0.1906
   81MOL   C35130911   7.458   1.133   2.274 -0.6162 -0.8104 -0.3734
   81MOL   C35230912   7.374   1.128   2.163 -1.1119 -0.3462 -0.0177
   81MOL   C35330913   7.312   1.243   2.111  1.0135 -0.1893  0.2330
   81MOL   C35430914   7.352   1.367   2.152  0.0812  0.2384  0.4435
   81MOL   H35530915   7.611   1.813   2.615 -1.3915  0.9225 -0.4544
   81MOL   H35630916   7.574   1.737   2.376  1.9516  0.1981  1.1434
   81MOL   H35730917   7.441   1.490   2.494  0.5070  0.2199  0.3956
   81MOL   H35830918   7.611   1.488   2.454  0.4122  0.5203 -0.7448
   81MOL   H35930919   7.564   1.267   2.403 -2.3830  0.8970  2.8167
   81MOL   H36030920   7.494   1.045   2.325  0.9002 -0.9335 -1.6064
   81MOL   H36130921   7.351   1.039   2.106 -1.2208  0.9871 -2.1165
   81MOL   H36230922   7.233   1.230   2.038 -1.5593  0.5250  2.8107
   81MOL   C36330923   7.299   1.493   2.084 -0.1195  0.1707 -0.3793
   81MOL   C36430924   7.368   1.564   1.970  0.6733 -0.3411  0.3649
   81MOL   O36530925   7.262   1.468   1.949 -0.3078 -0.5459  0.3438
   81MOL   C36630926   7.500   1.534   1.912  0.5022  0.7844 -0.3361
   81MOL   O36730927   7.513   1.606   1.790 -0.3156 -0.1762  0.3405
   81MOL   C36830928   7.632   1.602   1.713  0.2156  0.1486  0.2489
   81MOL   C36930929   7.754   1.535   1.758 -0.2103  0.0083 -0.1633
   81MOL   C37030930   7.870   1.551   1.680  0.6926  0.3733 -0.7513
   81MOL   C37130931   7.872   1.632   1.564 -0.2231 -0.6310  0.6639
   81MOL   C37230932   7.755   1.705   1.532 -0.1018 -0.5132 -0.3496
   81MOL   C37330933   7.635   1.688   1.606  0.0930 -0.2124 -0.2361
   81MOL   H37430934   7.226   1.544   2.146 -2.3153 -1.5520 -1.4951
   81MOL   H37530935   7.344   1.670   1.963  1.0436 -0.2253  0.7991
   81MOL   H37630936   7.523   1.428   1.908  0.3432  0.8106 -2.8362
   81MOL   H37730937   7.573   1.586   1.974  1.0303  1.2200 -1.3166
   81MOL   H37830938   7.761   1.475   1.848  1.4298  0.0021 -0.2746
   81MOL   H37930939   7.958   1.494   1.705 -0.0152  0.6809  2.7701
   81MOL   H38030940   7.954   1.633   1.493 -1.4774 -0.6122 -0.8301
   81MOL   H38130941   7.761   1.765   1.442  1.1828 -0.3845 -0.1933
   81MOL   H38230942   7.543   1.735   1.574  0.9252 -0.3699 -3.0180
   82MOL     C130943   4.784   5.615   0.800 -0.3044 -0.3720 -0.1874
   82MOL     C230944   4.888   5.572   0.699 -0.9343 -0.1571 -0.0815
   82MOL     O330945   4.795   5.476   0.757 -0.1876  0.2565 -0.3228
   82MOL     C430946   5.041   5.533   0.731 -0.5718  0.0400  0.0770
   82MOL     O530947   5.073   5.570   0.867  1.3666  0.0842  0.4962
   82MOL     C630948   5.196   5.618   0.897 -0.5224 -0.1289 -0.7311
   82MOL     C730949   5.312   5.576   0.821 -0.2609  0.0569 -0.2613
   82MOL     C830950   5.440   5.608   0.866  0.1798  0.1049  0.6370
   82MOL     C930951   5.466   5.670   0.991  0.3193 -0.0372 -0.6673
   82MOL    C1030952   5.353   5.713   1.063  0.4064  0.0162 -0.4923
   82MOL    C1130953   5.221   5.684   1.021  1.2317 -0.1055 -0.3151
   82MOL    H1230954   4.695   5.667   0.767 -1.6261 -1.4892  1.5197
   82MOL    H1330955   4.868   5.596   0.595  0.2719  0.7203 -0.1179
   82MOL    H1430956   5.104   5.577   0.654  0.0839 -0.1777  0.4870
   82MOL    H1530957   5.049   5.425   0.721  0.7964  0.2328 -1.0381
   82MOL    H1630958   5.308   5.521   0.728  1.0136 -1.2398  0.4160
   82MOL    H1730959   5.525   5.591   0.802 -0.4409  0.4363 -0.2874
   82MOL    H1830960   5.564   5.687   1.032  0.6393 -1.8887 -0.6342
   82MOL    H1930961   5.368   5.766   1.156  2.9096  0.1200 -0.9293
   82MOL    H2030962   4.814   5.640   0.901 -1.8303 -0.3154  0.2538
   82MOL    C2130963   5.111   5.751   1.101  0.3793 -0.1470  0.6868
   82MOL    C2230964   5.086   5.902   1.092 -0.5823  0.3662 -0.0261
   82MOL    O2330965   5.011   5.814   1.016  0.5132  0.2366 -0.2110
   82MOL    C2430966   5.185   5.981   1.020  0.2097  0.6152  0.4519
   82MOL    O2530967   5.127   6.103   0.989 -0.2463 -0.3002  0.0516
   82MOL    C2630968   5.201   6.200   0.925  0.3688 -0.0821  0.0678
   82MOL    C2730969   5.311   6.159   0.843 -0.1029  0.4688  0.6121
   82MOL    C2830970   5.385   6.267   0.787 -0.3057  0.6363  0.0413
   82MOL    C2930971   5.335   6.403   0.804  0.1635 -0.2453 -0.4075
   82MOL    C3030972   5.226   6.442   0.873  0.0247  0.7898  0.2294
   82MOL    C3130973   5.154   6.336   0.945  0.5627 -0.8260 -0.0542
   82MOL    H3230974   5.082   5.682   1.180 -0.3908 -1.2252 -0.5208
   82MOL    H3330975   5.038   5.951   1.176 -1.0832 -1.0718  0.5410
   82MOL    H3430976   5.229   5.927   0.936  1.4112 -2.7232  3.0950
   82MOL    H3530977   5.268   5.998   1.088  0.1693 -0.7479  0.8633
   82MOL    H3630978   5.363   6.065   0.837  1.1419  1.0427  2.0991
   82MOL    H3730979   5.476   6.261   0.730 -0.8367  1.9953 -1.0062
   82MOL    H3830980   5.379   6.480   0.742 -0.0669 -0.5520 -0.9633
   82MOL    H3930981   5.195   6.545   0.880  4.4044  2.2233 -0.3674
   82MOL    C4030982   5.023   6.372   1.018  0.2065  0.1718 -0.1479
   82MOL    C4130983   5.009   6.453   1.148 -0.1340  0.2574 -0.7812
   82MOL    O4230984   4.996   6.510   1.016  0.2534 -0.7423  0.1709
   82MOL    C4330985   5.131   6.518   1.218 -0.7208  0.0903  0.2907
   82MOL    O4430986   5.148   6.465   1.343 -0.2281  0.3374 -0.2836
   82MOL    C4530987   5.253   6.504   1.423 -0.0407 -0.1782 -0.1434
   82MOL    C4630988   5.332   6.615   1.396  0.5144  0.3596  0.1680
   82MOL    C4730989   5.445   6.646   1.473  0.2964 -0.4313 -0.3759
   82MOL    C4830990   5.489   6.562   1.576  0.1808  0.1114 -0.5167
   82MOL    C4930991   5.412   6.447   1.603  0.1853  0.5282 -0.0245
   82MOL    C5030992   5.293   6.418   1.531 -0.3958  0.9109  0.3505
   82MOL    H5130993   4.942   6.319   0.967 -1.3972 -0.0210  2.5005
   82MOL    H5230994   4.920   6.457   1.210  1.1941  0.4885  1.1677
   82MOL    H5330995   5.117   6.626   1.221  2.2587  0.4975  1.2641
   82MOL    H5430996   5.227   6.497   1.171  0.4608  1.9666  1.8332
   82MOL    H5530997   5.305   6.675   1.311 -2.2277 -0.2471  0.5653
   82MOL    H5630998   5.495   6.738   1.444 -0.5269  1.1341  2.9397
   82MOL    H5730999   5.567   6.596   1.642  0.2729 -1.2555  0.0913
   82MOL    H5831000   5.429   6.386   1.691 -0.7952 -0.4031 -0.4684
   82MOL    C5931001   5.214   6.301   1.575 -0.0067 -0.1703  0.8475
   82MOL    C6031002   5.223   6.167   1.499 -0.5110  0.5059  0.2135
   82MOL    O6131003   5.291   6.191   1.627  0.0247 -0.1488 -0.6225
   82MOL    C6231004   5.306   6.151   1.376 -0.2162 -0.4012 -0.3424
   82MOL    O6331005   5.357   6.025   1.395  0.1685 -0.0832 -0.0006
   82MOL    C6431006   5.466   5.990   1.326 -0.3176 -0.3254  0.7912
   82MOL    C6531007   5.500   6.041   1.194 -0.1172 -0.3097  0.1962
   82MOL    C6631008   5.606   5.992   1.119 -0.3391  1.0414  0.5358
   82MOL    C6731009   5.688   5.895   1.178 -0.1861 -0.5937 -0.3618
   82MOL    C6831010   5.663   5.848   1.309  0.3042 -0.5470  0.3510
   82MOL    C6931011   5.554   5.897   1.380  0.5480 -0.0505  1.4897
   82MOL    H7031012   5.117   6.332   1.613  0.2659  0.0178  1.4139
   82MOL    H7131013   5.157   6.087   1.531 -0.1648 -0.1462 -0.6807
   82MOL    H7231014   5.388   6.223   1.368  0.0561 -0.7026 -0.3050
   82MOL    H7331015   5.245   6.172   1.289  0.8957  2.6783 -0.4345
   82MOL    H7431016   5.441   6.121   1.154 -0.1531 -0.3780  0.1120
   82MOL    H7531017   5.633   6.031   1.022 -2.0982  3.5718  1.0126
   82MOL    H7631018   5.772   5.863   1.119  0.5704  1.4482 -0.4294
   82MOL    H7731019   5.727   5.772   1.351  0.7605 -0.4214 -0.1111
   82MOL    C7831020   5.519   5.830   1.510 -0.0961  0.2356 -0.6918
   82MOL    C7931021   5.409   5.725   1.526 -0.1370 -0.0239  0.2354
   82MOL    O8031022   5.551   5.690   1.508  0.2938 -0.2868  0.1966
   82MOL    C8131023   5.324   5.681   1.410 -0.1969 -0.3578  0.0489
   82MOL    O8231024   5.215   5.598   1.467 -0.3210  0.5349  0.4690
   82MOL    C8331025   5.237   5.481   1.531 -0.2262 -0.4413 -0.4364
   82MOL    C8431026   5.353   5.404   1.501  0.1102  0.2788 -1.1792
   82MOL    C8531027   5.366   5.279   1.565  0.4607 -0.4723  0.2531
   82MOL    C8631028   5.284   5.244   1.670  0.4015 -0.1316  0.2258
   82MOL    C8731029   5.165   5.314   1.695 -0.6717 -0.2038  0.0594
   82MOL    C8831030   5.151   5.441   1.634 -0.4228  0.6386  0.2177
   82MOL    H8931031   5.558   5.888   1.594 -0.7354  0.6742 -0.6903
   82MOL    H9031032   5.370   5.704   1.625  1.1646 -0.7069  0.6075
   82MOL    H9131033   5.393   5.635   1.340  1.9888  0.8641  1.3412
   82MOL    H9231034   5.281   5.772   1.369 -3.0855 -1.6291  0.1466
   82MOL    H9331035   5.424   5.425   1.423  1.0272 -0.6540 -0.6104
   82MOL    H9431036   5.452   5.217   1.546  0.1974 -1.0016  0.7909
   82MOL    H9531037   5.307   5.154   1.726 -0.9324 -1.3683 -1.1427
   82MOL    H9631038   5.107   5.268   1.775 -2.2075 -1.5790 -1.7786
   82MOL    C9731039   5.023   5.511   1.662 -0.1229  0.5985 -0.1488
   82MOL    C9831040   4.975   5.567   1.791 -0.7999  0.7421  0.0167
   82MOL    O9931041   5.057   5.645   1.703  0.3188 -0.0108  0.0034
   82MOL   C10031042   5.028   5.550   1.934  0.9553  0.3984  0.7295
   82MOL   O10131043   5.152   5.483   1.965  0.3447  0.6599  0.1332
   82MOL   C10231044   5.183   5.452   2.097  0.3246 -0.1095  0.0053
   82MOL   C10331045   5.104   5.496   2.206  0.5311 -0.1121 -0.0760
   82MOL   C10431046   5.123   5.450   2.335  0.1987 -0.3042  0.1927
   82MOL   C10531047   5.239   5.377   2.361 -0.4781  0.3243 -0.7132
   82MOL   C10631048   5.315   5.331   2.252  0.1282  0.4521 -0.2507
   82MOL   C10731049   5.284   5.364   2.121  0.1707  0.2842 -0.4144
   82MOL   H10831050   4.944   5.492   1.589 -2.6601  0.7344  2.4444
   82MOL   H10931051   4.870   5.594   1.789 -1.9247 -2.9313  2.8563
   82MOL   H11031052   4.945   5.504   1.988  0.1991 -0.2935 -0.9809
   82MOL   H11131053   5.040   5.652   1.971  0.4370  0.6605  0.1741
   82MOL   H11231054   5.013   5.548   2.181 -0.0185 -0.9199  0.2092
   82MOL   H11331055   5.043   5.474   2.405 -0.4419  2.1713 -1.3377
   82MOL   H11431056   5.274   5.355   2.461  0.1932 -0.0805 -1.0335
   82MOL   H11531057   5.404   5.276   2.275  0.3170  1.2664  1.0139
   82MOL   C11631058   5.360   5.311   2.006 -0.5814  0.1300  0.6891
   82MOL   C11731059   5.458   5.385   1.911 -0.4340  0.0755  0.2819
   82MOL   O11831060   5.502   5.309   2.024 -0.3800 -0.1215 -0.1561
   82MOL   C11931061   5.481   5.527   1.916  0.3046  0.1038  0.6969
   82MOL   O12031062   5.619   5.549   1.916 -0.0319 -0.0403  0.0031
   82MOL   C12131063   5.684   5.671   1.906 -0.2694  0.7323 -0.4435
   82MOL   C12231064   5.614   5.791   1.888  0.0425 -0.0311 -0.2508
   82MOL   C12331065   5.689   5.913   1.872  0.5895 -0.1523 -0.8926
   82MOL   C12431066   5.828   5.917   1.894  0.5241  0.1164  0.6711
   82MOL   C12531067   5.899   5.790   1.904  0.3695 -0.0428 -0.1088
   82MOL   C12631068   5.831   5.668   1.910 -0.0854  0.4575 -0.3598
   82MOL   H12731069   5.328   5.212   1.972 -2.8948  0.9826  0.3305
   82MOL   H12831070   5.514   5.343   1.828  0.2021  0.1191  0.6900
   82MOL   H12931071   5.447   5.572   2.010 -1.1411  0.8434 -0.1573
   82MOL   H13031072   5.433   5.576   1.832  0.2649  1.0532  1.2716
   82MOL   H13131073   5.507   5.801   1.875  0.3928  0.6426 -2.7334
   82MOL   H13231074   5.627   6.001   1.865 -2.3083 -2.0781 -0.4507
   82MOL   H13331075   5.881   6.009   1.873  1.0274 -0.1943  0.5941
   82MOL   H13431076   6.006   5.800   1.905  0.2082  1.8912 -0.1134
   82MOL   C13531077   5.916   5.537   1.928  0.0489  0.1805 -0.5718
   82MOL   C13631078   5.931   5.432   1.823 -0.8685 -0.0941  0.1759
   82MOL   O13731079   6.033   5.528   1.851 -0.2620  0.5652 -0.3064
   82MOL   C13831080   5.851   5.442   1.692 -0.6261  0.6677 -0.6433
   82MOL   O13931081   5.925   5.357   1.605  0.3050  0.5404  0.4450
   82MOL   C14031082   5.924   5.407   1.475 -0.1029  0.0340  0.0668
   82MOL   C14131083   5.798   5.443   1.420  0.4669 -0.0583  0.1821
   82MOL   C14231084   5.792   5.494   1.289 -0.8437 -0.2271 -0.1233
   82MOL   C14331085   5.907   5.513   1.219  0.1168  0.1387  0.0592
   82MOL   C14431086   6.033   5.470   1.267  0.1243 -0.2825  0.4054
   82MOL   C14531087   6.043   5.417   1.403 -0.0090  1.0198 -0.4249
   82MOL   H14631088   5.929   5.507   2.031 -0.8331  0.2502 -0.4356
   82MOL   H14731089   5.935   5.330   1.861  0.6974  0.0271  0.3968
   82MOL   H14831090   5.846   5.546   1.663 -1.9744  0.8668  0.2377
   82MOL   H14931091   5.754   5.391   1.702  0.5563 -1.0764  2.8709
   82MOL   H15031092   5.703   5.427   1.467 -0.3354  1.4173 -0.8952
   82MOL   H15131093   5.701   5.534   1.247  0.5165  2.6226 -0.5137
   82MOL   H15231094   5.901   5.550   1.118  0.2590 -1.5299 -0.5835
   82MOL   H15331095   6.120   5.498   1.211 -1.9392  1.1249 -2.2299
   82MOL   C15431096   6.174   5.380   1.471  0.0293 -0.0723  0.4604
   82MOL   C15531097   6.243   5.250   1.465  0.2177 -0.6499  0.2186
   82MOL   O15631098   6.274   5.355   1.374  0.0985 -0.1664  0.7314
   82MOL   C15731099   6.189   5.128   1.398 -0.4606 -0.1346 -0.1899
   82MOL   O15831100   6.300   5.058   1.338 -0.0335 -0.0959 -0.5573
   82MOL   C15931101   6.263   4.997   1.225  0.3719  0.1385  0.5780
   82MOL   C16031102   6.187   4.880   1.228 -0.0691 -0.2038  0.5671
   82MOL   C16131103   6.147   4.811   1.113  0.2964 -0.6951  0.6613
   82MOL   C16231104   6.181   4.864   0.989 -0.4560  0.2000 -0.1247
   82MOL   C16331105   6.255   4.988   0.987 -0.1524  0.0824 -0.6218
   82MOL   C16431106   6.290   5.058   1.105  0.0017 -0.5633 -0.1517
   82MOL   H16531107   6.203   5.453   1.546 -1.0269  0.3743  0.4463
   82MOL   H16631108   6.325   5.223   1.532  0.7374 -0.9963 -0.5614
   82MOL   H16731109   6.111   5.150   1.325  0.4048 -0.0652 -1.1032
   82MOL   H16831110   6.136   5.075   1.477  0.3178 -0.2919  0.2301
   82MOL   H16931111   6.157   4.832   1.320  0.3093 -1.3459  0.1033
   82MOL   H17031112   6.081   4.727   1.132 -0.1402 -0.6232 -0.4942
   82MOL   H17131113   6.167   4.806   0.899 -0.9413  0.9739 -0.5511
   82MOL   H17231114   6.277   5.035   0.892  1.8796  2.9763  1.2173
   82MOL   C17331115   6.349   5.187   1.095  0.1850 -0.3278 -0.0165
   82MOL   C17431116   6.494   5.223   1.133 -0.3025 -0.0906 -0.4574
   82MOL   O17531117   6.450   5.194   0.996 -0.2955 -0.0903 -0.0604
   82MOL   C17631118   6.588   5.124   1.192  0.3393  0.2501 -0.6752
   82MOL   O17731119   6.722   5.148   1.154  0.5390 -0.1371 -0.6610
   82MOL   C17831120   6.821   5.059   1.182 -0.0275 -0.6789  0.3953
   82MOL   C17931121   6.818   4.996   1.304  0.1003 -0.7871  0.6889
   82MOL   C18031122   6.928   4.914   1.344  0.9533 -0.3168  0.2055
   82MOL   C18131123   7.023   4.875   1.243  0.8896  0.2845 -0.3901
   82MOL   C18231124   7.011   4.928   1.115 -0.0884 -0.6361 -0.0154
   82MOL   C18331125   6.913   5.024   1.083 -0.5688 -0.4877 -0.4467
   82MOL   H18431126   6.275   5.265   1.110  1.2539  0.7758 -0.3564
   82MOL   H18531127   6.528   5.326   1.144  1.7408 -0.8854  0.8603
   82MOL   H18631128   6.556   5.020   1.186  0.9414  0.0855 -1.0300
   82MOL   H18731129   6.580   5.141   1.300  0.9115  0.5981 -0.6855
   82MOL   H18831130   6.742   5.025   1.375 -0.5360  0.6130 -0.5403
   82MOL   H18931131   6.926   4.876   1.445  1.1776  0.2857  0.4405
   82MOL   H19031132   7.108   4.815   1.272  1.8104  2.2954  1.2325
   82MOL   H19131133   7.080   4.904   1.035 -0.7508  2.5669 -1.5975
   82MOL   C19231134   6.906   5.096   0.949  0.7321 -0.5416  0.2484
   82MOL   C19331135   7.027   5.156   0.880 -0.3056 -0.7196 -0.6270
   82MOL   O19431136   6.970   5.030   0.838  0.3824  0.5049 -0.5890
   82MOL   C19531137   7.176   5.149   0.935  0.0416  0.3244  0.2360
   82MOL   O19631138   7.252   5.071   0.846  0.4137 -0.1687  0.5471
   82MOL   C19731139   7.389   5.075   0.853  0.1188  0.0666  0.3501
   82MOL   C19831140   7.457   5.170   0.935  0.3124 -0.4352 -0.0729
   82MOL   C19931141   7.594   5.181   0.920 -0.3213 -0.0496  0.2236
   82MOL   C20031142   7.663   5.100   0.834 -0.8666  0.0456  0.1739
   82MOL   C20131143   7.594   5.006   0.755 -1.1866  0.3183  0.3100
   82MOL   C20231144   7.457   4.988   0.768 -0.3774 -0.0243  0.0093
   82MOL   H20331145   6.806   5.120   0.915  1.5457 -0.4715 -2.2591
   82MOL   H20431146   7.022   5.238   0.808  1.7678 -0.9356 -1.0284
   82MOL   H20531147   7.176   5.122   1.041  1.2792  0.4841  0.2915
   82MOL   H20631148   7.202   5.254   0.934 -1.7883  0.7921  0.2864
   82MOL   H20731149   7.403   5.234   1.003 -1.1334  0.0469 -1.6424
   82MOL   H20831150   7.653   5.255   0.971 -0.9661  0.1717  0.6574
   82MOL   H20931151   7.768   5.107   0.807 -0.0164 -2.9400  2.4834
   82MOL   H21031152   7.649   4.941   0.688 -1.7421 -1.0823  1.1923
   82MOL   C21131153   7.378   4.892   0.685  0.0524 -0.2787  0.5105
   82MOL   C21231154   7.320   4.934   0.549  0.5560 -0.0673 -0.1666
   82MOL   O21331155   7.447   4.869   0.565 -0.2706 -0.5834  0.6581
   82MOL   C21431156   7.332   5.069   0.477  0.1255 -0.5524  0.5618
   82MOL   O21531157   7.243   5.077   0.373 -0.1475  0.0392 -0.1976
   82MOL   C21631158   7.106   5.065   0.394 -0.1433 -0.6302  0.0195
   82MOL   C21731159   7.049   5.064   0.524 -0.5847 -1.3430  0.9862
   82MOL   C21831160   6.910   5.080   0.535 -0.3932 -0.1638 -0.3653
   82MOL   C21931161   6.830   5.068   0.416  0.5317 -0.1071 -0.5244
   82MOL   C22031162   6.886   5.058   0.286 -0.3030 -0.1427 -0.3767
   82MOL   C22131163   7.026   5.049   0.275 -0.1747 -0.5317  0.6370
   82MOL   H22231164   7.343   4.802   0.734 -0.9853 -0.7310 -1.0476
   82MOL   H22331165   7.237   4.867   0.525  0.5607  0.1158 -0.6897
   82MOL   H22431166   7.432   5.088   0.438  0.4295 -0.1797  1.5098
   82MOL   H22531167   7.313   5.154   0.543  2.6214 -0.1732  0.8496
   82MOL   H22631168   7.114   5.071   0.610  1.9469  1.2884 -1.0806
   82MOL   H22731169   6.869   5.091   0.635 -0.6927 -0.0373 -0.5031
   82MOL   H22831170   6.722   5.074   0.427  0.8411  1.7023  2.0692
   82MOL   H22931171   6.825   5.051   0.197 -0.9512  0.2664  0.0306
   82MOL   C23031172   7.084   5.043   0.132 -0.2670 -0.5820 -0.6140
   82MOL   C23131173   7.157   4.921   0.077 -0.3354 -0.5003 -0.3846
   82MOL   O23231174   7.019   4.944   0.047  1.0178  0.3149 -0.2328
   82MOL   C23331175   7.193   4.798   0.152  0.5880 -0.3880  0.1552
   82MOL   O23431176   7.335   4.795   0.182 -0.5791  0.4953 -0.4110
   82MOL   C23531177   7.427   4.754   0.088 -0.2545  0.1354  0.6111
   82MOL   C23631178   7.411   4.640   0.002  0.4560 -0.9600  0.2350
   82MOL   C23731179   7.516   4.599   8.088  0.5246 -0.2061  0.6671
   82MOL   C23831180   7.615   4.690   8.059  0.3163  0.7081  0.3458
   82MOL   C23931181   7.619   4.815   8.123  0.0181  0.6246 -0.1499
   82MOL   C24031182   7.535   4.839   0.063  0.2500 -0.0218 -0.1614
   82MOL   H24131183   7.095   5.139   0.082  1.6911  0.5378  1.8632
   82MOL   H24231184   7.207   4.942   8.152  0.1619  0.8294  0.1661
   82MOL   H24331185   7.162   4.713   0.093 -0.4435 -0.6116  1.0056
   82MOL   H24431186   7.139   4.795   0.247 -0.9229  0.1782 -0.6768
   82MOL   H24531187   7.331   4.571   0.026 -2.5257  2.3948  0.4549
   82MOL   H24631188   7.510   4.503   8.040 -0.7827 -0.2062  0.8000
   82MOL   H24731189   7.691   4.656   7.990 -2.0416 -2.2752 -0.9371
   82MOL   H24831190   7.692   4.887   8.091  1.9619 -0.3129  2.0408
   82MOL   C24931191   7.548   4.964   0.143 -0.2049 -0.2721 -0.2390
   82MOL   C25031192   7.646   4.962   0.262 -0.1157 -0.3510 -0.1658
   82MOL   O25131193   7.677   5.024   0.138 -0.0731 -0.5785 -0.4846
   82MOL   C25231194   7.734   4.847   0.302 -0.4370  0.1083  0.2422
   82MOL   O25331195   7.784   4.870   0.430  0.3572 -0.4353 -0.3137
   82MOL   C25431196   7.871   4.769   0.476  0.5517 -0.3889 -0.2444
   82MOL   C25531197   8.005   4.783   0.441 -0.4466 -0.5299 -0.2176
   82MOL   C25631198   8.100   4.682   0.480 -0.8281 -0.2266  0.2103
   82MOL   C25731199   8.050   4.559   0.535  1.1195  0.2545 -0.9084
   82MOL   C25831200   7.913   4.545   0.561 -0.0826 -0.0303 -0.1709
   82MOL   C25931201   7.821   4.655   0.542  0.3186  0.1041  1.1378
   82MOL   H26031202   7.470   5.039   0.149 -0.2866 -0.2919 -1.0379
   82MOL   H26131203   7.620   5.030   0.343  0.7296  0.7564 -0.8014
   82MOL   H26231204   7.810   4.828   0.226  0.1073 -1.5796  1.1948
   82MOL   H26331205   7.683   4.750   0.301  1.2871 -0.8285  1.6463
   82MOL   H26431206   8.034   4.876   0.394  1.1749 -0.4509  0.8956
   82MOL   H26531207   0.035   4.698   0.462 -0.9490  1.8514  1.1517
   82MOL   H26631208   8.108   4.471   0.557  1.9455  0.6422 -1.5139
   82MOL   H26731209   7.865   4.455   0.596 -1.0477  0.3490 -0.4869
   82MOL   C26831210   7.685   4.647   0.585 -0.1244 -0.5038 -0.0821
   82MOL   C26931211   7.570   4.595   0.519  1.1954  0.0833  0.3965
   82MOL   O27031212   7.639   4.515   0.622  0.2017  0.2231  0.2084
   82MOL   C27131213   7.575   4.525   0.385  0.4127 -0.1981  0.6932
   82MOL   O27231214   7.487   4.417   0.356 -0.6476 -0.1535  0.7765
   82MOL   C27331215   7.493   4.348   0.240  0.6929 -0.7151  0.0927
   82MOL   C27431216   7.593   4.378   0.141  0.1095  0.3157  0.4330
   82MOL   C27531217   7.598   4.299   0.024 -0.1756 -0.0272 -0.4378
   82MOL   C27631218   7.512   4.192   0.002  0.3082 -0.4233 -0.1815
   82MOL   C27731219   7.412   4.165   0.096 -0.2139 -0.5572  0.3485
   82MOL   C27831220   7.397   4.244   0.211  0.5518  0.4225 -0.1956
   82MOL   H27931221   7.674   4.725   0.660  0.8770 -0.3559 -0.0794
   82MOL   H28031222   7.470   4.630   0.543  0.9940 -1.2090  1.4949
   82MOL   H28131223   7.679   4.498   0.368 -0.3061 -1.0326 -2.6857
   82MOL   H28231224   7.543   4.600   0.313 -0.4411 -1.3413 -0.1461
   82MOL   H28331225   7.653   4.466   0.157  1.6133 -1.0641  2.4312
   82MOL   H28431226   7.671   4.321   8.118 -1.3748  1.5020 -1.1844
   82MOL   H28531227   7.530   4.126   8.088  0.2218 -1.3336  0.5199
   82MOL   H28631228   7.351   4.081   0.065 -1.5117  0.5135 -0.0536
   82MOL   C28731229   7.285   4.218   0.312 -0.8193 -0.6749 -0.5442
   82MOL   C28831230   7.175   4.318   0.345  0.1431  0.2841  0.0839
   82MOL   O28931231   7.157   4.202   0.265  0.2705 -0.4178 -0.2111
   82MOL   C29031232   7.177   4.459   0.288  0.0292  0.4364  0.0316
   82MOL   O29131233   7.057   4.530   0.311 -0.3395  0.1526  0.6617
   82MOL   C29231234   7.043   4.601   0.429  0.1236 -0.2174  0.3185
   82MOL   C29331235   7.133   4.598   0.543 -0.0897 -0.0926  0.2610
   82MOL   C29431236   7.106   4.664   0.661 -0.2440  0.2420 -0.1665
   82MOL   C29531237   6.985   4.738   0.672 -0.7845  0.2295 -0.8172
   82MOL   C29631238   6.895   4.745   0.565  0.4146 -0.2011  0.4332
   82MOL   C29731239   6.920   4.671   0.444 -0.4860 -0.3297  0.0448
   82MOL   H29831240   7.314   4.155   0.396  2.1252  0.6139 -0.5508
   82MOL   H29931241   7.141   4.314   0.448 -0.1924 -0.8283 -0.0564
   82MOL   H30031242   7.198   4.454   0.181 -0.6757 -0.0307 -0.0907
   82MOL   H30131243   7.259   4.516   0.332 -0.2000 -1.6805  3.4322
   82MOL   H30231244   7.229   4.549   0.548  0.2220  0.5462  0.4650
   82MOL   H30331245   7.177   4.660   0.743 -0.2140 -0.3713 -0.2210
   82MOL   H30431246   6.961   4.794   0.762  0.3491  3.6472 -2.5499
   82MOL   H30531247   6.794   4.782   0.578  0.0404 -1.6201  1.7577
   82MOL   C30631248   6.824   4.688   0.328 -0.3782 -0.5797 -0.2990
   82MOL   C30731249   6.703   4.590   0.314  0.5881  0.1080  0.1093
   82MOL   O30831250   6.693   4.725   0.359 -0.0002  0.1494  0.1045
   82MOL   C30931251   6.699   4.472   0.412 -0.2531  0.0830 -0.4376
   82MOL   O31031252   6.566   4.428   0.432  0.0089 -0.2559  0.1486
   82MOL   C31131253   6.484   4.392   0.326  0.0114 -0.4233  0.3805
   82MOL   C31231254   6.535   4.321   0.216 -0.4959 -1.2707 -0.0107
   82MOL   C31331255   6.454   4.283   0.109  0.3301  0.3339 -0.4174
   82MOL   C31431256   6.316   4.313   0.119 -0.3159 -0.1526 -0.0192
   82MOL   C31531257   6.267   4.394   0.223 -0.0222  0.4187 -0.6351
   82MOL   C31631258   6.347   4.430   0.334 -0.7522 -0.1360  0.1437
   82MOL   H31731259   6.869   4.736   0.242 -0.8900  1.9129  0.7939
   82MOL   H31831260   6.639   4.596   0.227  1.3797 -1.0143 -0.5640
   82MOL   H31931261   6.719   4.517   0.509 -0.9837  0.7343 -0.5821
   82MOL   H32031262   6.774   4.398   0.384 -1.4841  0.3394 -4.6818
   82MOL   H32131263   6.638   4.287   0.218  0.0957  0.4277 -0.6295
   82MOL   H32231264   6.491   4.216   0.032  0.8666  0.8470 -0.6070
   82MOL   H32331265   6.253   4.275   0.041  0.6965 -0.6781 -0.5841
   82MOL   H32431266   6.165   4.429   0.222  0.0521  0.6377 -2.1809
   82MOL   C32531267   6.297   4.500   0.457  0.0034  0.6851  0.1979
   82MOL   C32631268   6.298   4.644   0.480  0.0424 -0.3125  0.3363
   82MOL   O32731269   6.179   4.577   0.440 -0.5479  0.5553  0.2658
   82MOL   C32831270   6.348   4.737   0.370 -0.4573 -0.2055 -0.1881
   82MOL   O32931271   6.324   4.878   0.390 -0.1810  0.3864 -0.1331
   82MOL   C33031272   6.395   4.941   0.486  0.0153  0.1529 -0.6700
   82MOL   C33131273   6.499   4.886   0.569  0.1122 -0.4960  0.5267
   82MOL   C33231274   6.564   4.963   0.665 -0.2329  0.5136  0.1563
   82MOL   C33331275   6.529   5.095   0.684  0.0794  0.1825  0.3735
   82MOL   C33431276   6.433   5.151   0.600 -0.4897 -0.0961  0.0883
   82MOL   C33531277   6.357   5.078   0.506  0.5941  0.6011 -0.6833
   82MOL   H33631278   6.304   4.445   0.551 -0.3832  1.3026  0.5921
   82MOL   H33731279   6.295   4.683   0.581 -0.7804 -0.1781  0.2663
   82MOL   H33831280   6.315   4.720   0.268 -1.0705 -2.2804  0.3322
   82MOL   H33931281   6.455   4.718   0.364 -0.0121  2.3734 -1.3399
   82MOL   H34031282   6.502   4.778   0.577  1.2521 -0.4375  1.0237
   82MOL   H34131283   6.638   4.927   0.735 -1.3119 -0.5276  0.7836
   82MOL   H34231284   6.584   5.157   0.753 -0.2832  1.8285 -0.7771
   82MOL   H34331285   6.414   5.255   0.620  2.5700  0.0212  2.7517
   82MOL   C34431286   6.246   5.140   0.423  0.3908 -0.4744  0.2025
   82MOL   C34531287   6.099   5.113   0.440 -0.3117  0.0657  0.3879
   82MOL   O34631288   6.163   5.232   0.503 -0.2973  0.3231 -1.2538
   82MOL   C34731289   6.057   5.004   0.531 -0.0072 -0.0275  0.7385
   82MOL   O34831290   5.917   4.985   0.520  0.4520 -0.3117  0.2216
   82MOL   C34931291   5.842   4.946   0.632  0.4515 -0.3918 -0.1812
   82MOL   C35031292   5.899   4.911   0.755  0.3227  0.6452  0.5069
   82MOL   C35131293   5.827   4.859   0.863 -0.8330 -0.1818 -0.1762
   82MOL   C35231294   5.689   4.848   0.847 -0.2076  0.2069 -0.1190
   82MOL   C35331295   5.624   4.895   0.732  0.5546  1.0649  0.9931
   82MOL   C35431296   5.701   4.943   0.622 -0.5685 -0.6007  0.7455
   82MOL   H35531297   6.283   5.184   0.330 -1.3883 -0.3299 -0.4726
   82MOL   H35631298   6.017   5.145   0.375 -0.8484 -1.3820  0.3495
   82MOL   H35731299   6.093   5.034   0.629 -0.2956  1.6702  0.3441
   82MOL   H35831300   6.102   4.907   0.505 -0.0061  0.5326 -1.4884
   82MOL   H35931301   6.005   4.914   0.773  0.2477 -0.5328  1.2426
   82MOL   H36031302   5.871   4.832   0.958 -1.3672 -0.2864  0.0475
   82MOL   H36131303   5.628   4.817   0.930  0.2838 -2.2029 -0.6272
   82MOL   H36231304   5.516   4.891   0.731  0.6309 -1.9610 -1.0624
   82MOL   C36331305   5.626   4.987   0.498  0.3622  0.3008 -0.5371
   82MOL   C36431306   5.637   4.909   0.363 -0.5215  0.3944  0.2647
   82MOL   O36531307   5.523   4.896   0.456  0.3612 -0.2101  0.6620
   82MOL   C36631308   5.720   4.791   0.350  0.2061 -0.2747  0.7724
   82MOL   O36731309   5.691   4.719   0.233  0.2798  0.5333  0.8584
   82MOL   C36831310   5.752   4.596   0.220  0.2227 -0.1966 -0.1917
   82MOL   C36931311   5.718   4.518   0.107 -0.1864  0.5974  0.5979
   82MOL   C37031312   5.781   4.399   0.082 -0.5204  0.5247 -0.1317
   82MOL   C37131313   5.862   4.342   0.177  0.4661 -0.0698  0.0301
   82MOL   C37231314   5.887   4.403   0.302  0.2428  0.7292 -1.1937
   82MOL   C37331315   5.840   4.540   0.317 -0.5196  0.3027 -0.2739
   82MOL   H37431316   5.583   5.086   0.512 -0.3830  0.1600 -1.7816
   82MOL   H37531317   5.635   4.967   0.271 -0.5925 -0.4792 -0.2886
   82MOL   H37631318   5.706   4.728   0.438 -2.1013 -0.6204  0.1908
   82MOL   H37731319   5.820   4.834   0.355 -0.0829  0.6847 -1.4785
   82MOL   H37831320   5.646   4.552   0.035 -0.3358 -1.4117 -0.2319
   82MOL   H37931321   5.759   4.352   8.158  0.6831 -0.1754 -0.0741
   82MOL   H38031322   5.912   4.251   0.147  0.1901  0.4855 -2.1605
   82MOL   H38131323   5.943   4.358   0.383 -1.6664 -0.8699 -0.7490
   82MOL   H38231324   5.873   4.584   0.410  0.0337 -0.8618  0.0904
   83MOL     C131325   2.944   0.685   5.159 -0.1318 -0.4757 -0.1118
   83MOL     C231326   2.862   0.605   5.059  0.4770  0.4700 -0.5217
   83MOL     O331327   2.802   0.683   5.158  0.5230  0.1118 -0.1229
   83MOL     C431328   2.855   0.454   5.072  0.1651 -0.0173 -0.2246
   83MOL     O531329   2.937   0.410   5.178 -0.0719  0.1755  0.1852
   83MOL     C631330   2.941   0.271   5.189  0.5952 -0.6663  0.5899
   83MOL     C731331   2.841   0.182   5.147 -0.7514 -0.2423 -0.2076
   83MOL     C831332   2.864   0.038   5.148 -0.2345 -0.5480  0.2579
   83MOL     C931333   2.982   8.156   5.206  0.6223 -0.9677  0.7501
   83MOL    C1031334   3.072   0.079   5.264 -0.0448  1.0838 -0.1282
   83MOL    C1131335   3.054   0.219   5.253  0.1583 -0.4324 -0.3056
   83MOL    H1231336   2.983   0.785   5.140 -1.6290  0.5082  1.7527
   83MOL    H1331337   2.848   0.636   4.955  0.5766  3.2451  0.2609
   83MOL    H1431338   2.891   0.406   4.981  2.7266 -3.0166  2.2581
   83MOL    H1531339   2.750   0.429   5.087 -0.1210 -0.3422 -2.6465
   83MOL    H1631340   2.741   0.208   5.118  0.2880  1.3095 -2.5628
   83MOL    H1731341   2.785   8.146   5.109 -1.2929  1.4373 -0.8621
   83MOL    H1831342   2.991   8.049   5.211 -1.4899 -1.1260  1.6186
   83MOL    H1931343   3.161   0.037   5.309 -0.7308 -0.4897 -0.2207
   83MOL    H2031344   2.974   0.639   5.252 -2.0358  1.0027  1.2784
   83MOL    C2131345   3.171   0.305   5.294  0.4995 -0.2092  0.2763
   83MOL    C2231346   3.175   0.401   5.405  0.3924 -0.3257 -0.3526
   83MOL    O2331347   3.228   0.266   5.415  0.2066 -0.0692 -0.1340
   83MOL    C2431348   3.057   0.427   5.492 -0.4281  0.6859 -0.6841
   83MOL    O2531349   3.108   0.437   5.628 -0.1959 -0.7060 -0.2825
   83MOL    C2631350   3.096   0.336   5.721 -0.7064 -0.1894 -0.3027
   83MOL    C2731351   3.094   0.195   5.687  0.3821  0.0179  0.3242
   83MOL    C2831352   3.097   0.096   5.789 -0.2006  0.6447 -0.0671
   83MOL    C2931353   3.108   0.139   5.925  0.4050  0.5040  0.6760
   83MOL    C3031354   3.109   0.274   5.956 -0.3239  0.5292 -0.3725
   83MOL    C3131355   3.095   0.374   5.859 -0.3028  0.5082 -0.0182
   83MOL    H3231356   3.254   0.307   5.224 -0.7222  3.5342 -1.2035
   83MOL    H3331357   3.258   0.471   5.405  0.6022 -0.5585 -2.0973
   83MOL    H3431358   2.985   0.345   5.488 -0.4713  0.7003 -0.2290
   83MOL    H3531359   3.024   0.527   5.462 -0.6579  0.0226 -2.7557
   83MOL    H3631360   3.076   0.149   5.591 -1.7320 -0.0028  0.7260
   83MOL    H3731361   3.097   8.161   5.765 -0.6768  0.2515  1.6306
   83MOL    H3831362   3.118   0.066   6.004  1.5952 -0.3784 -0.2750
   83MOL    H3931363   3.118   0.310   6.058  0.5266 -0.5249 -0.0710
   83MOL    C4031364   3.096   0.519   5.899 -0.1849  1.1616  0.1341
   83MOL    C4131365   2.972   0.597   5.939  0.4696  0.0719  0.5029
   83MOL    O4231366   3.073   0.559   6.036  0.4693  0.1613 -1.0690
   83MOL    C4331367   2.839   0.529   5.944  0.3277  0.1479 -0.2658
   83MOL    O4431368   2.748   0.593   6.040 -0.1988  0.0465 -0.4692
   83MOL    C4531369   2.612   0.565   6.038  0.0014  0.4726 -0.6540
   83MOL    C4631370   2.556   0.474   5.946 -0.1981  0.4618 -0.2002
   83MOL    C4731371   2.421   0.446   5.948 -0.2245 -0.1691 -0.0323
   83MOL    C4831372   2.334   0.516   6.037 -0.3853 -0.3188 -0.8663
   83MOL    C4931373   2.390   0.615   6.119 -0.6863  0.3107  0.2815
   83MOL    C5031374   2.528   0.641   6.126 -0.0243 -0.6349  0.6961
   83MOL    H5131375   3.183   0.571   5.861  0.0992 -0.4966 -1.5592
   83MOL    H5231376   2.973   0.700   5.904 -0.3672  0.4053  1.4322
   83MOL    H5331377   2.831   0.425   5.977 -0.1096  0.2816  0.0549
   83MOL    H5431378   2.802   0.534   5.842 -0.8560  1.9082  0.2209
   83MOL    H5531379   2.611   0.412   5.876  0.0351 -0.1379  0.5078
   83MOL    H5631380   2.380   0.370   5.884  0.4692  0.9666 -1.8582
   83MOL    H5731381   2.229   0.492   6.033 -0.2206 -1.3174  0.3129
   83MOL    H5831382   2.325   0.674   6.182  1.0794  1.1105  1.3891
   83MOL    C5931383   2.583   0.753   6.204  0.0722 -0.1844 -0.4757
   83MOL    C6031384   2.588   0.893   6.150 -0.1084  0.0010 -0.2968
   83MOL    O6131385   2.490   0.841   6.248  0.0502  0.0109 -0.3837
   83MOL    C6231386   2.525   0.926   6.022 -0.3147 -0.0374  0.3890
   83MOL    O6331387   2.553   1.055   5.975  0.2580 -0.0978  0.2347
   83MOL    C6431388   2.481   1.162   6.021 -0.4447  0.1903 -0.0669
   83MOL    C6531389   2.349   1.145   6.060  0.5919  0.2040 -0.3759
   83MOL    C6631390   2.279   1.256   6.103  0.3824 -0.0003  0.1015
   83MOL    C6731391   2.336   1.384   6.091 -0.2319  0.0297  0.2828
   83MOL    C6831392   2.464   1.405   6.032  0.8064 -0.0693 -0.4017
   83MOL    C6931393   2.541   1.293   6.001 -0.0529  0.0768  0.0739
   83MOL    H7031394   2.649   0.720   6.285  0.3843  0.7627 -0.3377
   83MOL    H7131395   2.673   0.953   6.181  0.9119 -0.4313 -2.1616
   83MOL    H7231396   2.418   0.910   6.029 -0.5343 -0.0311 -2.1781
   83MOL    H7331397   2.557   0.856   5.944 -0.8474 -1.6431  1.5909
   83MOL    H7431398   2.297   1.050   6.058  0.4133  0.3201 -2.5595
   83MOL    H7531399   2.179   1.247   6.142  0.2782 -2.3935 -0.6706
   83MOL    H7631400   2.276   1.468   6.123  0.3354 -0.2658  2.2109
   83MOL    H7731401   2.498   1.507   6.024 -0.9978  0.5734 -0.2013
   83MOL    C7831402   2.677   1.309   5.943 -0.3655 -0.3050  0.5537
   83MOL    C7931403   2.710   1.387   5.818  0.0335 -0.2714 -0.3298
   83MOL    O8031404   2.738   1.436   5.949  0.4978  0.2900 -0.1915
   83MOL    C8131405   2.628   1.474   5.734  0.1453 -0.0873  0.8204
   83MOL    O8231406   2.705   1.505   5.615 -0.3194  0.4483 -0.2913
   83MOL    C8331407   2.787   1.610   5.592 -0.2841  0.0982 -0.4323
   83MOL    C8431408   2.836   1.690   5.697 -0.0688  0.0705  0.5535
   83MOL    C8531409   2.911   1.807   5.674  0.5653 -0.4128 -0.5735
   83MOL    C8631410   2.942   1.843   5.537  0.0943 -0.3326 -0.1509
   83MOL    C8731411   2.893   1.761   5.433  0.4780  0.1617  0.1087
   83MOL    C8831412   2.824   1.639   5.459 -0.2404 -0.0168 -0.2627
   83MOL    H8931413   2.739   1.223   5.969  1.3684  0.3697 -1.2706
   83MOL    H9031414   2.795   1.352   5.760  0.2660 -1.1947  0.5431
   83MOL    H9131415   2.603   1.556   5.802  0.4035  0.5259  0.1917
   83MOL    H9231416   2.544   1.412   5.705  1.1149 -1.2932  0.5725
   83MOL    H9331417   2.809   1.660   5.797 -1.7204 -0.6151 -0.0880
   83MOL    H9431418   2.939   1.858   5.765 -0.0464  0.8519 -1.0966
   83MOL    H9531419   2.995   1.932   5.509 -1.8811  0.6548 -0.8551
   83MOL    H9631420   2.919   1.799   5.335  1.4428 -0.9539 -0.0878
   83MOL    C9731421   2.780   1.553   5.344  0.0381  0.8086 -0.0544
   83MOL    C9831422   2.625   1.537   5.317  0.0045 -0.0161  0.4531
   83MOL    O9931423   2.714   1.625   5.240 -0.0671 -0.3164  0.2200
   83MOL   C10031424   2.511   1.612   5.375  0.3639 -0.0591 -0.7334
   83MOL   O10131425   2.413   1.626   5.275 -0.1053 -0.2409  0.1457
   83MOL   C10231426   2.345   1.508   5.241 -0.7510  0.3253 -0.3701
   83MOL   C10331427   2.308   1.406   5.336 -0.5343 -0.3673 -0.2666
   83MOL   C10431428   2.221   1.306   5.304  0.2363  0.3241  0.3173
   83MOL   C10531429   2.171   1.297   5.174 -0.2243  0.5760  0.5099
   83MOL   C10631430   2.199   1.394   5.077 -0.2561  0.2812 -0.2500
   83MOL   C10731431   2.283   1.504   5.115  1.1900 -0.3432 -0.0567
   83MOL   H10831432   2.836   1.465   5.312  0.1763  0.1055  2.0320
   83MOL   H10931433   2.591   1.459   5.250 -0.8629  1.9797 -1.4998
   83MOL   H11031434   2.544   1.700   5.430  1.3928 -0.6951 -0.3071
   83MOL   H11131435   2.464   1.560   5.458 -0.3986 -0.3642 -1.3433
   83MOL   H11231436   2.334   1.406   5.440  0.3948  1.7557 -0.4712
   83MOL   H11331437   2.194   1.218   5.360  2.5978  0.5245  1.8240
   83MOL   H11431438   2.110   1.214   5.144 -0.0243 -0.3319  2.5233
   83MOL   H11531439   2.154   1.384   4.980  1.4963  0.9633 -1.1444
   83MOL   C11631440   2.292   1.623   5.020 -0.5032  0.1005  0.0273
   83MOL   C11731441   2.423   1.666   4.947  0.3618 -0.0680  0.2272
   83MOL   O11831442   2.318   1.592   4.883  0.5920 -0.5309 -0.5440
   83MOL   C11931443   2.547   1.585   4.935  0.0911  0.1455  1.2614
   83MOL   O12031444   2.650   1.645   4.858  0.6902  0.4112 -0.1700
   83MOL   C12131445   2.771   1.654   4.924  0.6508  0.3439 -0.2394
   83MOL   C12231446   2.829   1.534   4.966  0.1259 -0.1021 -0.0120
   83MOL   C12331447   2.946   1.528   5.042  0.2080  0.3060  0.4836
   83MOL   C12431448   3.002   1.651   5.083  0.0105 -0.0201  0.2849
   83MOL   C12531449   2.935   1.768   5.050  1.0356 -0.2151  0.8822
   83MOL   C12631450   2.823   1.775   4.970 -0.2816  1.0058 -0.5990
   83MOL   H12731451   2.212   1.694   5.041 -0.0775  0.6610 -0.2329
   83MOL   H12831452   2.427   1.766   4.906 -0.9426  0.1530  0.6116
   83MOL   H12931453   2.516   1.501   4.872 -2.2295  1.9481 -0.0704
   83MOL   H13031454   2.580   1.544   5.031 -0.5843 -2.5633  0.3950
   83MOL   H13131455   2.791   1.441   4.925 -0.3870 -0.1179  0.4950
   83MOL   H13231456   2.991   1.433   5.063 -2.1809 -1.0506 -0.4026
   83MOL   H13331457   3.090   1.664   5.144 -0.1862  1.1710  0.3311
   83MOL   H13431458   2.984   1.856   5.087 -0.0729  0.9263 -0.3394
   83MOL   C13531459   2.751   1.896   4.928 -0.0185  0.4827 -0.5767
   83MOL   C13631460   2.670   1.984   5.016  0.5137  0.0794  0.0152
   83MOL   O13731461   2.804   2.016   4.985 -0.4389  0.2193  0.0681
   83MOL   C13831462   2.651   1.950   5.160 -0.2712 -0.3925  0.1204
   83MOL   O13931463   2.556   2.038   5.215  0.1211 -0.3541  0.2288
   83MOL   C14031464   2.525   2.023   5.349 -0.3439  0.6303  0.1694
   83MOL   C14131465   2.604   1.959   5.447 -0.3361 -0.2487 -0.6315
   83MOL   C14231466   2.569   1.938   5.579  0.1339  0.6015  0.2486
   83MOL   C14331467   2.447   1.989   5.621 -0.2848  0.5174  0.4258
   83MOL   C14431468   2.369   2.062   5.534  0.5496  0.1527 -0.2489
   83MOL   C14531469   2.407   2.076   5.396 -0.2223  0.5005  0.1444
   83MOL   H14631470   2.730   1.903   4.821  1.2190 -1.5536 -0.9835
   83MOL   H14731471   2.583   2.016   4.960  1.1319 -0.3474 -1.2240
   83MOL   H14831472   2.749   1.964   5.207 -0.4690  1.9554 -0.1473
   83MOL   H14931473   2.622   1.846   5.176 -0.5760 -0.2970  0.1683
   83MOL   H15031474   2.702   1.918   5.424  0.1603  0.9739 -0.7613
   83MOL   H15131475   2.637   1.880   5.640 -1.0188 -1.2408 -0.1650
   83MOL   H15231476   2.407   1.969   5.720 -2.8394  1.3282 -0.4131
   83MOL   H15331477   2.274   2.103   5.567  0.9532 -0.5380  1.7969
   83MOL   C15431478   2.310   2.142   5.295  0.2427  0.0677  0.0801
   83MOL   C15531479   2.177   2.073   5.261 -0.1898  0.2180 -0.4604
   83MOL   O15631480   2.184   2.175   5.358  0.6678 -0.2607  0.0592
   83MOL   C15731481   2.142   1.942   5.308  0.4554  0.6493 -0.3255
   83MOL   O15831482   2.056   1.863   5.221 -0.0004  0.2438 -0.3821
   83MOL   C15931483   1.923   1.868   5.250  0.4231  0.1166 -0.9422
   83MOL   C16031484   1.853   1.986   5.252 -0.1835 -0.1612  0.2631
   83MOL   C16131485   1.719   1.984   5.283  0.4300  0.6489 -0.6799
   83MOL   C16231486   1.645   1.860   5.293  0.2014 -0.0079  0.2547
   83MOL   C16331487   1.712   1.741   5.282  0.8384  0.1441 -0.2416
   83MOL   C16431488   1.854   1.745   5.270 -0.3415 -0.1878  0.5344
   83MOL   H16531489   2.352   2.222   5.234 -1.0662  0.4851 -0.3059
   83MOL   H16631490   2.125   2.111   5.173 -2.9556  0.7956  1.3540
   83MOL   H16731491   2.098   1.948   5.408 -0.6119 -0.2982 -0.7143
   83MOL   H16831492   2.240   1.894   5.312  0.6372  0.8435 -2.0960
   83MOL   H16931493   1.909   2.074   5.227 -0.3578 -0.2559 -0.4919
   83MOL   H17031494   1.667   2.079   5.284  0.4004  0.6352 -0.8915
   83MOL   H17131495   1.538   1.871   5.295  0.1884  0.3953 -1.6767
   83MOL   H17231496   1.656   1.649   5.278  0.1037  0.5350  0.8191
   83MOL   C17331497   1.925   1.618   5.289  0.5320 -0.1672  0.2861
   83MOL   C17431498   1.981   1.578   5.418  0.1316 -0.0678  0.1672
   83MOL   O17531499   1.860   1.516   5.367  0.0041  0.2923  0.1315
   83MOL   C17631500   1.967   1.661   5.550 -0.5718  0.6132  0.1379
   83MOL   O17731501   1.985   1.582   5.671  0.7399  0.2354 -0.7909
   83MOL   C17831502   2.087   1.610   5.753  0.1215  0.0800  1.2151
   83MOL   C17931503   2.218   1.621   5.699 -0.3535 -0.5732  0.1864
   83MOL   C18031504   2.321   1.661   5.783  0.3818  0.0674 -0.1028
   83MOL   C18131505   2.292   1.699   5.918  0.7874 -0.4500 -1.0277
   83MOL   C18231506   2.161   1.687   5.974 -0.8052 -0.1248 -0.0066
   83MOL   C18331507   2.062   1.632   5.889 -0.1537  0.1938  0.2217
   83MOL   H18431508   1.958   1.574   5.195 -1.2837 -0.5309 -0.2086
   83MOL   H18531509   2.068   1.514   5.419 -0.0022 -0.2591 -0.2896
   83MOL   H18631510   1.865   1.696   5.566 -0.0309  1.8899  0.8643
   83MOL   H18731511   2.045   1.737   5.547 -0.8064  0.9021  0.9915
   83MOL   H18831512   2.247   1.602   5.596 -0.6481 -0.0158  0.0013
   83MOL   H18931513   2.422   1.659   5.746  0.9934 -3.2026  1.5149
   83MOL   H19031514   2.374   1.729   5.980  1.0072 -1.3740 -0.8734
   83MOL   H19131515   2.143   1.702   6.079  1.5708 -3.4892  0.9689
   83MOL   C19231516   1.924   1.619   5.948 -0.3573 -0.5613 -0.4028
   83MOL   C19331517   1.834   1.501   5.961 -0.5232 -0.1945 -0.3472
   83MOL   O19431518   1.927   1.533   6.063 -0.1574 -0.3720  0.0695
   83MOL   C19531519   1.864   1.386   5.870  0.3935  0.1635 -0.1468
   83MOL   O19631520   1.795   1.262   5.879  0.7968 -0.2469 -0.1877
   83MOL   C19731521   1.846   1.154   5.944 -0.1569  0.4346  0.3278
   83MOL   C19831522   1.932   1.173   6.054  0.2731  0.8799  0.4587
   83MOL   C19931523   1.968   1.054   6.121  0.0297  0.1536  0.0315
   83MOL   C20031524   1.931   0.926   6.071 -0.2441  0.2161 -0.2914
   83MOL   C20131525   1.850   0.913   5.956 -0.0668 -0.5388 -0.0038
   83MOL   C20231526   1.800   1.026   5.896  0.2330  0.1578 -1.4809
   83MOL   H20331527   1.888   1.718   5.976  2.4430  0.0841  1.1268
   83MOL   H20431528   1.730   1.505   5.991 -0.2644 -2.0435  0.9064
   83MOL   H20531529   1.971   1.371   5.861  0.0802 -1.8307 -0.8328
   83MOL   H20631530   1.826   1.419   5.773 -2.4968 -0.1209  0.8374
   83MOL   H20731531   1.966   1.267   6.095  1.7217 -0.5334  2.6135
   83MOL   H20831532   2.032   1.056   6.209  1.1739  1.6835 -0.8102
   83MOL   H20931533   1.946   0.838   6.132 -0.3842  0.2176 -0.2539
   83MOL   H21031534   1.819   0.816   5.920  1.9267 -1.5760  0.9687
   83MOL   C21131535   1.701   1.017   5.782  0.0335 -0.0261 -0.2702
   83MOL   C21231536   1.746   1.060   5.640  0.3891  0.0682 -0.1834
   83MOL   O21331537   1.746   0.921   5.689  0.1335  0.2498  0.1118
   83MOL   C21431538   1.884   1.117   5.608  0.0244  0.0881  0.3294
   83MOL   O21531539   1.961   1.036   5.522  0.1771  0.5324 -0.0935
   83MOL   C21631540   1.949   1.033   5.390 -0.1953 -0.5369  0.0653
   83MOL   C21731541   1.867   1.119   5.318 -0.0732 -0.2605  0.1723
   83MOL   C21831542   1.857   1.107   5.177  0.1650 -0.2298 -0.0464
   83MOL   C21931543   1.933   1.004   5.110  0.2166  0.0335 -0.2092
   83MOL   C22031544   2.025   0.927   5.180  0.2699 -0.1927 -0.3389
   83MOL   C22131545   2.033   0.943   5.325  0.0969 -0.3186  0.0813
   83MOL   H22231546   1.594   1.016   5.803 -0.1195  0.2549 -0.9976
   83MOL   H22331547   1.663   1.085   5.574  0.2689  1.6731  0.5640
   83MOL   H22431548   1.946   1.130   5.696  0.5963 -0.1332 -0.0347
   83MOL   H22531549   1.877   1.222   5.579  1.1770  0.0486 -0.1519
   83MOL   H22631550   1.807   1.198   5.362 -0.6749 -1.9330  2.4339
   83MOL   H22731551   1.792   1.173   5.123  0.3847  1.3916  1.6201
   83MOL   H22831552   1.914   0.995   5.004  0.6113  0.5098 -0.3249
   83MOL   H22931553   2.089   0.852   5.136 -2.0819 -1.2756 -1.9563
   83MOL   C23031554   2.119   0.851   5.408 -0.9473 -0.0559 -0.8190
   83MOL   C23131555   2.096   0.712   5.438  0.6393  0.4639  0.1722
   83MOL   O23231556   2.175   0.742   5.326 -0.6209  0.0216  0.4606
   83MOL   C23331557   1.965   0.645   5.403 -0.1956 -0.5179  0.3917
   83MOL   O23431558   1.991   0.507   5.425 -0.2457  0.2273 -0.2781
   83MOL   C23531559   1.958   0.445   5.545 -0.0123  0.3611 -0.4771
   83MOL   C23631560   1.892   0.512   5.659 -0.3903  0.0974  1.8057
   83MOL   C23731561   1.870   0.442   5.772 -0.5497 -0.4094 -0.2923
   83MOL   C23831562   1.905   0.310   5.790 -0.5657  0.2072  0.4846
   83MOL   C23931563   1.977   0.243   5.680  0.0045 -0.0714  0.2736
   83MOL   C24031564   1.998   0.309   5.558 -0.1526  0.1335  0.2597
   83MOL   H24131565   2.194   0.912   5.460 -1.8801  1.6896 -1.4722
   83MOL   H24231566   2.155   0.667   5.518  0.6670 -0.2115 -0.2250
   83MOL   H24331567   1.949   0.647   5.296  1.3558  1.7256  0.1580
   83MOL   H24431568   1.882   0.687   5.460  0.0586  0.3295  0.1494
   83MOL   H24531569   1.859   0.615   5.661 -0.8296 -0.0589  2.4706
   83MOL   H24631570   1.831   0.493   5.859  0.1789  0.9452 -0.7464
   83MOL   H24731571   1.877   0.253   5.878 -2.0701  0.3448  0.1025
   83MOL   H24831572   1.998   0.137   5.677  0.1137 -0.0608  0.6775
   83MOL   C24931573   2.066   0.240   5.443  0.3366  0.8645  0.7158
   83MOL   C25031574   2.214   0.255   5.409  0.1741 -0.7029  0.1213
   83MOL   O25131575   2.165   0.153   5.493  0.0021  0.0610 -0.1436
   83MOL   C25231576   2.300   0.368   5.468  0.0597  0.4653  0.6960
   83MOL   O25331577   2.443   0.358   5.462  0.6364  0.1942 -0.2039
   83MOL   C25431578   2.509   0.291   5.563  0.1851  0.4531 -0.1795
   83MOL   C25531579   2.459   0.177   5.628 -0.2448 -0.3445  0.0538
   83MOL   C25631580   2.536   0.111   5.726  0.3163  0.1940 -0.2187
   83MOL   C25731581   2.659   0.166   5.766  0.2025 -0.5733 -0.0720
   83MOL   C25831582   2.713   0.271   5.698 -0.6738 -0.6090 -0.2429
   83MOL   C25931583   2.637   0.337   5.599 -0.4298 -0.2951 -0.0160
   83MOL   H26031584   2.006   0.192   5.366  0.1746  0.4898  1.0719
   83MOL   H26131585   2.235   0.239   5.304  0.1213  1.0207 -0.1513
   83MOL   H26231586   2.263   0.383   5.570  1.4597  3.7724  0.7830
   83MOL   H26331587   2.273   0.458   5.413  0.7214  0.8433  0.9832
   83MOL   H26431588   2.363   0.137   5.601 -1.0019  2.2011 -1.2698
   83MOL   H26531589   2.495   0.030   5.786  3.2229  0.5148  2.3276
   83MOL   H26631590   2.710   0.133   5.855  1.0926 -1.0348 -0.7474
   83MOL   H26731591   2.813   0.301   5.727 -0.7180 -0.0731 -0.6364
   83MOL   C26831592   2.686   0.460   5.524  0.4920 -0.2332 -0.3349
   83MOL   C26931593   2.635   0.600   5.544  0.4011  0.1344  0.1383
   83MOL   O27031594   2.756   0.555   5.608  0.3992  0.8433 -0.3784
   83MOL   C27131595   2.533   0.646   5.644 -0.3842 -0.1249 -0.4857
   83MOL   O27231596   2.518   0.790   5.646  0.1469  0.3117 -0.3103
   83MOL   C27331597   2.413   0.853   5.709  0.0158  1.1965 -0.1672
   83MOL   C27431598   2.302   0.781   5.768 -0.2427  0.3487 -0.6303
   83MOL   C27531599   2.193   0.856   5.807  0.1372  0.1711  0.9083
   83MOL   C27631600   2.191   0.994   5.803  0.1463 -0.0001  0.1561
   83MOL   C27731601   2.304   1.068   5.752  0.8241  0.2833  0.2157
   83MOL   C27831602   2.405   0.990   5.693 -0.3460  0.0352 -0.9066
   83MOL   H27931603   2.742   0.429   5.437  2.7342  0.2402  0.8925
   83MOL   H28031604   2.658   0.673   5.467  1.1710  1.1803  1.3258
   83MOL   H28131605   2.570   0.602   5.737 -0.4749 -0.1932 -0.4828
   83MOL   H28231606   2.435   0.608   5.615  0.5164 -1.2179 -2.1000
   83MOL   H28331607   2.298   0.674   5.784 -0.4084  0.1767 -1.7681
   83MOL   H28431608   2.105   0.816   5.854 -0.8370  2.3259  0.9848
   83MOL   H28531609   2.102   1.045   5.835  0.6314  0.6015  0.5696
   83MOL   H28631610   2.304   1.176   5.748  1.0447  0.3837  2.4218
   83MOL   C28731611   2.514   1.072   5.631 -0.1657 -0.5138 -0.5608
   83MOL   C28831612   2.565   1.066   5.490 -0.6587  0.8420  0.5856
   83MOL   O28931613   2.469   1.157   5.528 -0.4714  0.1170 -0.4527
   83MOL   C29031614   2.526   0.961   5.386  0.9830  0.2585 -0.2909
   83MOL   O29131615   2.547   1.029   5.259  0.1432  0.0434 -0.5263
   83MOL   C29231616   2.489   0.981   5.142  0.1061  0.5588 -0.3128
   83MOL   C29331617   2.430   0.854   5.124  1.5754  0.2853  0.3401
   83MOL   C29431618   2.363   0.817   5.006 -0.0761  0.0796  0.4978
   83MOL   C29531619   2.351   0.918   4.906  0.0570  0.0271 -0.3370
   83MOL   C29631620   2.399   1.049   4.916 -0.2491  0.1868  0.9826
   83MOL   C29731621   2.475   1.074   5.037  0.0836 -0.3818 -0.7141
   83MOL   H29831622   2.578   1.119   5.705  0.3063 -1.5034 -0.3281
   83MOL   H29931623   2.663   1.112   5.476 -0.8969  1.0869 -0.3294
   83MOL   H30031624   2.423   0.926   5.386  1.1505 -0.2490  0.1980
   83MOL   H30131625   2.590   0.873   5.383 -1.2154 -1.4006  0.2333
   83MOL   H30231626   2.435   0.775   5.196 -3.0720  0.9222  1.4852
   83MOL   H30331627   2.316   0.720   4.997  0.2010  0.0067 -0.1574
   83MOL   H30431628   2.295   0.885   4.819  0.0066 -1.3157  0.1938
   83MOL   H30531629   2.397   1.117   4.833  1.2144 -0.9917 -0.0450
   83MOL   C30631630   2.549   1.206   5.059 -0.2146 -0.7620 -0.5194
   83MOL   C30731631   2.698   1.209   5.045 -0.4335 -0.2490  0.3132
   83MOL   O30831632   2.611   1.251   4.938 -0.3245 -0.3036  0.0640
   83MOL   C30931633   2.785   1.090   5.019  0.5741  0.4981 -0.1218
   83MOL   O31031634   2.916   1.117   4.973 -0.1626  0.5563  0.0867
   83MOL   C31131635   3.021   1.156   5.056  0.0029 -0.1987  0.4728
   83MOL   C31231636   3.000   1.192   5.193  0.4013 -0.5021  0.8771
   83MOL   C31331637   3.111   1.241   5.266  0.6568 -0.1196  0.2712
   83MOL   C31431638   3.238   1.245   5.207 -0.7822 -0.3016  0.4905
   83MOL   C31531639   3.258   1.213   5.066  0.4621  0.6217  0.1525
   83MOL   C31631640   3.147   1.169   4.995 -0.1248 -0.1575  0.4344
   83MOL   H31731641   2.492   1.273   5.124  2.6648 -0.6120  1.9697
   83MOL   H31831642   2.758   1.284   5.095  1.6265  1.2893 -4.2546
   83MOL   H31931643   2.737   1.029   4.943 -1.5613  3.2496 -1.0401
   83MOL   H32031644   2.796   1.020   5.102  0.1600  1.7125  0.9606
   83MOL   H32131645   2.905   1.185   5.243  0.3739  5.4176  1.9241
   83MOL   H32231646   3.094   1.261   5.371  0.1505 -3.3246  0.8447
   83MOL   H32331647   3.320   1.277   5.270 -1.6648  2.0333  0.4783
   83MOL   H32431648   3.356   1.227   5.024  0.0176  1.2747 -0.6740
   83MOL   C32531649   3.164   1.132   4.847  0.2282  0.5864  0.1899
   83MOL   C32631650   3.130   1.224   4.738 -1.0357 -0.3967 -0.7295
   83MOL   O32731651   3.268   1.196   4.775  0.1443 -0.1635 -0.2884
   83MOL   C32831652   3.082   1.371   4.766  0.1310  0.3545 -0.8601
   83MOL   O32931653   3.034   1.436   4.652  0.5262 -0.4983 -0.0614
   83MOL   C33031654   3.127   1.469   4.552 -0.2939 -0.1603 -0.6257
   83MOL   C33131655   3.267   1.452   4.566 -0.5427  0.1983  0.0633
   83MOL   C33231656   3.349   1.475   4.455  0.5390  0.7704 -0.4914
   83MOL   C33331657   3.296   1.531   4.337 -0.4920  0.2050 -0.6573
   83MOL   C33431658   3.158   1.539   4.329 -0.0592  1.1457 -0.3330
   83MOL   C33531659   3.069   1.508   4.432  0.2405  0.4045  0.4571
   83MOL   H33631660   3.163   1.024   4.836  0.1237  0.6189 -0.1144
   83MOL   H33731661   3.116   1.191   4.635  1.8769 -0.2933 -1.2121
   83MOL   H33831662   3.159   1.423   4.823 -0.4466  1.6942 -1.2894
   83MOL   H33931663   2.994   1.360   4.830 -0.1296 -3.5276 -1.8068
   83MOL   H34031664   3.311   1.424   4.660  1.4326  0.6398 -0.7011
   83MOL   H34131665   3.456   1.474   4.466  0.5890  1.4724 -0.9007
   83MOL   H34231666   3.362   1.540   4.252 -0.3417 -0.2426 -0.5907
   83MOL   H34331667   3.113   1.570   4.235 -2.2203  0.0834  0.3237
   83MOL   C34431668   2.920   1.503   4.419  0.0624  1.4522  0.2540
   83MOL   C34531669   2.819   1.611   4.463 -0.2506  0.0999  0.0956
   83MOL   O34631670   2.885   1.609   4.331 -0.2169 -0.0351  0.7081
   83MOL   C34731671   2.853   1.725   4.560 -0.2346  0.8110  0.2635
   83MOL   O34831672   2.763   1.834   4.559  0.2441  0.1736 -0.5155
   83MOL   C34931673   2.742   1.900   4.440  0.1438 -0.3837  0.0528
   83MOL   C35031674   2.856   1.933   4.358  0.1237  0.7656 -0.2197
   83MOL   C35131675   2.835   2.001   4.239  0.0966 -0.0710  0.2644
   83MOL   C35231676   2.700   2.035   4.201  0.0431 -0.5966 -0.8447
   83MOL   C35331677   2.590   1.994   4.276  0.7433  0.0162  1.0128
   83MOL   C35431678   2.609   1.930   4.399  0.1450 -0.5032  0.4940
   83MOL   H35531679   2.879   1.410   4.379  0.1975  3.1027 -3.9299
   83MOL   H35631680   2.718   1.571   4.461  0.5942 -2.0792 -1.2878
   83MOL   H35731681   2.954   1.765   4.552  2.3469 -4.7478  2.5217
   83MOL   H35831682   2.842   1.681   4.659 -3.8412 -1.4620 -1.0617
   83MOL   H35931683   2.952   1.896   4.390 -0.2565  1.1093  1.4039
   83MOL   H36031684   2.915   2.031   4.173  0.7356 -0.5173  0.8321
   83MOL   H36131685   2.701   2.105   4.120  0.5289 -0.1654 -0.4690
   83MOL   H36231686   2.496   2.027   4.233  1.8262  0.5156 -0.9946
   83MOL   C36331687   2.497   1.891   4.490  0.4477  0.2241  0.0243
   83MOL   C36431688   2.435   2.004   4.568  0.2512  0.3735 -0.2953
   83MOL   O36531689   2.367   1.937   4.455  0.4270 -0.2525 -0.1900
   83MOL   C36631690   2.463   2.152   4.553  0.9201 -0.1589  0.2933
   83MOL   O36731691   2.372   2.230   4.631  0.5026  0.4060  0.0133
   83MOL   C36831692   2.404   2.273   4.768 -0.5601 -0.0926  0.4954
   83MOL   C36931693   2.299   2.332   4.847 -0.0442  0.1129  0.1367
   83MOL   C37031694   2.321   2.371   4.974  0.6463 -0.1250  0.1348
   83MOL   C37131695   2.452   2.360   5.034 -0.5850  0.3115  0.6153
   83MOL   C37231696   2.558   2.303   4.960  0.2024 -0.4836 -0.2774
   83MOL   C37331697   2.535   2.262   4.826  0.2058  0.6137  0.0539
   83MOL   H37431698   2.499   1.795   4.541  0.6713  0.2249  0.0190
   83MOL   H37531699   2.379   1.969   4.654 -1.0317 -1.8198 -1.9568
   83MOL   H37631700   2.466   2.181   4.448  0.7931  1.0885  0.6268
   83MOL   H37731701   2.569   2.171   4.567  1.6157 -3.2821 -0.4083
   83MOL   H37831702   2.201   2.344   4.803 -0.4576 -4.1895 -0.3581
   83MOL   H37931703   2.236   2.404   5.032  1.3826 -0.2927  1.3462
   83MOL   H38031704   2.482   2.389   5.133  1.8958  1.1914 -0.3447
   83MOL   H38131705   2.655   2.295   5.007 -0.0521  0.1426  0.3573
   83MOL   H38231706   2.615   2.214   4.772 -2.3371 -1.8435 -1.6758
   84MOL     C131707   0.575   4.022   2.639 -0.4118  0.3133  0.2373
   84MOL     C231708   0.545   4.072   2.497 -0.6612  0.1096 -0.1518
   84MOL     O331709   0.518   3.941   2.540  0.0615 -0.4031  0.2395
   84MOL     C431710   0.646   4.093   2.383  0.0662  0.2258  0.6080
   84MOL     O531711   0.783   4.084   2.426  0.2360 -0.0590 -0.4239
   84MOL     C631712   0.844   4.204   2.464 -0.2158 -0.6885  0.7028
   84MOL     C731713   0.787   4.328   2.477  0.6241 -0.2638 -0.0051
   84MOL     C831714   0.857   4.447   2.523 -0.3720 -0.0457  0.4874
   84MOL     C931715   0.993   4.435   2.560  0.2486 -0.1750 -0.4113
   84MOL    C1031716   1.055   4.309   2.553  0.3475 -0.3345 -0.1030
   84MOL    C1131717   0.983   4.192   2.499 -0.5045  0.3404 -0.0499
   84MOL    H1231718   0.505   4.043   2.720  0.4578  1.3168  0.7365
   84MOL    H1331719   0.455   4.133   2.498  0.8938  2.5536 -2.0463
   84MOL    H1431720   0.638   4.178   2.314  0.0913 -0.3720 -0.1372
   84MOL    H1531721   0.638   4.002   2.323  2.8246 -0.1420  0.7198
   84MOL    H1631722   0.681   4.340   2.460  0.3855 -1.9832  0.1099
   84MOL    H1731723   0.804   4.540   2.513 -1.6738 -0.9266 -1.1782
   84MOL    H1831724   1.055   4.515   2.598  0.9722 -0.4183 -1.0875
   84MOL    H1931725   1.159   4.299   2.579  0.2791 -0.7109  0.0315
   84MOL    H2031726   0.676   4.000   2.673 -0.8732 -0.6677  1.0336
   84MOL    C2131727   1.045   4.057   2.495 -0.3794  0.9862  0.5457
   84MOL    C2231728   1.082   3.981   2.370 -0.2674 -0.4873  0.3915
   84MOL    O2331729   1.181   4.057   2.448  0.0359  0.6979  0.4583
   84MOL    C2431730   1.046   4.037   2.235  0.2393 -1.0694  0.5363
   84MOL    O2531731   1.091   3.947   2.137  0.1044  0.1211 -0.0458
   84MOL    C2631732   1.069   3.993   2.005 -0.7992 -0.1337 -0.0036
   84MOL    C2731733   1.014   4.122   1.978 -0.5362 -0.1821  0.0342
   84MOL    C2831734   0.991   4.174   1.850 -0.3560 -0.4626 -0.5228
   84MOL    C2931735   1.017   4.092   1.743  0.4541 -0.3723 -0.3759
   84MOL    C3031736   1.062   3.961   1.766 -0.2888  0.3908  0.0422
   84MOL    C3131737   1.085   3.903   1.892 -0.1318  0.8869 -0.2124
   84MOL    H3231738   1.012   3.999   2.580  0.9394  2.8290  2.3603
   84MOL    H3331739   1.096   3.873   2.381 -1.5536 -0.7318 -0.2415
   84MOL    H3431740   1.086   4.138   2.227 -3.0742  0.3990  1.7910
   84MOL    H3531741   0.939   4.054   2.229  0.4059 -0.2802 -0.3189
   84MOL    H3631742   0.999   4.194   2.057 -0.3392  0.8273 -0.8352
   84MOL    H3731743   0.952   4.272   1.827  2.2449  0.7257 -0.0157
   84MOL    H3831744   1.008   4.131   1.643 -0.2017 -2.3836 -1.1274
   84MOL    H3931745   1.093   3.890   1.690 -0.9855 -0.4620  0.5550
   84MOL    C4031746   1.125   3.760   1.911 -0.5596 -0.1922  0.5340
   84MOL    C4131747   1.033   3.655   1.967  0.3593  0.4230 -0.1395
   84MOL    O4231748   1.043   3.670   1.827 -0.5152  0.4207  0.2727
   84MOL    C4331749   0.904   3.679   2.040  0.1378  0.3617  0.0855
   84MOL    O4431750   0.814   3.578   2.024 -0.4768 -0.3388  0.3916
   84MOL    C4531751   0.691   3.599   2.077 -0.0707 -0.6012  1.1118
   84MOL    C4631752   0.665   3.695   2.181  0.5381 -0.3030 -0.1760
   84MOL    C4731753   0.531   3.718   2.213  0.2690 -0.4639  0.6468
   84MOL    C4831754   0.421   3.637   2.166 -0.0953 -0.7260 -0.4151
   84MOL    C4931755   0.452   3.536   2.075  0.0795  0.9454  0.0378
   84MOL    C5031756   0.588   3.522   2.021 -0.1427 -0.2370 -0.1016
   84MOL    H5131757   1.232   3.741   1.909 -0.1024  2.3301 -0.8429
   84MOL    H5231758   1.081   3.568   2.013  2.3056  0.0488 -2.7655
   84MOL    H5331759   0.870   3.776   2.002 -1.7022  0.1765  1.2292
   84MOL    H5431760   0.940   3.692   2.142  1.5214 -0.0727 -0.3232
   84MOL    H5531761   0.739   3.763   2.219  0.8219 -2.3858  3.1550
   84MOL    H5631762   0.521   3.806   2.274 -0.7818  0.7082 -1.1873
   84MOL    H5731763   0.318   3.644   2.199  0.6516 -1.4699  2.1816
   84MOL    H5831764   0.373   3.478   2.030  1.4113  0.9905 -2.4637
   84MOL    C5931765   0.619   3.434   1.907 -0.7343  0.6436  0.0136
   84MOL    C6031766   0.639   3.290   1.915  0.0548 -0.1059 -0.0468
   84MOL    O6131767   0.517   3.350   1.862  0.7869 -0.6134  0.2829
   84MOL    C6231768   0.624   3.208   2.045  0.2706  0.2024  0.3107
   84MOL    O6331769   0.579   3.075   2.001 -0.4218 -0.2864  0.0341
   84MOL    C6431770   0.562   2.973   2.094 -0.3967 -0.3689 -0.7400
   84MOL    C6531771   0.645   2.957   2.208  0.0197  0.0948 -0.2801
   84MOL    C6631772   0.627   2.852   2.297  0.3008  0.6516  0.2921
   84MOL    C6731773   0.529   2.751   2.273  0.2223  0.8074 -0.3165
   84MOL    C6831774   0.444   2.763   2.161 -0.9418  0.2228  0.2304
   84MOL    C6931775   0.462   2.875   2.077  0.8016  0.3557  0.0919
   84MOL    H7031776   0.667   3.491   1.828  0.5892  0.9140  0.9895
   84MOL    H7131777   0.695   3.245   1.833 -1.3180 -1.4446 -0.2666
   84MOL    H7231778   0.551   3.247   2.116 -2.4316 -0.6523 -1.9033
   84MOL    H7331779   0.721   3.197   2.092  1.2104  0.8621 -1.4355
   84MOL    H7431780   0.720   3.032   2.230 -1.7712  1.9919 -0.5676
   84MOL    H7531781   0.701   2.844   2.375  0.3013  0.1996  0.2470
   84MOL    H7631782   0.507   2.668   2.339 -2.1499  0.1569 -1.8580
   84MOL    H7731783   0.373   2.684   2.140 -0.5562 -0.7237  2.3629
   84MOL    C7831784   0.386   2.882   1.952  0.2989 -0.1657  0.1486
   84MOL    C7931785   0.413   2.796   1.829 -0.1534  0.3760 -0.0308
   84MOL    O8031786   0.296   2.777   1.914  0.2216 -0.1371  0.4436
   84MOL    C8131787   0.519   2.684   1.829  0.2781 -0.2094 -0.4326
   84MOL    O8231788   0.468   2.573   1.765 -0.0717 -0.2962  0.4500
   84MOL    C8331789   0.511   2.537   1.639 -0.0116 -0.1356  0.5643
   84MOL    C8431790   0.553   2.636   1.548  0.3703 -0.1823  0.0864
   84MOL    C8531791   0.572   2.602   1.411  0.4045 -0.3797  0.0147
   84MOL    C8631792   0.555   2.468   1.370  0.4919  0.4837 -0.4581
   84MOL    C8731793   0.526   2.367   1.459  0.5905 -0.2434 -0.6735
   84MOL    C8831794   0.509   2.397   1.604 -0.0448 -0.7359 -0.3419
   84MOL    H8931795   0.350   2.983   1.934  0.7047 -0.3169 -1.6534
   84MOL    H9031796   0.385   2.830   1.730 -2.1986 -1.0502  0.0342
   84MOL    H9131797   0.519   2.655   1.935 -2.9655 -0.0003 -0.3229
   84MOL    H9231798   0.608   2.720   1.779 -1.1766 -2.4109 -4.8361
   84MOL    H9331799   0.559   2.742   1.571  0.9239 -0.2959  0.4808
   84MOL    H9431800   0.598   2.675   1.336  0.0945  0.0092  0.2885
   84MOL    H9531801   0.561   2.443   1.265 -0.1942  1.3331 -0.7094
   84MOL    H9631802   0.501   2.270   1.420  0.4890 -1.4015  2.1271
   84MOL    C9731803   0.471   2.292   1.705  0.1690 -0.8066 -0.1689
   84MOL    C9831804   0.336   2.229   1.700 -0.8549  0.1054  1.0651
   84MOL    O9931805   0.456   2.166   1.641 -0.3446  0.5422 -0.1837
   84MOL   C10031806   0.230   2.268   1.599 -0.4572  0.6621  0.4715
   84MOL   O10131807   0.182   2.158   1.523  0.2834 -0.2653 -0.1904
   84MOL   C10231808   0.074   2.082   1.577  0.1698 -0.6754 -0.2274
   84MOL   C10331809   0.029   2.064   1.715 -0.7125 -0.9671 -0.0250
   84MOL   C10431810   8.088   1.987   1.745  0.4841  0.3501  0.2773
   84MOL   C10531811   8.006   1.929   1.644 -0.3629 -0.4943 -0.2299
   84MOL   C10631812   8.052   1.940   1.510 -0.0707  0.3503  0.3446
   84MOL   C10731813   0.002   2.010   1.480  0.7184 -0.4299  0.4402
   84MOL   H10831814   0.522   2.285   1.801  1.9494  0.2125 -1.0105
   84MOL   H10931815   0.302   2.174   1.787 -0.0664 -3.5036 -0.7966
   84MOL   H11031816   0.268   2.332   1.519  1.1487  0.8754  1.3800
   84MOL   H11131817   0.145   2.317   1.646 -1.1367 -0.1672  0.1183
   84MOL   H11231818   0.084   2.104   1.798 -1.6551 -0.7233  0.4894
   84MOL   H11331819   8.060   1.984   1.849  1.3193  2.0988  0.5698
   84MOL   H11431820   7.921   1.867   1.666  0.1907 -1.6381 -1.2432
   84MOL   H11531821   7.999   1.891   1.429  0.6157  2.0154 -1.1489
   84MOL   C11631822   0.055   2.008   1.336  0.3194 -0.0984  0.0067
   84MOL   C11731823   0.106   1.879   1.268  0.2462  0.2363  0.6740
   84MOL   O11831824   8.147   1.923   1.248 -0.1521  0.1466  0.2894
   84MOL   C11931825   0.130   1.766   1.367 -0.4307  0.7083  0.1961
   84MOL   O12031826   0.149   1.647   1.294 -0.6710 -0.3404  0.2089
   84MOL   C12131827   0.196   1.536   1.355  0.4562 -0.1549 -0.8189
   84MOL   C12231828   0.208   1.514   1.497 -0.7612  0.0675  0.4629
   84MOL   C12331829   0.267   1.402   1.551 -0.3677  0.1363 -0.1209
   84MOL   C12431830   0.304   1.298   1.464 -0.0186  0.5185  0.1367
   84MOL   C12531831   0.291   1.313   1.329  0.9345 -0.3379 -0.1019
   84MOL   C12631832   0.246   1.433   1.271  0.1828 -0.5941 -0.2536
   84MOL   H12731833   0.066   2.107   1.292 -0.2425 -0.2117 -0.3806
   84MOL   H12831834   0.178   1.895   1.188  0.8935  1.1506  1.4186
   84MOL   H12931835   0.046   1.754   1.435  1.8075  1.3106  3.2045
   84MOL   H13031836   0.223   1.798   1.414 -0.5494  1.3829 -0.0210
   84MOL   H13131837   0.179   1.596   1.561 -0.0215  1.0811 -0.4721
   84MOL   H13231838   0.287   1.388   1.656  1.1638  1.2723 -0.2267
   84MOL   H13331839   0.336   1.201   1.497  1.6757  1.8805  2.6239
   84MOL   H13431840   0.336   1.234   1.271  2.2095  1.3617 -1.5107
   84MOL   C13531841   0.260   1.463   1.128  0.1833 -0.4222  0.3060
   84MOL   C13631842   0.392   1.497   1.055  0.4020  0.3865  0.4072
   84MOL   O13731843   0.339   1.362   1.069 -0.2345 -0.4044  0.5796
   84MOL   C13831844   0.531   1.512   1.118 -0.2548 -0.4959  0.2093
   84MOL   O13931845   0.526   1.565   1.250 -0.0509 -0.5545  0.1281
   84MOL   C14031846   0.503   1.700   1.277  0.2282 -0.2179 -0.0473
   84MOL   C14131847   0.479   1.801   1.188  0.0293 -0.2689 -0.3746
   84MOL   C14231848   0.447   1.934   1.222 -0.0296  0.1239  0.0790
   84MOL   C14331849   0.447   1.964   1.358  0.5034  0.6961 -0.5323
   84MOL   C14431850   0.477   1.863   1.453  0.4626  0.3493 -0.2071
   84MOL   C14531851   0.509   1.726   1.417 -0.1369  0.0911  0.4558
   84MOL   H14631852   0.170   1.486   1.072  0.8090 -2.7690 -1.7610
   84MOL   H14731853   0.384   1.522   0.950  0.7991 -1.0947  0.0153
   84MOL   H14831854   0.596   1.563   1.047  0.7422  0.9041  2.0930
   84MOL   H14931855   0.561   1.407   1.127 -1.5458 -1.0067 -1.2192
   84MOL   H15031856   0.481   1.770   1.084 -1.0875 -0.0886 -0.4536
   84MOL   H15131857   0.418   2.006   1.147 -0.2966 -0.6110 -0.5375
   84MOL   H15231858   0.419   2.064   1.386 -1.8441  0.2402 -1.1628
   84MOL   H15331859   0.466   1.892   1.556 -1.1799  1.6470 -0.7224
   84MOL   C15431860   0.548   1.623   1.515  0.0237  0.0522 -0.1767
   84MOL   C15531861   0.691   1.584   1.547  0.5452 -0.2380  0.1030
   84MOL   O15631862   0.618   1.670   1.628  0.1811 -0.3197 -0.2418
   84MOL   C15731863   0.818   1.645   1.498 -0.0822 -0.0611 -0.4751
   84MOL   O15831864   0.926   1.576   1.545 -0.3974  0.1937 -0.6654
   84MOL   C15931865   0.982   1.472   1.474 -0.3274  0.0224 -1.0555
   84MOL   C16031866   0.903   1.405   1.379  0.2428  0.0507  0.8959
   84MOL   C16131867   0.961   1.306   1.296  0.0914  0.1684  0.6664
   84MOL   C16231868   1.095   1.271   1.319  0.0458  0.0426  0.2904
   84MOL   C16331869   1.175   1.338   1.414  0.3271 -1.0732 -0.3542
   84MOL   C16431870   1.118   1.433   1.500  0.2060 -0.5411  0.5677
   84MOL   H16531871   0.467   1.552   1.523  0.5467 -0.6056 -0.5803
   84MOL   H16631872   0.688   1.481   1.583 -1.1879  0.1649  1.1628
   84MOL   H16731873   0.830   1.742   1.547  0.8586 -1.4660  2.1944
   84MOL   H16831874   0.831   1.669   1.392 -0.5924 -1.5310 -0.8786
   84MOL   H16931875   0.797   1.425   1.371  0.2089 -0.2849  0.5295
   84MOL   H17031876   0.904   1.239   1.234  0.6845 -1.4611  1.8516
   84MOL   H17131877   1.125   1.179   1.272 -0.6434 -1.0234  1.8878
   84MOL   H17231878   1.280   1.316   1.430  0.7404  1.3772  0.7000
   84MOL   C17331879   1.195   1.491   1.614  0.2700 -0.3859 -0.4846
   84MOL   C17431880   1.177   1.468   1.762  0.7342 -0.2097 -0.2647
   84MOL   O17531881   1.277   1.395   1.686  0.2185  0.0363 -0.0351
   84MOL   C17631882   1.071   1.377   1.824 -0.3687  0.3227 -0.4301
   84MOL   O17731883   1.102   1.369   1.965  0.1981  0.1686  0.1389
   84MOL   C17831884   1.041   1.283   2.045  0.5675  0.7770  0.1454
   84MOL   C17931885   0.954   1.178   2.004 -0.1088  0.1847  1.2811
   84MOL   C18031886   0.890   1.095   2.101  0.4704  0.5278  0.6426
   84MOL   C18131887   0.910   1.125   2.236  0.0567 -0.2318 -0.0716
   84MOL   C18231888   0.988   1.234   2.279 -0.1522 -0.0096 -1.3391
   84MOL   C18331889   1.056   1.309   2.181  0.1213 -0.1698 -0.7029
   84MOL   H18431890   1.254   1.574   1.577  1.2267 -0.6852  0.3259
   84MOL   H18531891   1.219   1.543   1.827  0.5918 -0.2471 -0.1275
   84MOL   H18631892   1.061   1.279   1.777  0.7202 -0.3538  0.7075
   84MOL   H18731893   0.971   1.418   1.813 -0.1086  1.3082  0.7605
   84MOL   H18831894   0.931   1.144   1.904  0.2943 -0.2997  1.3552
   84MOL   H18931895   0.815   1.023   2.072  0.7795  0.8908 -1.0967
   84MOL   H19031896   0.850   1.065   2.302  0.0989 -1.7007 -1.3423
   84MOL   H19131897   0.989   1.260   2.384  0.6975  3.7179 -2.1891
   84MOL   C19231898   1.153   1.413   2.233 -0.4528 -0.6682 -0.4761
   84MOL   C19331899   1.136   1.559   2.227 -0.9894 -0.1176  0.1190
   84MOL   O19431900   1.104   1.483   2.345  0.1964  0.1673  0.3315
   84MOL   C19531901   1.024   1.629   2.155  0.0726 -0.3436 -0.2230
   84MOL   O19631902   1.054   1.774   2.154 -0.0228  0.7614 -0.0141
   84MOL   C19731903   1.058   1.852   2.269 -0.6125  0.7951 -1.0488
   84MOL   C19831904   0.974   1.824   2.378 -0.3771  0.1197  0.0475
   84MOL   C19931905   0.970   1.913   2.488 -0.4342 -0.3213  0.0644
   84MOL   C20031906   1.053   2.023   2.494  0.2778 -0.1664 -0.1494
   84MOL   C20131907   1.141   2.047   2.386 -0.0697 -0.5952  0.2829
   84MOL   C20231908   1.137   1.965   2.274  0.0821 -0.6923 -0.5346
   84MOL   H20331909   1.255   1.376   2.243 -0.8595 -1.5491  0.5081
   84MOL   H20431910   1.231   1.611   2.235  0.0393 -2.2006  2.3303
   84MOL   H20531911   0.926   1.629   2.202  0.3943  1.2446  0.4901
   84MOL   H20631912   1.008   1.599   2.052  4.0318  1.8790 -1.5944
   84MOL   H20731913   0.895   1.751   2.365 -1.4458  0.9098  1.8117
   84MOL   H20831914   0.898   1.899   2.568 -1.8761 -0.3552 -1.2064
   84MOL   H20931915   1.051   2.096   2.574  0.5531 -0.4498  0.1114
   84MOL   H21031916   1.205   2.133   2.396  1.0986 -1.2709 -1.2205
   84MOL   C21131917   1.245   1.982   2.176  0.4169 -0.3779 -0.2121
   84MOL   C21231918   1.222   2.049   2.038 -0.1696  0.3716  0.4037
   84MOL   O21331919   1.282   2.120   2.140 -0.2855 -0.3550 -0.1472
   84MOL   C21431920   1.102   2.124   1.990  0.4755 -0.1948  0.5245
   84MOL   O21531921   1.104   2.143   1.846  0.3430  0.4525  0.8238
   84MOL   C21631922   1.109   2.031   1.768 -0.1996  0.1212 -0.5074
   84MOL   C21731923   1.090   1.901   1.811  0.4713  0.3433  0.6394
   84MOL   C21831924   1.086   1.796   1.718  0.7645  0.3843  0.6229
   84MOL   C21931925   1.100   1.815   1.581  0.0426 -0.0585 -0.1777
   84MOL   C22031926   1.121   1.942   1.537  0.2073 -0.4921 -0.3694
   84MOL   C22131927   1.135   2.049   1.630 -0.4528 -0.0117 -0.4317
   84MOL   H22231928   1.328   1.913   2.188 -2.3698 -3.9752 -0.6754
   84MOL   H22331929   1.289   2.015   1.959 -0.5025 -0.1580  0.3403
   84MOL   H22431930   1.103   2.223   2.037  0.9487 -0.1503  0.4194
   84MOL   H22531931   1.008   2.081   2.027  0.6516 -0.1832  0.9813
   84MOL   H22631932   1.071   1.881   1.915 -1.5332 -0.4661  0.1378
   84MOL   H22731933   1.061   1.700   1.761  0.6521  0.0371 -0.2085
   84MOL   H22831934   1.094   1.742   1.501 -3.4603  1.2297 -1.2271
   84MOL   H22931935   1.112   1.957   1.430 -0.7772 -3.5777 -0.7881
   84MOL   C23031936   1.195   2.173   1.578  0.1745  0.5482  0.2984
   84MOL   C23131937   1.340   2.200   1.587  0.0354  0.0119  0.3650
   84MOL   O23231938   1.289   2.138   1.469  0.1296  0.5191  0.6432
   84MOL   C23331939   1.421   2.109   1.672 -0.4859  0.8057 -0.1529
   84MOL   O23431940   1.544   2.088   1.594 -0.5507  0.2723  0.0730
   84MOL   C23531941   1.547   1.958   1.543  0.2676 -0.9425 -0.1200
   84MOL   C23631942   1.561   1.843   1.621 -0.3335 -0.4217  0.1547
   84MOL   C23731943   1.546   1.716   1.561 -0.6271  0.1673 -0.5550
   84MOL   C23831944   1.524   1.702   1.421 -0.0196 -0.7025 -0.2252
   84MOL   C23931945   1.531   1.816   1.350 -0.4135 -0.9395 -0.4200
   84MOL   C24031946   1.539   1.944   1.406 -0.4278 -0.8623  0.4615
   84MOL   H24131947   1.135   2.264   1.583 -1.1523 -0.4202  2.6969
   84MOL   H24231948   1.398   2.288   1.560  1.5426 -1.3187 -0.8541
   84MOL   H24331949   1.368   2.016   1.693 -1.1230  0.7904 -1.7466
   84MOL   H24431950   1.443   2.159   1.766  1.7694 -0.9698  0.3090
   84MOL   H24531951   1.584   1.843   1.726 -0.0562  1.3442  0.1068
   84MOL   H24631952   1.571   1.630   1.621 -0.3780 -0.3976 -1.4476
   84MOL   H24731953   1.529   1.606   1.373  0.3412 -1.8487  2.0670
   84MOL   H24831954   1.518   1.822   1.243  0.4118  4.0365 -0.3654
   84MOL   C24931955   1.545   2.070   1.319  0.1695  0.0195  0.2177
   84MOL   C25031956   1.664   2.162   1.318 -0.0222 -1.0599 -0.1774
   84MOL   O25131957   1.636   2.055   1.217 -1.0853 -0.0155 -0.3119
   84MOL   C25231958   1.797   2.141   1.393  0.2738  0.1487  0.1063
   84MOL   O25331959   1.899   2.200   1.303 -0.4198  0.0061 -0.0537
   84MOL   C25431960   2.030   2.157   1.324  0.0230 -0.0628 -0.3005
   84MOL   C25531961   2.075   2.113   1.452 -1.1677 -0.1373 -0.1534
   84MOL   C25631962   2.211   2.080   1.468  0.1738  0.3920  0.7917
   84MOL   C25731963   2.301   2.082   1.361  0.5184  0.4842 -0.2232
   84MOL   C25831964   2.257   2.118   1.232  0.0765 -0.3646  0.2885
   84MOL   C25931965   2.121   2.160   1.217  0.1184  0.9489 -0.0330
   84MOL   H26031966   1.448   2.114   1.295  0.6638 -0.3853 -2.7144
   84MOL   H26131967   1.638   2.265   1.292 -1.1018 -0.8616  1.6029
   84MOL   H26231968   1.800   2.034   1.412  0.1821  0.0307 -0.5474
   84MOL   H26331969   1.795   2.183   1.494 -1.3525  0.5913 -0.0897
   84MOL   H26431970   2.004   2.104   1.533  1.1696 -2.2925  1.7398
   84MOL   H26531971   2.228   2.043   1.568 -1.1582 -0.1970  0.8114
   84MOL   H26631972   2.406   2.059   1.370  0.2200 -1.1167 -0.5708
   84MOL   H26731973   2.320   2.126   1.145  0.9047 -3.2235  0.5564
   84MOL   C26831974   2.069   2.196   1.085 -0.4087 -0.1852  0.3243
   84MOL   C26931975   2.062   2.336   1.038 -0.1500 -0.0510 -0.3398
   84MOL   O27031976   2.174   2.252   1.001 -0.2337 -0.1709 -0.5649
   84MOL   C27131977   2.098   2.452   1.132 -0.0021 -0.0533 -0.6812
   84MOL   O27231978   2.136   2.569   1.067  0.4286 -0.0233  0.3678
   84MOL   C27331979   2.051   2.628   0.982  0.1240 -0.6320 -1.2586
   84MOL   C27431980   1.909   2.613   1.002 -0.3282  0.7414  0.6220
   84MOL   C27531981   1.822   2.667   0.902 -0.2214 -0.3572 -0.0670
   84MOL   C27631982   1.873   2.717   0.782  0.2178  0.2794  0.1862
   84MOL   C27731983   2.010   2.725   0.763  0.3104  0.2340 -1.1436
   84MOL   C27831984   2.099   2.685   0.865  0.2383  0.3792  0.0803
   84MOL   H27931985   2.009   2.122   1.033 -0.2236  0.3373 -0.6420
   84MOL   H28031986   1.983   2.350   0.966 -0.1065 -0.8157 -0.5402
   84MOL   H28131987   2.175   2.412   1.197  0.5768 -0.2666 -1.5005
   84MOL   H28231988   2.004   2.470   1.184  0.1460  0.0422 -0.4460
   84MOL   H28331989   1.861   2.580   1.093 -1.0635 -0.4864 -0.1937
   84MOL   H28431990   1.714   2.660   0.911 -0.7229 -0.6021 -5.1991
   84MOL   H28531991   1.802   2.742   0.704  1.0992 -1.1397 -1.0941
   84MOL   H28631992   2.051   2.764   0.671  2.5604 -0.6951 -0.5880
   84MOL   C28731993   2.255   2.679   0.839 -0.9009  0.3064  0.3186
   84MOL   C28831994   2.313   2.566   0.767 -0.8626 -0.2551  0.1096
   84MOL   O28931995   2.274   2.684   0.695 -0.4732 -0.3568 -0.6073
   84MOL   C29031996   2.237   2.442   0.722  0.4810 -0.3608 -0.1217
   84MOL   O29131997   2.304   2.379   0.615 -0.4592  0.1909  0.0219
   84MOL   C29231998   2.283   2.416   0.487  0.3162 -0.3144  0.5294
   84MOL   C29331999   2.201   2.524   0.451 -0.6001  0.2385  0.6466
   84MOL   C29432000   2.175   2.542   0.313 -0.1894 -0.2346  0.0779
   84MOL   C29532001   2.243   2.469   0.215  0.0029 -0.2758 -0.5561
   84MOL   C29632002   2.337   2.370   0.252 -0.0019  0.0045 -0.0177
   84MOL   C29732003   2.359   2.338   0.387  0.0826  0.2738 -0.1835
   84MOL   H29832004   2.317   2.753   0.888 -1.1129  1.1012 -0.6002
   84MOL   H29932005   2.420   2.557   0.785 -0.7147  1.6761  0.3372
   84MOL   H30032006   2.136   2.471   0.694  1.8343  2.4671 -2.3231
   84MOL   H30132007   2.242   2.365   0.799 -1.6302 -1.3017 -0.8875
   84MOL   H30232008   2.144   2.573   0.529 -1.5144  1.3882 -0.7033
   84MOL   H30332009   2.101   2.616   0.285 -1.4484 -0.6386  2.1814
   84MOL   H30432010   2.227   2.500   0.113  5.8778  0.8666 -1.3032
   84MOL   H30532011   2.386   2.310   0.177  1.2086  0.4422  0.4231
   84MOL   C30632012   2.457   2.228   0.422 -0.1589 -0.5152 -0.3898
   84MOL   C30732013   2.412   2.085   0.462  0.2424  0.1995 -0.8159
   84MOL   O30832014   2.457   2.121   0.330  0.0471 -0.1079  0.4884
   84MOL   C30932015   2.261   2.048   0.476  0.0321  0.4777 -0.3732
   84MOL   O31032016   2.262   1.907   0.485 -0.3681  0.6073  0.2575
   84MOL   C31132017   2.188   1.828   0.397  0.3969  0.1168  0.5218
   84MOL   C31232018   2.148   1.871   0.268 -0.2760  0.1588 -0.4223
   84MOL   C31332019   2.049   1.798   0.203  0.6257  0.0230  0.0701
   84MOL   C31432020   1.996   1.685   0.264  0.6007  0.3262 -1.0081
   84MOL   C31532021   2.047   1.627   0.385 -0.0342 -0.1340  0.5517
   84MOL   C31632022   2.144   1.699   0.456  0.7132  0.1112 -0.3201
   84MOL   H31732023   2.559   2.260   0.443  0.6099 -1.7506 -2.0497
   84MOL   H31832024   2.489   2.031   0.519 -0.9603 -2.7600 -1.9210
   84MOL   H31932025   2.212   2.096   0.391 -0.2888  1.6657  0.4712
   84MOL   H32032026   2.229   2.085   0.573 -0.1234  1.1635 -0.6901
   84MOL   H32132027   2.181   1.961   0.219 -0.9506 -0.1732 -1.5033
   84MOL   H32232028   2.021   1.832   0.105 -0.6541  0.4167  0.5543
   84MOL   H32332029   1.921   1.634   0.206  1.4432 -0.5209 -1.3629
   84MOL   H32432030   2.008   1.531   0.415 -0.2711  0.0708  0.9014
   84MOL   C32532031   2.184   1.650   0.596  0.2881  0.5366 -0.0962
   84MOL   C32632032   2.095   1.677   0.717 -0.6746 -0.2738  0.0700
   84MOL   O32732033   2.092   1.548   0.648  0.4156  0.1421 -0.2393
   84MOL   C32832034   1.970   1.765   0.710  0.1146 -0.3584 -0.3729
   84MOL   O32932035   1.887   1.724   0.820 -0.0508 -0.7266 -0.2138
   84MOL   C33032036   1.909   1.749   0.954  0.0893 -0.4858 -0.3398
   84MOL   C33132037   2.000   1.842   1.000  0.3349  0.6377 -0.8887
   84MOL   C33232038   2.015   1.860   1.146  0.1314 -0.0474 -0.6144
   84MOL   C33332039   1.937   1.791   1.240 -0.7226  0.3417  0.2717
   84MOL   C33432040   1.851   1.696   1.189 -0.1969 -0.0255 -0.5944
   84MOL   C33532041   1.829   1.676   1.048 -0.4079 -0.1466 -0.5143
   84MOL   H33632042   2.291   1.633   0.605  0.1452  0.1407  1.0156
   84MOL   H33732043   2.153   1.660   0.807 -2.1403 -2.3812  0.6511
   84MOL   H33832044   1.918   1.752   0.615 -0.0129 -0.2486 -0.3175
   84MOL   H33932045   2.000   1.869   0.703 -0.4310 -0.1891 -0.1921
   84MOL   H34032046   2.078   1.883   0.938  0.8870 -1.7457 -1.8086
   84MOL   H34132047   2.094   1.924   1.182  1.1707  0.1867 -3.1636
   84MOL   H34232048   1.939   1.802   1.347  2.1608 -0.5686  0.3555
   84MOL   H34332049   1.786   1.644   1.258  1.2057  0.5599  1.2059
   84MOL   C34432050   1.742   1.565   1.001  0.1799  0.0943  0.5480
   84MOL   C34532051   1.793   1.420   0.973 -0.1263  0.1287 -0.0937
   84MOL   O34632052   1.729   1.462   1.100 -0.4376  0.4454  0.3832
   84MOL   C34732053   1.936   1.381   0.971 -0.3076 -0.2191  0.7054
   84MOL   O34832054   1.952   1.241   0.934 -0.5438  0.5480 -0.5776
   84MOL   C34932055   1.944   1.194   0.805 -0.5751 -1.2574 -1.0835
   84MOL   C35032056   1.919   1.277   0.693  0.1184 -0.8609  0.4656
   84MOL   C35132057   1.908   1.228   0.563  0.0265  0.3395  0.2121
   84MOL   C35232058   1.917   1.091   0.544  0.1129 -0.0037 -0.0444
   84MOL   C35332059   1.947   1.003   0.653 -0.5116 -0.3507 -1.0625
   84MOL   C35432060   1.961   1.059   0.786  0.6295 -0.0027  0.3559
   84MOL   H35532061   1.644   1.610   0.986  0.2354 -0.4467 -1.6246
   84MOL   H35632062   1.723   1.360   0.915 -0.1796 -0.2738  0.3865
   84MOL   H35732063   1.968   1.397   1.073 -2.6629  0.4872  1.3563
   84MOL   H35832064   1.990   1.453   0.909 -0.0058 -0.8791  0.1889
   84MOL   H35932065   1.909   1.383   0.711  1.4071 -0.5435 -0.5560
   84MOL   H36032066   1.886   1.298   0.483 -1.3956  1.2738  1.3980
   84MOL   H36132067   1.907   1.036   0.451  0.4732  2.0569 -1.3462
   84MOL   H36232068   1.956   0.895   0.648  1.8608 -0.2568  0.4426
   84MOL   C36332069   1.984   0.966   0.905  0.1652 -0.2173  0.5907
   84MOL   C36432070   1.883   0.878   0.971 -0.4727  0.1278  0.1863
   84MOL   O36532071   1.979   0.834   0.869 -0.4852  0.6550  0.1161
   84MOL   C36632072   1.741   0.860   0.934 -0.6403 -0.3790 -0.3720
   84MOL   O36732073   1.701   0.732   0.984  0.3954  0.4896  0.0590
   84MOL   C36832074   1.636   0.710   1.105 -0.2119  0.0995  0.2435
   84MOL   C36932075   1.541   0.800   1.153  0.3231 -0.4831 -0.2820
   84MOL   C37032076   1.462   0.769   1.269 -0.2784 -0.8229 -0.6782
   84MOL   C37132077   1.503   0.654   1.344 -0.5753  0.0996 -0.2287
   84MOL   C37232078   1.604   0.568   1.296 -0.4560 -0.3150 -0.3112
   84MOL   C37332079   1.660   0.589   1.173  0.8700 -0.4336 -0.2308
   84MOL   H37432080   2.079   0.988   0.954  0.2901  0.7633 -0.0645
   84MOL   H37532081   1.912   0.843   1.070  1.1461  0.8787 -0.0244
   84MOL   H37632082   1.733   0.870   0.826 -0.1748  0.1026 -0.3640
   84MOL   H37732083   1.681   0.938   0.980 -1.1872 -0.7046 -0.5288
   84MOL   H37832084   1.517   0.897   1.114 -0.2925  0.1820  1.6913
   84MOL   H37932085   1.386   0.836   1.306 -0.6109 -2.0238  0.8509
   84MOL   H38032086   1.456   0.636   1.439 -1.9964  0.7343 -0.8124
   84MOL   H38132087   1.639   0.488   1.361  0.4647  0.7843  0.5704
   84MOL   H38232088   1.730   0.514   1.140  1.1453 -1.9918  3.6930
   85MOL     C132089   2.936   0.327   1.548 -0.6828  0.6244 -0.6011
   85MOL     C232090   2.889   0.429   1.647  0.3531 -0.7174  0.5454
   85MOL     O332091   2.921   0.294   1.692  0.1945  0.0812 -0.2032
   85MOL     C432092   2.746   0.475   1.650 -0.6283  0.4612 -0.0020
   85MOL     O532093   2.728   0.578   1.750  0.1109  0.7154 -0.2067
   85MOL     C632094   2.603   0.635   1.761 -0.0135  0.3809  0.6440
   85MOL     C732095   2.492   0.615   1.670 -0.6763  0.0910 -0.6429
   85MOL     C832096   2.379   0.690   1.678 -0.2573  0.1117  0.5163
   85MOL     C932097   2.364   0.781   1.779 -0.0081  0.8366 -0.6150
   85MOL    C1032098   2.470   0.806   1.873 -0.2554 -0.2325  0.1811
   85MOL    C1132099   2.591   0.728   1.868  0.2165 -0.3774  0.2690
   85MOL    H1232100   3.036   0.347   1.509 -0.0336 -0.2853  0.5697
   85MOL    H1332101   2.958   0.512   1.650 -0.3037 -0.1693  0.7354
   85MOL    H1432102   2.692   0.383   1.670  1.1416 -0.7591 -0.7111
   85MOL    H1532103   2.724   0.510   1.549  0.9490  0.6557 -0.2849
   85MOL    H1632104   2.503   0.545   1.589 -0.2281  0.5846 -1.0144
   85MOL    H1732105   2.304   0.677   1.601 -2.6898 -1.1945  3.0212
   85MOL    H1832106   2.276   0.843   1.790 -0.6350 -0.2368  0.5706
   85MOL    H1932107   2.444   0.881   1.946 -2.7843  0.5602 -1.4382
   85MOL    H2032108   2.865   0.282   1.479 -1.7623  0.5885  0.5181
   85MOL    C2132109   2.702   0.740   1.971 -0.2832 -0.1098  0.9870
   85MOL    C2232110   2.807   0.849   1.970 -0.6695  0.2750  0.2974
   85MOL    O2332111   2.683   0.866   2.044 -0.5269 -0.1070  0.7185
   85MOL    C2432112   2.818   0.937   1.855 -0.6062 -0.6969 -0.2798
   85MOL    O2532113   2.892   1.058   1.891  0.0735  0.1649  0.4279
   85MOL    C2632114   2.816   1.164   1.936 -0.0023  0.5073  0.4313
   85MOL    C2732115   2.675   1.163   1.958  0.3112 -0.2738 -0.4129
   85MOL    C2832116   2.605   1.277   2.004 -0.6257  0.5298  0.2417
   85MOL    C2932117   2.677   1.396   2.032  0.4037  0.8044 -0.2722
   85MOL    C3032118   2.816   1.397   2.019 -0.3708 -0.5416  0.1713
   85MOL    C3132119   2.889   1.284   1.972  0.1053 -0.0976 -0.1969
   85MOL    H3232120   2.716   0.649   2.029  2.0267  0.6208  1.5967
   85MOL    H3332121   2.895   0.830   2.031  0.0410  3.3739  0.3081
   85MOL    H3432122   2.726   0.957   1.800  0.4565  1.3756 -1.3818
   85MOL    H3532123   2.893   0.894   1.788 -1.2051 -1.8137 -0.2365
   85MOL    H3632124   2.615   1.079   1.923 -0.3415  0.6550 -1.5815
   85MOL    H3732125   2.506   1.271   2.047 -0.0434  1.1410  1.7034
   85MOL    H3832126   2.614   1.479   2.061 -0.4171  0.4129 -0.9045
   85MOL    H3932127   2.872   1.484   2.050 -1.6076  0.3325 -0.0150
   85MOL    C4032128   3.039   1.293   1.961 -0.9951 -0.1769 -0.3195
   85MOL    C4132129   3.122   1.288   1.831  0.3254  0.3967 -0.5394
   85MOL    O4232130   3.073   1.406   1.890  0.0986 -0.2993 -0.1218
   85MOL    C4332131   3.081   1.248   1.687  0.5973 -0.3911  0.0706
   85MOL    O4432132   3.169   1.148   1.643  0.2311  0.0717  0.0399
   85MOL    C4532133   3.156   1.098   1.516  0.0647 -0.2212  0.4200
   85MOL    C4632134   3.043   1.122   1.434 -0.5062  0.0506  0.4350
   85MOL    C4732135   3.044   1.071   1.306  0.4036  0.3499  0.0091
   85MOL    C4832136   3.156   0.994   1.256  0.5749 -0.0461  0.3859
   85MOL    C4932137   3.271   0.979   1.336  0.4496 -0.0963  0.0427
   85MOL    C5032138   3.269   1.033   1.465 -0.8190 -0.3596  0.1283
   85MOL    H5132139   3.092   1.280   2.056 -0.8617  1.7564 -0.1070
   85MOL    H5232140   3.230   1.274   1.839  0.8957  3.6302 -1.7626
   85MOL    H5332141   3.094   1.340   1.628  0.2893 -2.1208 -2.7975
   85MOL    H5432142   2.977   1.215   1.690 -0.1208  1.7928  0.6800
   85MOL    H5532143   2.957   1.170   1.477 -0.5428 -0.0204  0.4395
   85MOL    H5632144   2.965   1.075   1.232 -0.0664 -1.1270  0.4068
   85MOL    H5732145   3.150   0.959   1.154  1.2528  2.1296 -0.4368
   85MOL    H5832146   3.347   0.909   1.304  0.6120  0.1037 -0.0142
   85MOL    C5932147   3.393   1.022   1.549 -0.2346  0.1819  0.9544
   85MOL    C6032148   3.417   0.936   1.672  0.0404 -0.4471 -0.9405
   85MOL    O6132149   3.459   0.892   1.543 -0.0121 -0.0506  0.1746
   85MOL    C6232150   3.309   0.860   1.743 -0.0691  0.0759 -0.2961
   85MOL    O6332151   3.339   0.799   1.867  0.7006  0.1998 -0.1305
   85MOL    C6432152   3.235   0.732   1.935 -0.7704 -0.0260  0.4324
   85MOL    C6532153   3.131   0.663   1.865 -0.5789  0.4733  0.8301
   85MOL    C6632154   3.032   0.598   1.933  0.5832  0.1831  0.1100
   85MOL    C6732155   3.032   0.580   2.075  0.2269 -0.2208 -0.3200
   85MOL    C6832156   3.142   0.641   2.143  0.2880 -0.1470  0.0372
   85MOL    C6932157   3.239   0.721   2.076  0.3791 -0.1773  0.0501
   85MOL    H7032158   3.459   1.108   1.536  0.8077 -0.6523  0.6815
   85MOL    H7132159   3.499   0.982   1.727 -1.6515  1.6973 -0.1519
   85MOL    H7232160   3.286   0.777   1.677  0.6821 -0.5458  0.2021
   85MOL    H7332161   3.211   0.906   1.745 -0.2936 -0.3662 -1.1502
   85MOL    H7432162   3.116   0.671   1.759 -0.2047 -2.1411  0.5672
   85MOL    H7532163   2.955   0.556   1.870 -1.0349  3.4097 -0.1788
   85MOL    H7632164   2.950   0.536   2.130  1.2546 -0.1181  1.3357
   85MOL    H7732165   3.140   0.638   2.251 -2.4073 -4.0255 -0.0238
   85MOL    C7832166   3.336   0.794   2.157 -0.2183  0.3355  0.6405
   85MOL    C7932167   3.349   0.937   2.161  0.0201 -0.4007  0.9803
   85MOL    O8032168   3.283   0.868   2.266  0.8390  0.5877 -1.1214
   85MOL    C8132169   3.269   1.034   2.081  0.1362 -1.1006 -0.2907
   85MOL    O8232170   3.291   1.169   2.134  0.1258  0.6881 -0.0686
   85MOL    C8332171   3.406   1.238   2.104  0.1061 -0.1229  0.6256
   85MOL    C8432172   3.496   1.204   1.996  0.7438  1.1847  0.1881
   85MOL    C8532173   3.607   1.283   1.965  0.8637 -0.5606  0.2440
   85MOL    C8632174   3.621   1.413   2.022 -0.3065  0.1950  0.4964
   85MOL    C8732175   3.539   1.440   2.136  0.0778 -0.3984  0.5204
   85MOL    C8832176   3.433   1.354   2.174  0.5543  0.2759  0.0738
   85MOL    H8932177   3.422   0.732   2.183 -0.6395 -1.3868 -1.9107
   85MOL    H9032178   3.443   0.979   2.196 -0.7377  1.3120  1.0032
   85MOL    H9132179   3.161   1.023   2.086  0.0050  0.3583  0.3243
   85MOL    H9232180   3.289   1.022   1.974 -1.4469 -0.6848 -0.6460
   85MOL    H9332181   3.478   1.115   1.938  0.6744  0.4195  1.3631
   85MOL    H9432182   3.681   1.258   1.890 -0.2550  0.4320 -1.2080
   85MOL    H9532183   3.697   1.484   1.992 -2.0888  1.4897 -1.0483
   85MOL    H9632184   3.553   1.537   2.182 -0.2708 -1.1671  2.2607
   85MOL    C9732185   3.351   1.400   2.288  0.0663  0.3036 -0.4212
   85MOL    C9832186   3.333   1.330   2.415  0.4327  0.2885 -0.4193
   85MOL    O9932187   3.421   1.450   2.395  0.2267 -0.5341  0.8025
   85MOL   C10032188   3.395   1.199   2.460  0.9775  0.2606  0.2236
   85MOL   O10132189   3.526   1.175   2.399  0.3100 -0.2026 -0.5565
   85MOL   C10232190   3.590   1.057   2.421 -0.0437 -0.0090  0.6156
   85MOL   C10332191   3.531   0.950   2.493  0.2118 -0.0284  0.2280
   85MOL   C10432192   3.602   0.827   2.502  0.1980  0.0816  0.9027
   85MOL   C10532193   3.730   0.814   2.457 -0.7207  0.3339  0.0444
   85MOL   C10632194   3.785   0.924   2.387 -0.1455 -0.3818  0.3150
   85MOL   C10732195   3.722   1.047   2.369 -0.1202 -0.2533 -0.9013
   85MOL   H10832196   3.266   1.461   2.258 -0.3751 -0.4489 -0.7197
   85MOL   H10932197   3.241   1.354   2.468 -0.3634 -1.4831 -0.9989
   85MOL   H11032198   3.317   1.126   2.440  0.1635  1.4052 -0.8536
   85MOL   H11132199   3.418   1.210   2.566  2.0452  0.8251 -0.0531
   85MOL   H11232200   3.439   0.955   2.548 -1.1102  1.1755 -2.0242
   85MOL   H11332201   3.569   0.741   2.557  0.7829 -0.8106 -0.1092
   85MOL   H11432202   3.792   0.727   2.479  0.0639  0.8782  0.0152
   85MOL   H11532203   3.890   0.919   2.362  0.5025 -0.9135  2.9317
   85MOL   C11632204   3.790   1.155   2.296 -0.6544  0.2473 -0.1125
   85MOL   C11732205   3.838   1.282   2.365 -0.3574  0.6595  0.6584
   85MOL   O11832206   3.931   1.169   2.330 -0.5900  0.0911  0.5121
   85MOL   C11932207   3.816   1.302   2.509 -0.7406 -0.2512  0.7502
   85MOL   O12032208   3.891   1.413   2.563  0.7328 -0.2446 -0.2936
   85MOL   C12132209   3.842   1.539   2.543 -0.0458 -0.2895 -0.1316
   85MOL   C12232210   3.704   1.566   2.508 -0.3581 -0.5221 -0.8389
   85MOL   C12332211   3.660   1.703   2.486 -0.1758  0.5135 -0.2936
   85MOL   C12432212   3.743   1.807   2.518 -0.1365 -0.6200  0.7971
   85MOL   C12532213   3.880   1.781   2.547  1.0957 -0.1920  0.8231
   85MOL   C12632214   3.928   1.646   2.561 -0.8856 -0.8007 -0.3209
   85MOL   H12732215   3.767   1.152   2.190  1.4641 -0.6000 -0.5919
   85MOL   H12832216   3.857   1.373   2.308  1.8180 -0.3129 -0.2346
   85MOL   H12932217   3.866   1.222   2.564 -0.7731 -0.7656  0.0261
   85MOL   H13032218   3.711   1.287   2.534 -0.8735 -0.3630  0.1208
   85MOL   H13132219   3.630   1.488   2.495 -1.0556  0.5242 -3.5247
   85MOL   H13232220   3.554   1.708   2.466 -0.2290 -0.4851 -0.2867
   85MOL   H13332221   3.705   1.908   2.510 -1.0760 -1.1708 -2.3862
   85MOL   H13432222   3.945   1.864   2.568  0.7674  0.1901  0.3347
   85MOL   C13532223   4.078   1.627   2.595 -0.6421  0.6046  0.5403
   85MOL   C13632224   4.177   1.555   2.513  0.5559  0.7168  0.3324
   85MOL   O13732225   4.168   1.695   2.503 -0.4824  0.5218 -0.1542
   85MOL   C13832226   4.143   1.477   2.390 -0.9098 -0.2536 -0.1997
   85MOL   O13932227   4.255   1.481   2.310 -0.2013 -0.2555 -0.3907
   85MOL   C14032228   4.238   1.469   2.176 -0.0223  0.4724  0.4749
   85MOL   C14132229   4.138   1.376   2.120 -0.3112 -0.1217  0.3848
   85MOL   C14232230   4.111   1.380   1.983 -0.0059  0.1787 -0.1216
   85MOL   C14332231   4.174   1.473   1.896  0.0929 -0.2009  0.5945
   85MOL   C14432232   4.265   1.561   1.950 -0.0516 -0.1075 -0.2442
   85MOL   C14532233   4.308   1.554   2.085  0.5128 -0.9505 -0.5815
   85MOL   H14632234   4.112   1.613   2.697  0.2636  0.3042  0.2057
   85MOL   H14732235   4.273   1.528   2.558 -0.0721  0.6587  1.6618
   85MOL   H14832236   4.048   1.502   2.343 -0.9140  1.9334  0.8886
   85MOL   H14932237   4.137   1.372   2.415 -2.4180 -0.2170 -0.3406
   85MOL   H15032238   4.073   1.309   2.174  0.7075 -2.4011 -1.1354
   85MOL   H15132239   4.047   1.306   1.936 -0.7319 -0.0942  1.2898
   85MOL   H15232240   4.151   1.471   1.790  0.4046  0.1156  0.5182
   85MOL   H15332241   4.330   1.632   1.901 -0.0126 -0.8601 -1.2973
   85MOL   C15432242   4.416   1.646   2.134  0.3895  0.4584 -0.0119
   85MOL   C15532243   4.551   1.599   2.204 -0.3773  0.8965 -0.6160
   85MOL   O15632244   4.538   1.608   2.061 -0.1974  0.1693  0.9087
   85MOL   C15732245   4.575   1.459   2.253 -0.4306  0.3633 -0.4225
   85MOL   O15832246   4.716   1.434   2.261 -0.3075  0.0955  0.1293
   85MOL   C15932247   4.784   1.446   2.379 -0.8144  0.1769 -0.4902
   85MOL   C16032248   4.726   1.491   2.503 -0.6704 -0.7355 -0.2305
   85MOL   C16132249   4.804   1.503   2.619 -0.0579 -0.6582 -0.7006
   85MOL   C16232250   4.935   1.454   2.612 -0.2482 -0.1792 -0.0875
   85MOL   C16332251   4.993   1.413   2.490 -0.0524 -0.6468 -0.0683
   85MOL   C16432252   4.919   1.406   2.372 -0.0231 -0.8781 -0.1104
   85MOL   H16532253   4.396   1.753   2.137 -0.5456  0.3773 -2.4665
   85MOL   H16632254   4.597   1.682   2.257  0.2683 -0.8123  1.5739
   85MOL   H16732255   4.537   1.381   2.188 -0.1400  1.1046 -1.4981
   85MOL   H16832256   4.520   1.443   2.346 -0.3765  0.3034 -0.4004
   85MOL   H16932257   4.624   1.525   2.516 -0.4159 -0.7360  2.1203
   85MOL   H17032258   4.764   1.540   2.713  1.5852  0.3504 -0.3932
   85MOL   H17132259   5.007   1.462   2.691 -2.1858  1.1438  1.6073
   85MOL   H17232260   5.095   1.377   2.493  0.7478  1.6361  0.8635
   85MOL   C17332261   4.987   1.361   2.239 -0.0317 -0.3090  0.5063
   85MOL   C17432262   5.005   1.449   2.116  0.2106 -0.1913 -0.6288
   85MOL   O17532263   5.112   1.419   2.211  0.2117 -0.3493  0.0311
   85MOL   C17632264   4.950   1.591   2.113  0.1922 -0.1359 -0.3843
   85MOL   O17732265   5.019   1.672   2.019  0.2776  0.3201  0.2236
   85MOL   C17832266   4.977   1.801   1.992 -0.1705  0.0288 -0.2919
   85MOL   C17932267   4.881   1.866   2.075  0.4482 -0.2212  0.0747
   85MOL   C18032268   4.859   2.004   2.051 -0.5879 -0.9238  0.3497
   85MOL   C18132269   4.920   2.064   1.942  0.8441  0.2536 -0.0157
   85MOL   C18232270   5.004   1.990   1.858  0.9858  0.7085  0.4149
   85MOL   C18332271   5.044   1.860   1.885 -0.4520 -0.3260 -0.1134
   85MOL   H18432272   4.986   1.252   2.230 -0.4448 -0.1163 -2.0595
   85MOL   H18532273   4.998   1.399   2.020  2.2543 -1.3805 -0.1987
   85MOL   H18632274   4.965   1.639   2.210 -0.7090 -0.0208 -0.2989
   85MOL   H18732275   4.843   1.592   2.093  0.3401  1.2409 -1.0973
   85MOL   H18832276   4.818   1.817   2.149 -0.1031  0.2988 -0.0463
   85MOL   H18932277   4.785   2.053   2.112 -1.0828 -1.0311 -0.1620
   85MOL   H19032278   4.883   2.157   1.900  0.8102 -1.2929 -3.6452
   85MOL   H19132279   5.027   2.040   1.765  2.3163 -1.4284 -0.4491
   85MOL   C19232280   5.141   1.792   1.795 -0.4873  0.1771  0.5786
   85MOL   C19332281   5.270   1.859   1.734  0.4962  0.3228  0.0258
   85MOL   O19432282   5.272   1.787   1.856 -0.1627 -0.4670  0.4295
   85MOL   C19532283   5.311   1.999   1.752 -0.1147 -0.0256 -0.1928
   85MOL   O19632284   5.457   2.004   1.763 -0.2066 -0.0132 -0.1906
   85MOL   C19732285   5.527   2.119   1.749  0.2055 -0.0565 -0.2947
   85MOL   C19832286   5.496   2.229   1.662  0.1192 -0.2609  0.5349
   85MOL   C19932287   5.555   2.359   1.680 -0.4271  0.0669 -0.1587
   85MOL   C20032288   5.660   2.371   1.769  0.1756 -0.7930 -0.3054
   85MOL   C20132289   5.698   2.261   1.848 -0.4383 -0.2826  0.0299
   85MOL   C20232290   5.637   2.136   1.834  0.2932  0.0598 -0.2665
   85MOL   H20332291   5.113   1.697   1.750 -1.6466  1.2161 -0.9356
   85MOL   H20432292   5.335   1.811   1.660 -0.7527  1.1658 -1.6631
   85MOL   H20532293   5.278   2.046   1.845  0.0021 -0.0164 -0.1559
   85MOL   H20632294   5.288   2.060   1.664  0.3542  0.7850  0.2391
   85MOL   H20732295   5.413   2.224   1.594 -0.3882 -0.0637  1.1352
   85MOL   H20832296   5.531   2.445   1.620  0.5385  0.1913 -0.3691
   85MOL   H20932297   5.706   2.467   1.792  1.4768 -1.6429  0.7040
   85MOL   H21032298   5.778   2.283   1.917  0.0636 -0.7463 -0.4063
   85MOL   C21132299   5.685   2.023   1.922 -0.1132  0.5624  0.1089
   85MOL   C21232300   5.772   1.907   1.877 -0.3090 -0.0269  0.4772
   85MOL   O21332301   5.828   2.028   1.942 -0.4692  0.4204 -0.0639
   85MOL   C21432302   5.818   1.879   1.733  0.2295  0.2543  0.0017
   85MOL   O21532303   5.861   1.743   1.720 -0.2815 -0.1719 -0.4281
   85MOL   C21632304   5.780   1.635   1.707  0.1502 -0.2078 -0.5353
   85MOL   C21732305   5.639   1.651   1.712  1.0426 -0.2602 -0.0228
   85MOL   C21832306   5.555   1.541   1.680  0.2873 -0.2577 -0.7484
   85MOL   C21932307   5.613   1.412   1.657 -0.0913 -0.3715  0.2398
   85MOL   C22032308   5.750   1.402   1.653 -0.2965 -0.3615 -0.1973
   85MOL   C22132309   5.838   1.511   1.668  0.4429  0.2621  0.3099
   85MOL   H22232310   5.634   2.006   2.017 -0.9339  0.8562 -0.2844
   85MOL   H22332311   5.740   1.818   1.930 -0.3283  1.1960  2.5962
   85MOL   H22432312   5.909   1.938   1.720  1.2194 -1.2375 -0.0035
   85MOL   H22532313   5.736   1.893   1.663 -0.0791 -0.6752  0.1644
   85MOL   H22632314   5.586   1.744   1.730 -2.3723 -2.1315 -0.0241
   85MOL   H22732315   5.449   1.553   1.694  0.2995 -0.4283 -0.4905
   85MOL   H22832316   5.541   1.332   1.649 -0.3781  0.0318 -1.3214
   85MOL   H22932317   5.781   1.304   1.620  1.1525 -0.0812  0.3115
   85MOL   C23032318   5.984   1.489   1.649  0.6626 -0.1301 -0.0774
   85MOL   C23132319   6.074   1.513   1.761  0.0452  0.3197  0.0695
   85MOL   O23232320   6.025   1.382   1.740  0.1001 -0.2379 -0.2509
   85MOL   C23332321   6.043   1.571   1.897  0.8152 -0.3253 -0.6068
   85MOL   O23432322   6.132   1.522   2.004 -0.3789 -0.2485  0.3915
   85MOL   C23532323   6.263   1.561   1.991  0.5278 -0.5954  0.1224
   85MOL   C23632324   6.313   1.682   1.929  0.8181  0.2421  0.2520
   85MOL   C23732325   6.450   1.708   1.931 -0.4732  0.1444  0.1594
   85MOL   C23832326   6.545   1.627   1.991 -0.5644 -0.5164 -0.1117
   85MOL   C23932327   6.498   1.507   2.058 -0.0025  0.4671  0.0140
   85MOL   C24032328   6.359   1.481   2.056 -0.5035  0.6767  0.0763
   85MOL   H24132329   6.010   1.466   1.546 -0.2252 -0.1763 -0.2996
   85MOL   H24232330   6.178   1.521   1.728  0.8870 -2.9553  1.7420
   85MOL   H24332331   5.944   1.538   1.930  0.2253  1.9993  0.0857
   85MOL   H24432332   6.026   1.679   1.896 -2.1709 -0.7521  0.1503
   85MOL   H24532333   6.247   1.754   1.881  2.3996  1.7062  0.2270
   85MOL   H24632334   6.474   1.798   1.877  0.1652 -0.0438  0.1268
   85MOL   H24732335   6.649   1.656   1.987 -1.0382  1.4626  1.1413
   85MOL   H24832336   6.563   1.448   2.120 -0.9747 -1.0459 -0.3971
   85MOL   C24932337   6.303   1.365   2.141  0.2136  0.1516  0.0046
   85MOL   C25032338   6.314   1.221   2.088 -0.1064 -0.6150 -0.1573
   85MOL   O25132339   6.406   1.278   2.183  0.4134 -1.0256  0.2749
   85MOL   C25232340   6.378   1.182   1.957  0.6601 -0.9256 -0.3109
   85MOL   O25332341   6.476   1.076   1.978  0.1944 -0.2495  0.4053
   85MOL   C25432342   6.439   0.941   1.976 -1.2682 -0.5274 -1.1603
   85MOL   C25532343   6.306   0.898   1.941 -0.3250 -0.0385 -0.1411
   85MOL   C25632344   6.275   0.763   1.961  0.0367 -0.2437 -0.1030
   85MOL   C25732345   6.380   0.671   1.989 -0.8921  0.3083 -0.0868
   85MOL   C25832346   6.512   0.705   2.012 -0.2373  0.1826  0.1750
   85MOL   C25932347   6.545   0.841   2.000  0.0800 -0.0646 -0.2596
   85MOL   H26032348   6.238   1.403   2.220  0.6539  0.6200  0.1421
   85MOL   H26132349   6.257   1.142   2.136  0.0687 -0.4924  0.2593
   85MOL   H26232350   6.438   1.267   1.924 -1.2979  0.3070 -0.7345
   85MOL   H26332351   6.307   1.159   1.878 -1.1958  2.4365  0.3090
   85MOL   H26432352   6.226   0.968   1.921 -0.1826  0.4694  1.0203
   85MOL   H26532353   6.170   0.740   1.946 -0.0698  0.5397 -0.5608
   85MOL   H26632354   6.357   0.568   2.013  0.6521  0.0342  0.2796
   85MOL   H26732355   6.584   0.631   2.043 -0.5480  0.2013  0.9297
   85MOL   C26832356   6.691   0.889   2.019 -0.2505 -0.2480  0.2653
   85MOL   C26932357   6.764   0.905   2.156  0.0204  0.1576 -0.1867
   85MOL   O27032358   6.768   0.784   2.075  0.0162  0.5483  0.6186
   85MOL   C27132359   6.694   0.889   2.288 -0.0301  0.2370 -0.8264
   85MOL   O27232360   6.784   0.842   2.389  0.1455  0.1314 -0.1248
   85MOL   C27332361   6.850   0.936   2.470 -0.4128  0.5813 -0.5808
   85MOL   C27432362   6.843   1.079   2.453  0.2761  0.0814  0.1361
   85MOL   C27532363   6.910   1.158   2.550  0.3787 -0.5039 -0.9834
   85MOL   C27632364   6.987   1.097   2.645  0.0606 -0.2101  0.0708
   85MOL   C27732365   7.014   0.959   2.647  0.3490 -0.0898  0.4290
   85MOL   C27832366   6.938   0.881   2.564 -0.0531 -0.4469  0.9736
   85MOL   H27932367   6.725   0.926   1.923 -1.6943 -0.6445 -0.4189
   85MOL   H28032368   6.858   0.959   2.166  0.5155 -0.6721 -0.3171
   85MOL   H28132369   6.614   0.816   2.283  0.9119 -0.8005 -0.9857
   85MOL   H28232370   6.655   0.985   2.324  2.3549 -0.1000  2.9571
   85MOL   H28332371   6.777   1.130   2.385  0.0862  2.3981  1.9895
   85MOL   H28432372   6.876   1.260   2.558  1.0923 -0.1093 -2.6601
   85MOL   H28532373   7.044   1.164   2.708  0.9825  0.7922 -1.7879
   85MOL   H28632374   7.076   0.913   2.723  0.3517  1.0906  1.1647
   85MOL   C28732375   6.961   0.735   2.559 -0.1552  0.2091 -0.5289
   85MOL   C28832376   7.038   0.665   2.452  0.4839  0.2612 -1.1608
   85MOL   O28932377   7.099   0.710   2.579  0.1377  0.3178  0.0799
   85MOL   C29032378   7.093   0.730   2.329 -0.0159 -0.0490 -0.1614
   85MOL   O29132379   7.163   0.639   2.243  0.0988  0.3078  0.8032
   85MOL   C29232380   7.289   0.667   2.216 -0.1931  0.9413 -0.5633
   85MOL   C29332381   7.385   0.688   2.317  0.1972 -0.1886  0.2751
   85MOL   C29432382   7.515   0.731   2.288  0.3464  0.8598  0.2766
   85MOL   C29532383   7.548   0.763   2.156 -0.3831 -0.1613  0.5394
   85MOL   C29632384   7.451   0.739   2.057 -0.2646 -0.0928  0.1073
   85MOL   C29732385   7.324   0.688   2.084 -0.0046 -0.6358  0.4623
   85MOL   H29832386   6.903   0.688   2.638  2.3524  0.1294  1.3225
   85MOL   H29932387   7.011   0.559   2.453 -2.8864  1.0525  1.3048
   85MOL   H30032388   7.149   0.817   2.362 -0.0947  0.2506 -0.8087
   85MOL   H30132389   7.012   0.769   2.267 -0.0516  1.0121  0.5443
   85MOL   H30232390   7.356   0.677   2.421  1.8218 -0.4096  0.7153
   85MOL   H30332391   7.585   0.752   2.368  1.1156  1.0633 -0.4362
   85MOL   H30432392   7.646   0.804   2.135 -0.0849 -0.5910  1.0728
   85MOL   H30532393   7.469   0.749   1.951  0.4877  0.4031  0.2827
   85MOL   C30632394   7.226   0.669   1.968 -0.6869 -0.0751 -0.3329
   85MOL   C30732395   7.122   0.779   1.920  0.0080 -0.3915  0.6189
   85MOL   O30832396   7.256   0.768   1.874 -0.2373  0.1238 -0.7564
   85MOL   C30932397   7.084   0.905   1.992 -0.1092  0.1186  0.3116
   85MOL   O31032398   6.977   0.988   1.949 -0.2223 -0.8337  0.1870
   85MOL   C31132399   7.015   1.091   1.860  0.7639 -0.9386 -0.3092
   85MOL   C31232400   7.138   1.096   1.794 -0.1970  0.2280 -0.2321
   85MOL   C31332401   7.167   1.205   1.704 -0.3148 -0.3998 -0.2411
   85MOL   C31432402   7.086   1.319   1.694 -0.9627 -0.2126 -0.5937
   85MOL   C31532403   6.964   1.309   1.760  0.7155 -0.4723 -0.7124
   85MOL   C31632404   6.927   1.197   1.845 -0.0437 -0.2531  0.2295
   85MOL   H31732405   7.236   0.569   1.926  1.6535  0.1230 -0.3080
   85MOL   H31832406   7.043   0.749   1.853  1.6748 -0.0417 -1.5755
   85MOL   H31932407   7.179   0.958   1.995  0.9201 -1.6470 -0.1421
   85MOL   H32032408   7.064   0.879   2.096 -0.4264 -1.5071 -0.1328
   85MOL   H32132409   7.206   1.013   1.798 -1.0887 -0.4720  0.5241
   85MOL   H32232410   7.257   1.180   1.650 -1.0665 -3.0600 -0.3572
   85MOL   H32332411   7.106   1.403   1.629 -0.0488  0.8392  1.0003
   85MOL   H32432412   6.893   1.390   1.749  0.7212  0.1749  3.1550
   85MOL   C32532413   6.798   1.186   1.917  0.3850 -0.7165 -0.4571
   85MOL   C32632414   6.774   1.235   2.061  0.5732  0.1230  0.6189
   85MOL   O32732415   6.744   1.317   1.949 -0.2583  0.4054 -0.5563
   85MOL   C32832416   6.888   1.285   2.140  0.5780  0.2519  0.2552
   85MOL   O32932417   6.835   1.363   2.246  0.0996 -0.1055  0.4979
   85MOL   C33032418   6.921   1.418   2.336  0.3937 -0.2395  0.8605
   85MOL   C33132419   7.060   1.388   2.338  0.1044 -0.2250 -0.6500
   85MOL   C33232420   7.152   1.452   2.421 -0.2678  0.4369 -0.1843
   85MOL   C33332421   7.102   1.564   2.499  0.2553 -0.5155 -0.2890
   85MOL   C33432422   6.962   1.599   2.492 -0.2521 -0.1868 -0.8261
   85MOL   C33532423   6.874   1.527   2.407 -0.7761  0.6197 -0.1842
   85MOL   H33632424   6.718   1.129   1.870  1.3519 -1.0132 -1.7796
   85MOL   H33732425   6.687   1.193   2.112 -0.1339  1.1091  0.2428
   85MOL   H33832426   6.945   1.353   2.077  2.1370 -0.6954  0.6166
   85MOL   H33932427   6.951   1.203   2.173 -0.4177 -0.8221 -0.4838
   85MOL   H34032428   7.108   1.317   2.273 -0.6147  0.4008 -1.8877
   85MOL   H34132429   7.253   1.416   2.429 -0.4572 -0.5848 -2.1772
   85MOL   H34232430   7.166   1.612   2.571 -1.7106  1.8918 -0.0902
   85MOL   H34332431   6.928   1.690   2.540  2.1713 -0.5192  1.5859
   85MOL   C34432432   6.738   1.579   2.390  0.7968 -0.0640 -0.0998
   85MOL   C34532433   6.616   1.527   2.462  0.3851  0.3817 -0.6946
   85MOL   O34632434   6.685   1.651   2.500  0.3420 -0.4255 -0.1746
   85MOL   C34732435   6.616   1.409   2.553 -0.2982 -0.1718 -0.2711
   85MOL   O34832436   6.526   1.436   2.662 -0.5648  0.2597  0.0197
   85MOL   C34932437   6.472   1.322   2.720 -0.4277 -0.0225  1.1156
   85MOL   C35032438   6.533   1.196   2.710 -0.3781 -0.2764 -0.0767
   85MOL   C35132439   6.464   1.081   2.745 -0.4046 -0.6241 -0.1944
   85MOL   C35232440   6.329   1.093   2.791  0.0531 -0.3329  0.0746
   85MOL   C35332441   6.272   1.218   2.816  0.7474 -0.2092  0.1253
   85MOL   C35432442   6.339   1.335   2.772 -0.4656  0.2979 -0.5338
   85MOL   H35532443   6.713   1.619   2.292  1.1378  1.0298  0.2533
   85MOL   H35632444   6.521   1.549   2.414  0.9472 -2.2009 -3.0836
   85MOL   H35732445   6.718   1.394   2.588 -0.8904  0.1438  1.6349
   85MOL   H35832446   6.587   1.327   2.487  1.2213 -2.1398  1.4363
   85MOL   H35932447   6.627   1.180   2.660 -0.9386  1.7171 -1.8227
   85MOL   H36032448   6.510   0.985   2.729 -0.2776 -0.5234 -0.4421
   85MOL   H36132449   6.271   1.002   2.798 -0.2729 -0.3600 -2.4940
   85MOL   H36232450   6.171   1.234   2.849  0.8387  0.8562 -0.0956
   85MOL   C36332451   6.269   1.465   2.774  0.8304  0.2837  0.3641
   85MOL   C36432452   6.188   1.524   2.658  0.2768  0.5735  0.1277
   85MOL   O36532453   6.127   1.448   2.765  0.9923 -0.0830 -0.0676
   85MOL   C36632454   6.176   1.451   2.526 -0.0637  0.8668 -0.2320
   85MOL   O36732455   6.129   1.538   2.421 -0.5452  0.0884 -0.1552
   85MOL   C36832456   5.994   1.566   2.413 -0.7082  0.1149 -0.0442
   85MOL   C36932457   5.906   1.574   2.525  0.6461  0.2388  1.2701
   85MOL   C37032458   5.770   1.599   2.514  0.2594 -0.1064  0.1612
   85MOL   C37132459   5.723   1.623   2.381  0.2912 -0.0999 -0.4518
   85MOL   C37232460   5.810   1.618   2.269  0.7025  0.5418 -0.5131
   85MOL   C37332461   5.943   1.586   2.286 -0.7918 -0.4088  0.4543
   85MOL   H37432462   6.305   1.524   2.858 -1.1208 -0.2630  1.6106
   85MOL   H37532463   6.172   1.631   2.655 -1.3154  0.3079 -2.2831
   85MOL   H37632464   6.099   1.374   2.534 -0.2889  1.0831 -0.3283
   85MOL   H37732465   6.272   1.402   2.505  1.3404  2.6113  1.8365
   85MOL   H37832466   5.942   1.565   2.626  0.4794 -0.4100  1.2721
   85MOL   H37932467   5.711   1.604   2.604 -0.9945 -2.2294 -0.4952
   85MOL   H38032468   5.619   1.638   2.359 -0.1508  1.7571  2.5973
   85MOL   H38132469   5.766   1.641   2.173 -2.1705  0.8154  0.8212
   85MOL   H38232470   6.010   1.585   2.202  0.4267  1.9430  1.3509
   86MOL     C132471   1.127   6.601   2.259  0.0808  0.6057  0.1163
   86MOL     C232472   1.218   6.582   2.145 -0.0696  0.7506 -0.6071
   86MOL     O332473   1.104   6.500   2.163  0.7334 -0.5634  0.3101
   86MOL     C432474   1.345   6.502   2.163  0.5170 -0.3958 -0.1910
   86MOL     O532475   1.366   6.476   2.301 -0.3132 -0.9078 -0.0026
   86MOL     C632476   1.470   6.393   2.332  0.0444  0.2547  0.8044
   86MOL     C732477   1.580   6.380   2.249 -0.4445 -0.4353 -0.1832
   86MOL     C832478   1.693   6.302   2.294  0.0674 -0.1619 -0.0003
   86MOL     C932479   1.680   6.228   2.415  0.2097  0.6243 -0.0522
   86MOL    C1032480   1.560   6.234   2.487  0.4832 -0.0917  0.1209
   86MOL    C1132481   1.452   6.316   2.449 -0.4981 -0.5740 -0.2614
   86MOL    H1232482   1.064   6.690   2.252  0.8186  1.0189 -1.4699
   86MOL    H1332483   1.210   6.639   2.053  1.7427  2.2890  0.1514
   86MOL    H1432484   1.428   6.563   2.128  0.6929 -0.6626 -0.2368
   86MOL    H1532485   1.338   6.409   2.106  0.0798  0.3032 -1.2915
   86MOL    H1632486   1.595   6.434   2.157  1.2403  2.0036  1.4487
   86MOL    H1732487   1.782   6.290   2.235  1.0252 -2.5456  1.8556
   86MOL    H1832488   1.769   6.171   2.435  1.0923  1.0985 -2.4246
   86MOL    H1932489   1.559   6.184   2.583  0.2205  0.8432  0.6063
   86MOL    H2032490   1.167   6.576   2.356 -0.6153 -1.2711 -0.0595
   86MOL    C2132491   1.325   6.318   2.530  0.0180 -0.4202  0.3040
   86MOL    C2232492   1.238   6.203   2.567  1.1286 -0.3554 -0.0104
   86MOL    O2332493   1.335   6.256   2.656  0.3870 -0.0145 -0.1472
   86MOL    C2432494   1.249   6.054   2.539 -0.4117 -0.0733  0.1098
   86MOL    O2532495   1.175   5.986   2.635 -0.3954  0.4523  0.7741
   86MOL    C2632496   1.235   5.955   2.751  0.1379 -0.2708  0.4384
   86MOL    C2732497   1.346   5.872   2.755  0.4580 -0.0574  0.1904
   86MOL    C2832498   1.411   5.845   2.875 -0.1026 -0.0227  0.9226
   86MOL    C2932499   1.353   5.899   2.996 -0.1812  1.0358  0.8548
   86MOL    C3032500   1.237   5.979   2.995 -0.2807  0.3096  0.3451
   86MOL    C3132501   1.176   6.011   2.868 -0.2757 -0.7820 -0.0233
   86MOL    H3232502   1.283   6.417   2.541  2.1783  0.7091 -1.2176
   86MOL    H3332503   1.137   6.230   2.598  2.2680  3.4565  0.5759
   86MOL    H3432504   1.351   6.019   2.527 -0.5945 -0.6669  0.2839
   86MOL    H3532505   1.194   6.024   2.450 -1.7817  1.1164  0.5301
   86MOL    H3632506   1.374   5.817   2.667 -0.7481  0.0841 -0.2915
   86MOL    H3732507   1.496   5.778   2.877  0.7012  1.0043  1.8483
   86MOL    H3832508   1.394   5.883   3.095 -1.3701 -0.6528  1.1045
   86MOL    H3932509   1.181   6.016   3.080 -2.2564 -0.6163 -0.5261
   86MOL    C4032510   1.041   6.090   2.870  0.6182  0.6389  0.5987
   86MOL    C4132511   0.909   6.047   2.924 -0.1057 -0.7535  0.2630
   86MOL    O4232512   0.994   6.148   2.990  0.2877  0.4406  0.0314
   86MOL    C4332513   0.881   5.925   3.010 -0.2776  0.1168  0.1954
   86MOL    O4432514   0.796   5.958   3.120 -0.6271  0.2133 -0.4211
   86MOL    C4532515   0.664   5.978   3.102  0.5290  0.5035 -1.6274
   86MOL    C4632516   0.604   5.962   2.974 -0.0774 -0.6790  0.3420
   86MOL    C4732517   0.463   5.980   2.956  0.0565 -0.3947  0.5934
   86MOL    C4832518   0.387   6.023   3.069 -0.2582 -0.7446 -0.4709
   86MOL    C4932519   0.441   6.042   3.195  0.0958 -0.1536 -0.4388
   86MOL    C5032520   0.581   6.020   3.210  0.2424 -0.1254 -0.4142
   86MOL    H5132521   1.040   6.152   2.780  1.6273 -0.6077 -0.3024
   86MOL    H5232522   0.820   6.088   2.876  1.5753  0.3236 -2.0251
   86MOL    H5332523   0.974   5.888   3.054  1.1135 -1.0557 -3.5200
   86MOL    H5432524   0.847   5.833   2.961  1.5206  0.3515 -1.5441
   86MOL    H5532525   0.659   5.935   2.886 -0.5271  0.0204 -0.1576
   86MOL    H5632526   0.418   5.958   2.861  0.7296 -0.8501  0.3769
   86MOL    H5732527   0.279   6.027   3.058 -0.3401 -0.2222  0.4203
   86MOL    H5832528   0.389   6.081   3.281 -2.2524 -0.0900 -1.8699
   86MOL    C5932529   0.653   6.058   3.340 -0.0293 -0.0341  0.1528
   86MOL    C6032530   0.749   6.170   3.347 -0.1156  0.2043  0.2804
   86MOL    O6132531   0.616   6.189   3.386  0.2399  0.0179  0.5036
   86MOL    C6232532   0.798   6.253   3.228 -0.1964 -0.0620 -0.0681
   86MOL    O6332533   0.939   6.261   3.245 -0.7208 -0.2931  0.2323
   86MOL    C6432534   0.978   6.371   3.317  0.9792 -0.0526  0.3202
   86MOL    C6532535   0.892   6.459   3.392  0.2597  0.9844  0.3654
   86MOL    C6632536   0.948   6.567   3.461  0.6009  0.4781  0.2111
   86MOL    C6732537   1.084   6.595   3.460  0.5776  0.6733  0.0417
   86MOL    C6832538   1.170   6.505   3.387  0.3465  0.4957 -0.6892
   86MOL    C6932539   1.119   6.387   3.320 -0.0899  0.9244 -0.6778
   86MOL    H7032540   0.679   5.980   3.412  1.6702  0.5517  0.2039
   86MOL    H7132541   0.822   6.161   3.427  0.8113 -0.6618 -0.6455
   86MOL    H7232542   0.754   6.352   3.223 -0.1939 -0.1124 -1.3139
   86MOL    H7332543   0.789   6.206   3.130 -0.7855  1.3085 -0.6777
   86MOL    H7432544   0.788   6.432   3.401  0.6522 -0.2705  1.1440
   86MOL    H7532545   0.882   6.627   3.523  0.4364 -1.7444  2.2754
   86MOL    H7632546   1.130   6.687   3.496  1.3069  1.2704 -2.3209
   86MOL    H7732547   1.278   6.515   3.394  0.3842  0.0941 -0.6512
   86MOL    C7832548   1.206   6.282   3.258 -0.0916 -0.3468  0.6970
   86MOL    C7932549   1.272   6.294   3.126  0.7999  0.1144 -0.1612
   86MOL    O8032550   1.337   6.333   3.245  0.3311  0.0369 -0.3903
   86MOL    C8132551   1.252   6.409   3.029  0.7594 -0.5951 -0.6704
   86MOL    O8232552   1.358   6.442   2.938 -0.4320  0.3781 -0.0611
   86MOL    C8332553   1.478   6.486   2.996  0.5548 -0.3382 -0.5292
   86MOL    C8432554   1.479   6.548   3.123  0.0886 -0.2190 -0.7337
   86MOL    C8532555   1.592   6.613   3.176 -0.0161  0.5877  0.2287
   86MOL    C8632556   1.709   6.617   3.097 -0.4883  0.4676 -0.3224
   86MOL    C8732557   1.709   6.565   2.965 -0.3862 -0.4532  0.0366
   86MOL    C8832558   1.595   6.500   2.916 -0.2899 -0.6880 -0.3029
   86MOL    H8932559   1.201   6.184   3.305  0.0413 -1.8091 -2.2282
   86MOL    H9032560   1.301   6.197   3.086 -1.0025 -0.6120  0.2364
   86MOL    H9132561   1.208   6.494   3.080  0.4240 -0.7436 -0.7096
   86MOL    H9232562   1.172   6.386   2.959 -0.3744 -0.2343  0.5013
   86MOL    H9332563   1.391   6.544   3.186  1.1198  0.2931  0.7657
   86MOL    H9432564   1.592   6.652   3.276 -1.3449  0.1020  0.4202
   86MOL    H9532565   1.803   6.655   3.135 -0.9075 -2.1124  3.5552
   86MOL    H9632566   1.789   6.581   2.894 -1.5681  0.9054 -1.0175
   86MOL    C9732567   1.577   6.465   2.773 -0.1206  0.2489  0.4855
   86MOL    C9832568   1.579   6.566   2.655  0.2121 -0.6623  0.2572
   86MOL    O9932569   1.698   6.499   2.695 -0.2962 -0.3333 -0.8357
   86MOL   C10032570   1.577   6.712   2.684  0.3313  0.0574 -0.7135
   86MOL   O10132571   1.579   6.776   2.558  0.3195 -0.0383  0.2009
   86MOL   C10232572   1.458   6.821   2.514 -0.0271  0.1454  0.0613
   86MOL   C10332573   1.328   6.768   2.552 -0.0843  0.7266 -0.5369
   86MOL   C10432574   1.215   6.825   2.497  0.3352  0.1113 -0.4564
   86MOL   C10532575   1.221   6.939   2.417 -0.8253  0.8205  0.1006
   86MOL   C10632576   1.348   6.982   2.371  0.0233 -0.6132  0.1632
   86MOL   C10732577   1.465   6.928   2.420 -1.0931 -0.7743 -0.4908
   86MOL   H10832578   1.544   6.362   2.755  0.1840 -0.1224  2.0322
   86MOL   H10932579   1.550   6.539   2.553 -1.0740 -0.7126  0.6350
   86MOL   H11032580   1.673   6.755   2.715  0.6821 -0.1265 -1.5161
   86MOL   H11132581   1.500   6.743   2.754 -0.0749 -1.7057 -0.3580
   86MOL   H11232582   1.322   6.683   2.618  1.3850  1.0707  0.0690
   86MOL   H11332583   1.116   6.783   2.510  1.0666 -1.5609 -0.0766
   86MOL   H11432584   1.135   6.970   2.360 -0.6642 -2.4043 -2.0339
   86MOL   H11532585   1.354   7.069   2.308  0.3222  0.7513  2.0215
   86MOL   C11632586   1.597   6.984   2.384 -0.3455  0.7302 -0.2503
   86MOL   C11732587   1.659   6.963   2.248 -0.3999  0.0076 -0.1427
   86MOL   O11832588   1.594   7.089   2.286 -0.6411  0.0841 -0.0576
   86MOL   C11932589   1.588   6.887   2.144  0.2276 -0.4171  0.4222
   86MOL   O12032590   1.672   6.820   2.046  0.4798 -0.0245  0.8192
   86MOL   C12132591   1.757   6.716   2.083  0.1179  0.1981  0.5955
   86MOL   C12232592   1.793   6.676   2.215 -0.1495  0.0223  0.3521
   86MOL   C12332593   1.882   6.573   2.246  0.5422  0.1009 -0.4103
   86MOL   C12432594   1.956   6.511   2.146 -0.6788 -0.6742  0.8516
   86MOL   C12532595   1.925   6.547   2.011  0.7339  0.0276 -0.5430
   86MOL   C12632596   1.834   6.651   1.980  0.6764 -0.1512 -0.4761
   86MOL   H12732597   1.665   6.993   2.469 -0.0718  0.0971 -0.4044
   86MOL   H12832598   1.767   6.972   2.244 -0.4196  0.8752  1.0177
   86MOL   H12932599   1.534   6.962   2.086  0.5661 -0.7974 -0.3963
   86MOL   H13032600   1.516   6.816   2.184 -1.4789  0.5519 -0.8953
   86MOL   H13132601   1.750   6.727   2.299 -2.2471 -2.5662  0.9198
   86MOL   H13232602   1.894   6.534   2.345 -2.1686  3.4542  1.3812
   86MOL   H13332603   2.038   6.445   2.169  0.6352  0.9257  0.8457
   86MOL   H13432604   1.968   6.501   1.923  1.4836  0.0481 -0.1956
   86MOL   C13532605   1.830   6.693   1.835  0.0334 -0.3269 -0.5269
   86MOL   C13632606   1.880   6.822   1.772 -0.1659 -0.3310  0.3643
   86MOL   O13732607   1.962   6.703   1.786 -0.1884 -0.2567 -0.1259
   86MOL   C13832608   1.904   6.938   1.865  0.0485 -0.2537 -0.0241
   86MOL   O13932609   1.952   7.055   1.807 -0.0200 -0.1703 -0.0520
   86MOL   C14032610   2.081   7.096   1.817 -0.3491 -0.7315 -0.3984
   86MOL   C14132611   2.188   7.007   1.851  0.2493 -0.3565 -0.1919
   86MOL   C14232612   2.319   7.048   1.865  0.0590 -0.5658  0.2734
   86MOL   C14332613   2.348   7.184   1.853  0.2135 -0.1133  0.1999
   86MOL   C14432614   2.244   7.275   1.821  0.0221 -0.8711 -0.2727
   86MOL   C14532615   2.112   7.230   1.801 -1.0606  0.1323 -0.8008
   86MOL   H14632616   1.749   6.646   1.780 -1.0676 -1.3858  1.9573
   86MOL   H14732617   1.849   6.841   1.669  1.6820  3.6524  0.4653
   86MOL   H14832618   1.979   6.907   1.937 -0.6767  0.1031  0.8955
   86MOL   H14932619   1.815   6.977   1.915 -0.3118  1.0873 -1.6720
   86MOL   H15032620   2.165   6.903   1.868 -0.0387 -0.3366 -0.4492
   86MOL   H15132621   2.383   6.965   1.891  1.2239  0.2056 -0.0968
   86MOL   H15232622   2.446   7.223   1.877 -0.9513  3.0803 -0.0620
   86MOL   H15332623   2.274   7.379   1.830 -0.6532 -0.6579 -0.4376
   86MOL   C15432624   1.997   7.320   1.766 -0.6916  0.1172 -0.3129
   86MOL   C15532625   1.892   7.359   1.868  0.3014  0.1013 -0.2622
   86MOL   O15632626   2.004   7.446   1.840  0.1709 -0.1657  0.0223
   86MOL   C15732627   1.894   7.323   2.016 -0.4599  0.6977  0.8226
   86MOL   O15832628   1.825   7.428   2.088 -0.3602  0.3937  0.9121
   86MOL   C15932629   1.697   7.462   2.044  0.5321 -0.6151 -1.1952
   86MOL   C16032630   1.595   7.364   2.031  0.6829 -0.5997 -0.6696
   86MOL   C16132631   1.467   7.402   1.986  0.0047  0.1365 -0.3070
   86MOL   C16232632   1.436   7.536   1.962 -0.3356  0.0177  1.0527
   86MOL   C16332633   1.541   7.633   1.978 -0.3037  0.0604  0.2466
   86MOL   C16432634   1.672   7.595   2.017  0.5677  0.0285 -0.2640
   86MOL   H16532635   1.993   7.346   1.661 -0.2002 -1.0542 -0.6257
   86MOL   H16632636   1.794   7.375   1.825 -0.9490 -0.4725  2.2846
   86MOL   H16732637   1.996   7.305   2.049 -0.8755 -0.8454  1.3289
   86MOL   H16832638   1.845   7.225   2.018  1.7358 -0.5583 -2.3586
   86MOL   H16932639   1.616   7.263   2.061  1.2729  0.3483  2.2854
   86MOL   H17032640   1.400   7.320   1.965  1.7580 -1.4423  0.1552
   86MOL   H17132641   1.339   7.571   1.930  0.6564  1.8349 -0.0466
   86MOL   H17232642   1.523   7.739   1.967 -0.8863  0.0617  1.1375
   86MOL   C17332643   1.779   7.697   2.041  0.8379  0.6595 -0.1043
   86MOL   C17432644   1.865   7.762   1.925  0.0411  0.2357 -0.1538
   86MOL   O17532645   1.764   7.830   2.004  0.0641 -0.4622  0.1799
   86MOL   C17632646   1.831   7.736   1.777 -0.0112  0.0452 -0.0070
   86MOL   O17732647   1.892   7.832   1.688  0.0431  0.3942  0.0230
   86MOL   C17832648   2.034   7.841   1.691  0.2043 -0.4741  0.9277
   86MOL   C17932649   2.109   7.728   1.705  0.6261  0.5348 -0.1297
   86MOL   C18032650   2.251   7.735   1.713 -0.1693  0.0216  0.3137
   86MOL   C18132651   2.306   7.866   1.705  0.1937  0.4500 -0.5416
   86MOL   C18232652   2.229   7.985   1.685 -0.4107  0.2974  0.1936
   86MOL   C18332653   2.092   7.970   1.684  0.1568 -0.3559 -0.4832
   86MOL   H18432654   1.814   7.688   2.144  3.2459  2.7923 -0.6820
   86MOL   H18532655   1.965   7.796   1.949  0.6227 -1.3890 -0.2284
   86MOL   H18632656   1.727   7.767   1.769 -0.5302 -1.5472  0.3892
   86MOL   H18732657   1.849   7.631   1.754  0.7034  0.3066 -0.6918
   86MOL   H18832658   2.058   7.633   1.701  0.7939  0.3967  0.9266
   86MOL   H18932659   2.310   7.645   1.722  0.1698  0.0681 -1.3167
   86MOL   H19032660   2.412   7.883   1.707 -0.3443  4.1576  0.6665
   86MOL   H19132661   2.291   8.072   1.680 -0.2743  0.1731 -0.2221
   86MOL   C19232662   2.008   8.097   1.668  0.2203 -0.3655  0.3581
   86MOL   C19332663   1.947   8.162   1.787 -0.1425 -0.8630 -0.5289
   86MOL   O19432664   2.073   0.042   1.729  0.4787  0.1938  0.4137
   86MOL   C19532665   1.961   8.104   1.928  0.1265 -0.4953 -0.2365
   86MOL   O19632666   1.923   0.031   2.028  0.3565 -0.0359 -0.2649
   86MOL   C19732667   1.901   8.155   2.155 -0.4278 -0.1018 -0.5228
   86MOL   C19832668   1.968   8.042   2.207 -0.3944  0.0583 -0.1053
   86MOL   C19932669   1.941   8.001   2.336 -0.3570 -0.2674  0.1156
   86MOL   C20032670   1.844   8.065   2.414  0.0340 -0.0864  0.4465
   86MOL   C20132671   1.780   0.006   2.371  0.4995  0.0400  0.9543
   86MOL   C20232672   1.816   0.059   2.242  0.6414 -0.6184 -0.1457
   86MOL   H20332673   1.975   8.116   1.566  0.2253 -0.0773  0.4100
   86MOL   H20432674   1.870   0.069   1.778 -1.0501 -1.7252 -0.2159
   86MOL   H20532675   2.060   8.063   1.947 -0.1195 -0.9371  0.1280
   86MOL   H20632676   1.885   8.025   1.935  0.0469 -0.5545 -1.7722
   86MOL   H20732677   2.041   7.986   2.151 -2.2420 -1.6418 -0.8776
   86MOL   H20832678   1.984   7.909   2.373  0.6071  0.2760  0.3453
   86MOL   H20932679   1.817   8.024   2.511 -0.0958  2.0583  1.3496
   86MOL   H21032680   1.712   0.056   2.438  0.1004 -1.4970  1.7250
   86MOL   C21132681   1.746   0.179   2.188  0.5664  0.0598  0.0099
   86MOL   C21232682   1.637   0.158   2.081 -0.4094  0.7723  0.3263
   86MOL   O21332683   1.607   0.171   2.218  0.0032 -0.4440 -0.2638
   86MOL   C21432684   1.606   0.025   2.011  0.0669 -0.4571  0.2897
   86MOL   O21532685   1.464   0.022   2.033 -0.2645  0.3964  0.1079
   86MOL   C21632686   1.403   8.079   1.984  0.1694  0.2757 -0.0975
   86MOL   C21732687   1.439   8.021   1.859 -0.0265 -0.5084 -0.3247
   86MOL   C21832688   1.368   7.908   1.808 -0.1791  0.6106 -0.2881
   86MOL   C21932689   1.273   7.849   1.892  0.2375 -0.2388 -0.0315
   86MOL   C22032690   1.233   7.906   2.015  0.1661  0.5180 -0.2887
   86MOL   C22132691   1.303   8.021   2.064  0.2473  0.3619 -0.3019
   86MOL   H22232692   1.788   0.270   2.230  1.9865 -0.7947  0.4792
   86MOL   H22332693   1.590   0.241   2.028  2.4166  2.8916  1.0323
   86MOL   H22432694   1.664   8.105   2.031  0.6798 -0.0840  0.2470
   86MOL   H22532695   1.618   0.048   1.905  1.4900  3.0298  1.1262
   86MOL   H22632696   1.519   8.061   1.798  1.9424 -2.0725  1.1753
   86MOL   H22732697   1.384   7.867   1.710 -1.4535 -0.3701 -0.0983
   86MOL   H22832698   1.211   7.766   1.861  0.7917 -1.5159  2.1258
   86MOL   H22932699   1.141   7.877   2.065  0.1971  1.1756  0.1587
   86MOL   C23032700   1.264   8.078   2.197 -0.2707  0.1164  0.3745
   86MOL   C23132701   1.182   0.034   2.208 -0.1232 -0.2437  1.0097
   86MOL   O23232702   1.120   8.068   2.220 -0.3720 -0.1179  0.2938
   86MOL   C23332703   1.139   0.121   2.080  0.3963 -0.7482 -0.0284
   86MOL   O23432704   1.036   0.207   2.125 -0.3290 -0.1454 -0.5790
   86MOL   C23532705   0.972   0.264   2.019 -0.8173 -0.2809 -0.4015
   86MOL   C23632706   1.042   0.316   1.906  0.2753 -0.5276  0.8525
   86MOL   C23732707   0.977   0.374   1.798 -0.2271 -0.2288 -0.2244
   86MOL   C23832708   0.838   0.371   1.795  0.0067 -0.6630  0.0901
   86MOL   C23932709   0.761   0.329   1.903  0.1012 -0.7566 -0.3550
   86MOL   C24032710   0.833   0.275   2.014 -0.3159 -0.2038  0.3789
   86MOL   H24132711   1.318   8.041   2.284  0.3020  0.8172  0.3252
   86MOL   H24232712   1.186   0.086   2.303 -2.4724  0.6408  0.6571
   86MOL   H24332713   1.109   0.063   1.993 -1.2514  2.5973 -1.8100
   86MOL   H24432714   1.230   0.172   2.049  0.6942 -0.3193  1.5280
   86MOL   H24532715   1.148   0.313   1.887  0.6563 -1.4637  2.9108
   86MOL   H24632716   1.042   0.412   1.720 -0.0240 -0.9162 -0.4013
   86MOL   H24732717   0.797   0.427   1.712 -1.3833 -0.5685  0.8480
   86MOL   H24832718   0.653   0.329   1.906  0.0785  2.1755 -0.2713
   86MOL   C24932719   0.745   0.216   2.120  0.4425 -0.4349  0.9661
   86MOL   C25032720   0.747   0.238   2.267  0.1768 -0.3481 -0.1696
   86MOL   O25132721   0.674   0.323   2.180  0.4366 -0.4930 -0.1067
   86MOL   C25232722   0.862   0.301   2.343 -0.0026  0.1022 -0.0860
   86MOL   O25332723   0.842   0.335   2.481 -0.9379  0.0747  0.4121
   86MOL   C25432724   0.843   0.244   2.578  0.3565  0.3770 -0.3222
   86MOL   C25532725   0.877   0.107   2.562  0.5749  0.2453 -0.2132
   86MOL   C25632726   0.865   0.014   2.668 -0.6839 -0.1278  0.6341
   86MOL   C25732727   0.847   0.065   2.796 -0.0036  0.1798 -0.4702
   86MOL   C25832728   0.840   0.208   2.818 -0.3175 -0.4348  1.0794
   86MOL   C25932729   0.818   0.293   2.704 -0.9833 -0.1507 -0.3653
   86MOL   H26032730   0.667   0.151   2.081 -2.5416  2.6822  1.4970
   86MOL   H26132731   0.682   0.178   2.330  2.8579 -2.5109  0.6190
   86MOL   H26232732   0.877   0.394   2.289  1.4777 -0.2013 -0.2243
   86MOL   H26332733   0.954   0.242   2.345  0.1741  0.3421 -0.9619
   86MOL   H26432734   0.898   0.069   2.463  1.5124  2.9427 -1.0792
   86MOL   H26532735   0.873   8.077   2.650 -2.7284 -0.6739  2.7309
   86MOL   H26632736   0.835   0.001   2.882 -1.0561 -1.1388 -1.5714
   86MOL   H26732737   0.845   0.247   2.918  0.2823  0.7530  0.5918
   86MOL   C26832738   0.790   0.435   2.729  0.4692  0.2314  0.8161
   86MOL   C26932739   0.668   0.519   2.676 -0.3715  0.4231 -0.2894
   86MOL   O27032740   0.674   0.470   2.814 -0.1442  0.3618  0.2902
   86MOL   C27132741   0.563   0.464   2.584 -0.0182  0.5370 -0.3450
   86MOL   O27232742   0.480   0.569   2.540  0.1117 -0.4751  0.0271
   86MOL   C27332743   0.513   0.632   2.421 -0.2479 -0.0634  0.0171
   86MOL   C27432744   0.645   0.631   2.373 -0.2630  0.2274 -0.5006
   86MOL   C27532745   0.676   0.690   2.252  0.8732 -0.4683  0.2600
   86MOL   C27632746   0.580   0.760   2.177 -0.3188 -0.6547 -0.7233
   86MOL   C27732747   0.441   0.762   2.227 -0.3302 -0.3479 -0.1871
   86MOL   C27832748   0.407   0.698   2.346  0.3819  0.0549  0.5803
   86MOL   H27932749   0.884   0.488   2.743 -0.7222  2.6213  0.1182
   86MOL   H28032750   0.690   0.625   2.664 -1.8979  0.8974  0.8613
   86MOL   H28132751   0.504   0.400   2.650 -0.3533  0.1539 -1.0067
   86MOL   H28232752   0.610   0.402   2.508  0.9534  0.0837  0.6101
   86MOL   H28332753   0.731   0.587   2.419 -0.1308  0.5815 -0.4074
   86MOL   H28432754   0.776   0.677   2.213  0.7366 -2.1071  0.3963
   86MOL   H28532755   0.597   0.808   2.082 -0.2307  0.8135  0.0213
   86MOL   H28632756   0.368   0.802   2.159 -0.1795  2.4980  1.2643
   86MOL   C28732757   0.263   0.691   2.394 -0.3444 -0.0555  0.0159
   86MOL   C28832758   0.206   0.790   2.492  0.0466 -0.6223  0.4114
   86MOL   O28932759   0.199   0.811   2.353  0.7384 -0.7993  0.1633
   86MOL   C29032760   0.297   0.890   2.557  0.2274  0.4891  0.3384
   86MOL   O29132761   0.250   1.021   2.554  0.1801 -0.2670 -0.1062
   86MOL   C29232762   0.136   1.058   2.632 -0.3534  0.1652  0.8847
   86MOL   C29332763   0.063   0.979   2.729 -0.7867 -0.2098 -0.1459
   86MOL   C29432764   8.122   1.036   2.799 -0.4588 -0.1538  0.1498
   86MOL   C29532765   8.093   1.173   2.771 -0.3788  0.8758  0.4039
   86MOL   C29632766   8.160   1.252   2.679 -0.3929  0.9355  0.0572
   86MOL   C29732767   0.097   1.194   2.606 -0.2055  0.1795 -0.0477
   86MOL   H29832768   0.219   0.600   2.356  0.2057 -0.1095 -0.4943
   86MOL   H29932769   0.110   0.762   2.534 -1.3858  0.7087 -1.8485
   86MOL   H30032770   0.395   0.886   2.511  0.8657  0.8914  1.6470
   86MOL   H30132771   0.329   0.853   2.654 -0.3215 -1.5355 -0.2175
   86MOL   H30232772   0.085   0.874   2.734 -1.1934 -0.2689  0.5820
   86MOL   H30332773   8.069   0.974   2.870  0.3126 -0.8597  0.1207
   86MOL   H30432774   8.010   1.219   2.822 -1.9898 -1.9494  0.4249
   86MOL   H30532775   8.129   1.353   2.656 -1.3156  0.3573 -1.3349
   86MOL   C30632776   0.176   1.263   2.502  0.0123 -0.0601 -0.6488
   86MOL   C30732777   0.156   1.254   2.352 -0.1377  0.4233 -0.2983
   86MOL   O30832778   0.118   1.370   2.430  0.1814 -0.3655  0.0954
   86MOL   C30932779   0.046   1.163   2.296 -0.1563 -0.1264 -0.2277
   86MOL   O31032780   0.019   1.205   2.160 -0.2499  0.2979 -0.1522
   86MOL   C31132781   0.103   1.158   2.058  0.2456  0.1106  0.3432
   86MOL   C31232782   0.203   1.055   2.079  0.1718  0.2351 -0.2267
   86MOL   C31332783   0.287   1.022   1.975  0.2062 -0.8317  0.0767
   86MOL   C31432784   0.270   1.080   1.850 -0.5032  0.0867  0.3465
   86MOL   C31532785   0.168   1.176   1.826 -0.7140 -0.3492 -0.0478
   86MOL   C31632786   0.083   1.211   1.931 -0.4903 -0.2592  0.7742
   86MOL   H31732787   0.280   1.269   2.535 -0.7213 -1.0117  2.0276
   86MOL   H31832788   0.243   1.275   2.291  0.4744  2.4331  1.2195
   86MOL   H31932789   8.120   1.190   2.341 -0.1085 -1.6217  0.7998
   86MOL   H32032790   0.065   1.056   2.308 -0.7260 -0.7411 -4.1359
   86MOL   H32132791   0.204   1.004   2.175 -0.4449  1.0533  0.2249
   86MOL   H32232792   0.355   0.939   1.992 -2.2520 -3.2740 -1.4478
   86MOL   H32332793   0.340   1.048   1.774  0.6808  0.4914  1.2437
   86MOL   H32432794   0.153   1.202   1.722  1.5001  0.8447 -0.1093
   86MOL   C32532795   8.133   1.299   1.900 -0.3281  0.1677 -0.0217
   86MOL   C32632796   8.120   1.434   1.962  0.4654  0.1549 -0.3628
   86MOL   O32732797   0.007   1.418   1.831  0.5445  0.4767  0.0657
   86MOL   C32832798   0.048   1.481   2.064 -0.1758 -0.6052  0.1679
   86MOL   O32932799   0.048   1.625   2.079  0.5027  0.4184  0.3550
   86MOL   C33032800   0.133   1.703   2.002 -0.7904  0.2902  0.8462
   86MOL   C33132801   0.218   1.654   1.904 -0.0944  0.5768  0.6140
   86MOL   C33232802   0.292   1.737   1.822 -0.0810 -0.2590  0.2598
   86MOL   C33332803   0.306   1.872   1.857 -0.2898 -0.3406 -0.1814
   86MOL   C33432804   0.238   1.922   1.965  0.7631 -0.1480  0.2131
   86MOL   C33532805   0.142   1.845   2.033 -0.2283 -0.4292  0.0967
   86MOL   H33632806   8.049   1.248   1.852 -2.4302  3.2114  0.2779
   86MOL   H33732807   8.018   1.472   1.966 -0.4130 -2.1557  0.1801
   86MOL   H33832808   0.147   1.437   2.062  0.9201  1.7275  0.7396
   86MOL   H33932809   0.007   1.446   2.159 -0.5115  0.2289  0.3386
   86MOL   H34032810   0.226   1.551   1.875 -2.5983 -0.4478  3.3314
   86MOL   H34132811   0.346   1.697   1.737  1.3859  0.9331  0.6107
   86MOL   H34232812   0.376   1.931   1.799  0.8604 -0.8219  0.6883
   86MOL   H34332813   0.259   2.024   1.995  3.0689 -0.0541 -1.5538
   86MOL   C34432814   0.071   1.902   2.143  0.2948  0.6795  0.0849
   86MOL   C34532815   0.106   1.868   2.286  0.1386  0.7801 -0.5046
   86MOL   O34632816   0.148   1.993   2.223 -0.0153  0.1935  0.0173
   86MOL   C34732817   0.207   1.759   2.324  0.2688 -0.5661  1.1287
   86MOL   O34832818   0.274   1.803   2.442 -0.3926  0.2349 -0.3109
   86MOL   C34932819   0.231   1.769   2.568  1.2958 -0.6810 -0.0713
   86MOL   C35032820   0.142   1.663   2.601  0.5709  0.3132  0.0907
   86MOL   C35132821   0.101   1.631   2.731 -0.2870  0.1364 -0.3945
   86MOL   C35232822   0.162   1.708   2.837  0.0091  0.5119 -0.7813
   86MOL   C35332823   0.259   1.807   2.809  0.7653 -0.3183  0.7689
   86MOL   C35432824   0.288   1.841   2.675  0.3417  0.1055  0.8724
   86MOL   H35532825   8.132   1.909   2.134  0.0991 -0.3398  1.5474
   86MOL   H35632826   0.035   1.892   2.365  1.5560  1.4379  0.5989
   86MOL   H35732827   0.276   1.755   2.240 -1.8036 -0.2262 -0.6504
   86MOL   H35832828   0.173   1.656   2.337  1.7352 -0.9727  1.8682
   86MOL   H35932829   0.098   1.593   2.530  0.2193  0.4227  0.2000
   86MOL   H36032830   0.021   1.560   2.743 -1.3267  1.4405  0.6398
   86MOL   H36132831   0.135   1.690   2.940  0.0662 -0.5637 -0.9560
   86MOL   H36232832   0.301   1.871   2.885 -0.6114 -0.4268  1.6403
   86MOL   C36332833   0.370   1.962   2.647 -0.5282  0.1227 -0.4602
   86MOL   C36432834   0.323   2.106   2.655  0.3183  0.3200 -0.1015
   86MOL   O36532835   0.389   2.046   2.763  0.1617 -0.0443  0.5320
   86MOL   C36632836   0.172   2.140   2.669  0.1526 -0.0209 -0.1354
   86MOL   O36732837   0.137   2.275   2.691 -0.1545  0.2334 -0.5235
   86MOL   C36832838   0.001   2.310   2.687 -0.7211 -0.4386 -0.5342
   86MOL   C36932839   8.059   2.223   2.665 -0.1354  0.2038  0.7198
   86MOL   C37032840   7.929   2.274   2.639  0.0144 -0.0245  0.8654
   86MOL   C37132841   7.910   2.413   2.638 -0.2374  0.1155  0.4292
   86MOL   C37232842   8.018   2.502   2.656  0.3622 -0.5896  0.1124
   86MOL   C37332843   8.148   2.452   2.681 -0.3085  1.4530 -0.4114
   86MOL   H37432844   0.462   1.933   2.596 -1.3735  0.2455 -2.1050
   86MOL   H37532845   0.384   2.176   2.598  1.1948 -0.3082  0.0533
   86MOL   H37632846   0.130   2.074   2.745  1.4864 -1.8713 -0.9691
   86MOL   H37732847   0.118   2.116   2.578  0.9014 -0.8787 -0.3703
   86MOL   H37832848   8.072   2.117   2.680 -1.5448 -0.0959 -0.0408
   86MOL   H37932849   7.851   2.204   2.616  1.5389 -1.5400  0.1729
   86MOL   H38032850   7.811   2.453   2.621 -0.4885 -1.1267 -1.1687
   86MOL   H38132851   8.016   2.608   2.640  0.9646 -0.8183 -1.5331
   86MOL   H38232852   0.061   2.520   2.695 -0.8067  1.7080  1.5420
   87MOL     C132853   0.701   7.347   5.707 -0.3987  0.4738 -0.6272
   87MOL     C232854   0.555   7.374   5.668 -0.2877 -0.6649  0.0932
   87MOL     O332855   0.586   7.271   5.756 -0.6229 -0.6256 -0.8313
   87MOL     C432856   0.512   7.326   5.532  0.2310 -0.5001 -0.2180
   87MOL     O532857   0.373   7.335   5.503 -0.5079 -0.4980  0.0612
   87MOL     C632858   0.314   7.459   5.501  0.9803 -0.2073 -0.2512
   87MOL     C732859   0.390   7.574   5.492  0.1059 -0.1738 -0.0383
   87MOL     C832860   0.323   7.700   5.499 -0.1104 -0.3128  0.1503
   87MOL     C932861   0.184   7.712   5.486 -1.0070 -0.3934  0.0288
   87MOL    C1032862   0.111   7.596   5.477 -0.2601 -0.1829  0.1204
   87MOL    C1132863   0.172   7.471   5.498 -0.4098  0.6070  0.1067
   87MOL    H1232864   0.748   7.425   5.768  0.2147 -1.5270  1.5601
   87MOL    H1332865   0.513   7.469   5.699 -0.0621 -0.3858 -0.4562
   87MOL    H1432866   0.549   7.224   5.525 -1.5804 -1.2051  0.4674
   87MOL    H1532867   0.572   7.384   5.461 -2.3544 -0.7681 -2.6942
   87MOL    H1632868   0.497   7.578   5.500  0.2392 -0.3992 -1.6210
   87MOL    H1732869   0.386   7.786   5.514 -1.2710  0.6805 -0.5582
   87MOL    H1832870   0.140   7.811   5.489  1.8650  0.9766 -0.8213
   87MOL    H1932871   0.004   7.602   5.486 -0.1708 -0.4903  1.4738
   87MOL    H2032872   0.757   7.299   5.627  1.3725  0.7906  0.3860
   87MOL    C2132873   0.092   7.343   5.485  0.0550  0.4382 -0.5501
   87MOL    C2232874   0.067   7.248   5.602  0.6305  0.8148 -0.6667
   87MOL    O2332875   8.140   7.345   5.552  0.1774 -0.1429  0.0048
   87MOL    C2432876   0.155   7.269   5.723 -0.0347 -0.9198 -0.5605
   87MOL    O2532877   0.081   7.219   5.836 -0.2247  0.0651 -1.2986
   87MOL    C2632878   0.145   7.196   5.957 -0.2507  0.0167  0.2883
   87MOL    C2732879   0.283   7.220   5.976  0.3041 -0.0061  0.2017
   87MOL    C2832880   0.344   7.187   6.101  0.2584  0.1612 -0.0052
   87MOL    C2932881   0.266   7.129   6.202  0.3552  0.2625 -0.2362
   87MOL    C3032882   0.125   7.107   6.186 -0.3310  0.3638  0.2729
   87MOL    C3132883   0.069   7.133   6.060 -0.6401 -0.0546  0.1294
   87MOL    H3232884   0.086   7.302   5.385 -0.9184  0.2521 -0.4194
   87MOL    H3332885   0.045   7.144   5.582  0.2082  0.3042  2.2723
   87MOL    H3432886   0.185   7.373   5.736 -2.4094 -0.4948  1.9083
   87MOL    H3532887   0.243   7.207   5.704  1.0675  1.1513 -2.6021
   87MOL    H3632888   0.343   7.271   5.902  0.8116 -1.1350 -0.1826
   87MOL    H3732889   0.449   7.207   6.120  0.2508  0.1486  0.0524
   87MOL    H3832890   0.325   7.103   6.288 -0.4602  2.7336  1.1387
   87MOL    H3932891   0.070   7.056   6.263 -0.3016 -2.4286 -1.4891
   87MOL    C4032892   8.092   7.097   6.032  0.9884  0.2117 -0.2714
   87MOL    C4132893   8.059   6.974   5.944 -0.3189  0.4548  0.1064
   87MOL    O4232894   8.064   6.968   6.090 -0.4414  0.0306  0.3660
   87MOL    C4332895   8.165   6.903   5.857  0.2274  0.0300  0.2511
   87MOL    O4432896   8.127   6.771   5.811  0.6779 -0.0670  0.1244
   87MOL    C4532897   8.099   6.675   5.912 -0.0514  0.4728  0.2194
   87MOL    C4632898   8.165   6.656   6.035  0.1994 -0.6673  0.6196
   87MOL    C4732899   8.107   6.568   6.129 -0.9999 -0.1160  0.0758
   87MOL    C4832900   8.001   6.483   6.104  0.4275 -0.4252 -0.5061
   87MOL    C4932901   7.948   6.488   5.975 -0.2426  0.5845 -0.0103
   87MOL    C5032902   7.988   6.588   5.882 -0.5598  0.0073  0.0502
   87MOL    H5132903   8.015   7.169   6.055 -0.0515 -1.3015  1.0488
   87MOL    H5232904   7.956   6.965   5.910 -1.1623  0.1558  2.6374
   87MOL    H5332905   0.088   6.893   5.913  0.8456  0.7656 -0.6176
   87MOL    H5432906   0.006   6.966   5.769 -1.8975  1.8916  1.2821
   87MOL    H5532907   0.087   6.707   6.055  0.1138  0.2458 -1.2310
   87MOL    H5632908   8.161   6.574   6.222  1.0750  0.4492 -1.1178
   87MOL    H5732909   7.960   6.418   6.180  0.8890 -0.6895 -0.4808
   87MOL    H5832910   7.868   6.418   5.958 -2.7980  3.1443  1.0935
   87MOL    C5932911   7.925   6.593   5.748 -0.4926  0.1470  0.0059
   87MOL    C6032912   7.965   6.499   5.639 -0.4355  0.7759  0.5113
   87MOL    O6132913   7.848   6.474   5.721 -0.2561 -0.5056  0.0443
   87MOL    C6232914   8.093   6.421   5.661 -0.1234  0.0903  0.5442
   87MOL    O6332915   8.073   6.303   5.594  0.0840  0.7022 -0.0836
   87MOL    C6432916   8.016   6.207   5.672 -0.4417  0.0216  0.5013
   87MOL    C6532917   8.057   6.179   5.804  0.0648 -0.4007  0.1865
   87MOL    C6632918   7.998   6.074   5.875 -0.0709  0.0140 -0.1848
   87MOL    C6732919   7.895   5.999   5.824 -0.3780 -0.2535 -1.1699
   87MOL    C6832920   7.857   6.026   5.692  0.3404 -0.3408 -0.0277
   87MOL    C6932921   7.908   6.133   5.616 -0.0916  0.0498  0.7682
   87MOL    H7032922   7.862   6.682   5.735 -1.0942 -0.2348  0.2753
   87MOL    H7132923   7.931   6.526   5.539  0.2577  0.6326  0.2367
   87MOL    H7232924   8.105   6.409   5.769 -0.0579 -0.9912  0.4250
   87MOL    H7332925   0.005   6.480   5.621 -0.7368 -0.8974 -2.2586
   87MOL    H7432926   8.146   6.228   5.840 -0.8516  1.6092 -0.1885
   87MOL    H7532927   8.043   6.051   5.970  0.2061 -1.4678 -0.6598
   87MOL    H7632928   7.854   5.915   5.878  2.2763  0.6680  2.4415
   87MOL    H7732929   7.782   5.963   5.647 -0.8716 -0.5603  2.2056
   87MOL    C7832930   7.859   6.171   5.479 -0.2560 -0.2681 -0.1888
   87MOL    C7932931   7.863   6.089   5.353 -0.4982 -0.1652  0.2732
   87MOL    O8032932   7.745   6.089   5.434 -0.5933  0.2766 -0.8644
   87MOL    C8132933   7.922   5.955   5.334 -0.0582 -0.2237 -0.1274
   87MOL    O8232934   7.901   5.910   5.197 -0.3683 -0.3281  0.1118
   87MOL    C8332935   7.871   5.778   5.174  0.6595  0.0206  0.2776
   87MOL    C8432936   7.789   5.699   5.258  0.1202 -0.6325  0.6796
   87MOL    C8532937   7.740   5.574   5.222 -0.1126 -0.0116  0.0813
   87MOL    C8632938   7.779   5.512   5.105 -0.4335  0.2926  0.5826
   87MOL    C8732939   7.858   5.587   5.014  0.0965  0.0056 -0.7852
   87MOL    C8832940   7.897   5.725   5.042 -0.4681  0.1380  0.1304
   87MOL    H8932941   7.848   6.280   5.476  1.6297 -0.0488 -0.1715
   87MOL    H9032942   7.843   6.137   5.257  0.3133  0.8815  0.6247
   87MOL    H9132943   7.887   5.881   5.405  0.3209 -0.5028 -0.2273
   87MOL    H9232944   8.030   5.964   5.344 -0.0266 -0.9321  0.2150
   87MOL    H9332945   7.749   5.744   5.348  1.4204  0.2631  0.8332
   87MOL    H9432946   7.666   5.526   5.284  2.7977 -2.5226  1.7949
   87MOL    H9532947   7.741   5.415   5.076  0.2480  0.3678 -0.5718
   87MOL    H9632948   7.871   5.543   4.916  1.0250 -0.1303 -0.5977
   87MOL    C9732949   7.963   5.810   4.936  0.0600  0.4464  0.1300
   87MOL    C9832950   8.105   5.834   4.941  0.0118 -1.1722  0.2933
   87MOL    O9932951   8.045   5.736   4.849 -0.2279 -0.2490  0.5011
   87MOL   C10032952   0.033   5.773   5.047 -0.0497 -0.2161 -0.0589
   87MOL   O10132953   0.162   5.761   4.990 -0.3726  1.1493  0.0662
   87MOL   C10232954   0.172   5.676   4.883 -0.4841 -0.0796 -0.1281
   87MOL   C10332955   0.097   5.554   4.874 -0.7175  0.2875 -0.0299
   87MOL   C10432956   0.130   5.454   4.781  0.2312  0.0673  0.3193
   87MOL   C10532957   0.227   5.484   4.683 -0.1023 -0.1969 -0.2325
   87MOL   C10632958   0.305   5.603   4.690  0.1114  0.5876  0.0885
   87MOL   C10732959   0.276   5.696   4.791 -0.4899  0.3037  0.2852
   87MOL   H10832960   7.894   5.883   4.894  0.9087  1.7903  0.9964
   87MOL   H10932961   8.142   5.921   4.888 -1.5481 -0.7099 -0.0619
   87MOL   H11032962   8.162   5.678   5.082  0.1490 -0.2469  0.0902
   87MOL   H11132963   0.043   5.831   5.138 -0.6043  0.9707 -0.7459
   87MOL   H11232964   0.022   5.540   4.950 -0.3471 -0.5448  0.1850
   87MOL   H11332965   0.074   5.361   4.786 -0.5420  0.6343  3.3315
   87MOL   H11432966   0.245   5.414   4.603  2.4749  0.3531 -0.1821
   87MOL   H11532967   0.375   5.619   4.609 -0.2208 -0.0005 -0.3162
   87MOL   C11632968   0.350   5.830   4.790  0.1561  0.6417  0.1130
   87MOL   C11732969   0.457   5.874   4.885  0.0885 -0.5171  0.3963
   87MOL   O11832970   0.486   5.815   4.754 -0.2444 -0.2366 -0.2246
   87MOL   C11932971   0.508   5.788   4.997 -0.1635  0.4582 -0.2490
   87MOL   O12032972   0.644   5.826   5.019  0.6278 -0.4622  0.4542
   87MOL   C12132973   0.672   5.952   5.075  0.0070 -0.5038 -0.2175
   87MOL   C12232974   0.572   6.028   5.138 -0.9455 -0.1107 -0.2293
   87MOL   C12332975   0.598   6.147   5.207  0.2920 -0.3256  0.8269
   87MOL   C12432976   0.736   6.185   5.215 -0.2403  0.1063 -0.2887
   87MOL   C12532977   0.832   6.121   5.137  0.6221  0.2193  0.4379
   87MOL   C12632978   0.802   6.004   5.069 -0.2598  0.1949 -0.4055
   87MOL   H12732979   0.290   5.901   4.733 -0.8636 -0.5850 -0.3765
   87MOL   H12832980   0.477   5.981   4.883 -0.5146 -0.3847  1.1920
   87MOL   H12932981   0.505   5.687   4.956  2.3422 -0.9762  2.9477
   87MOL   H13032982   0.438   5.795   5.080  0.5057 -0.6125  0.4272
   87MOL   H13132983   0.469   5.998   5.122 -1.1759  1.3835 -1.7597
   87MOL   H13232984   0.528   6.209   5.261 -1.1540  0.8671 -2.3012
   87MOL   H13332985   0.766   6.263   5.283 -0.6544 -0.7995  0.9325
   87MOL   H13432986   0.933   6.158   5.140  0.9257 -0.7099  3.5228
   87MOL   C13532987   0.913   5.937   4.998  0.1906 -0.3924 -0.4481
   87MOL   C13632988   0.917   5.912   4.851 -0.2858 -0.3153 -0.1368
   87MOL   O13732989   0.975   6.030   4.909 -0.1220 -0.0425 -0.0285
   87MOL   C13832990   0.798   5.945   4.757  0.2823  0.2644 -0.1842
   87MOL   O13932991   0.845   5.984   4.631  0.1980  0.4326  0.1878
   87MOL   C14032992   0.906   5.895   4.545 -0.0617 -0.7887 -0.7102
   87MOL   C14132993   0.916   5.755   4.564 -0.1094  0.1678  0.6825
   87MOL   C14232994   0.976   5.666   4.469  0.7366 -0.6520  0.1382
   87MOL   C14332995   1.040   5.720   4.359  0.3198  0.2384 -0.1396
   87MOL   C14432996   1.039   5.858   4.342 -0.3794  0.1150  0.4511
   87MOL   C14532997   0.960   5.943   4.419 -0.0880 -0.1288  0.6551
   87MOL   H14632998   0.988   5.893   5.064 -0.7623  0.0331  0.9391
   87MOL   H14732999   0.986   5.831   4.828  0.8501  0.1068  1.6978
   87MOL   H14833000   0.734   6.030   4.782  0.3815  0.0938  0.6566
   87MOL   H14933001   0.726   5.863   4.749 -0.0845  0.2602  2.6884
   87MOL   H15033002   0.880   5.703   4.652 -1.3995 -0.2105 -0.0594
   87MOL   H15133003   0.990   5.561   4.489  0.1121 -0.3299  2.3980
   87MOL   H15233004   1.117   5.673   4.300 -0.5726 -0.9431 -0.3807
   87MOL   H15333005   1.083   5.898   4.252 -2.7550 -0.3194 -0.9550
   87MOL   C15433006   0.950   6.091   4.398  0.0342  0.4335  0.7236
   87MOL   C15533007   1.014   6.194   4.488 -0.7018  0.4976  0.0708
   87MOL   O15633008   1.077   6.150   4.364 -0.3161 -0.2698 -0.0469
   87MOL   C15733009   1.106   6.192   4.610 -0.1828 -0.5161 -0.1417
   87MOL   O15833010   1.155   6.064   4.651 -0.1013  0.0611 -0.5239
   87MOL   C15933011   1.268   6.054   4.744 -0.2034  0.0432  0.3601
   87MOL   C16033012   1.323   6.171   4.809 -0.7825 -0.3875 -0.2012
   87MOL   C16133013   1.429   6.168   4.899  0.4609  0.4364 -0.4942
   87MOL   C16233014   1.485   6.043   4.924 -0.4779  0.0171 -0.3411
   87MOL   C16333015   1.441   5.925   4.859  0.3932  0.1253  0.9271
   87MOL   C16433016   1.336   5.933   4.760  0.5706  0.1362  1.0108
   87MOL   H16533017   0.875   6.117   4.324  1.7987  1.4337 -0.7547
   87MOL   H16633018   0.979   6.297   4.480  0.0413  0.7241 -0.3695
   87MOL   H16733019   1.039   6.212   4.694  1.7929  0.0536  1.3583
   87MOL   H16833020   1.190   6.258   4.589 -2.2822  1.2057 -3.5662
   87MOL   H16933021   1.267   6.263   4.798 -1.4785 -0.7059  0.6171
   87MOL   H17033022   1.452   6.258   4.954 -0.4794 -0.5315  1.5488
   87MOL   H17133023   1.566   6.035   4.994  0.0152  1.3363 -0.7345
   87MOL   H17233024   1.501   5.836   4.874  2.0336  1.3994  2.0606
   87MOL   C17333025   1.288   5.811   4.688 -0.4726  0.5157  0.9733
   87MOL   C17433026   1.317   5.786   4.543 -0.0481  0.3454 -0.0177
   87MOL   O17533027   1.408   5.745   4.637 -0.1387 -0.4667  0.0806
   87MOL   C17633028   1.349   5.906   4.451 -0.2586  0.8097 -0.3466
   87MOL   O17733029   1.402   5.880   4.320 -0.1977 -0.0685 -0.2120
   87MOL   C17833030   1.480   5.981   4.270 -0.9578 -0.2512 -0.4017
   87MOL   C17933031   1.443   6.115   4.292  0.1878 -0.2786  0.8569
   87MOL   C18033032   1.508   6.213   4.219 -0.9324  1.0111 -1.2415
   87MOL   C18133033   1.619   6.182   4.141  0.3768  0.4943  0.1713
   87MOL   C18233034   1.664   6.047   4.131  0.4187  0.3276  0.3796
   87MOL   C18333035   1.585   5.943   4.184 -0.4247 -0.7275 -0.8075
   87MOL   H18433036   1.228   5.744   4.748  0.9225 -1.4707  0.1959
   87MOL   H18533037   1.279   5.696   4.495 -2.2141  1.7425 -0.9633
   87MOL   H18633038   1.426   5.963   4.504  2.2742 -2.9492  0.1805
   87MOL   H18733039   1.257   5.964   4.453 -0.5801  0.2871  3.0607
   87MOL   H18833040   1.372   6.146   4.367 -0.8412 -1.4473  0.3860
   87MOL   H18933041   1.490   6.318   4.235  1.5711  1.3177 -0.2836
   87MOL   H19033042   1.678   6.258   4.092 -0.6987  0.9942 -0.3637
   87MOL   H19133043   1.751   6.028   4.070  0.7530 -0.6981  1.1624
   87MOL   C19233044   1.623   5.802   4.147  0.2583 -0.1534  0.9564
   87MOL   C19333045   1.527   5.699   4.090  0.2507  0.3194 -0.5800
   87MOL   O19433046   1.614   5.776   4.004  0.0972 -0.1650  0.3554
   87MOL   C19533047   1.369   5.732   4.071  0.4304  0.0022  0.9390
   87MOL   O19633048   1.325   5.636   3.968 -0.3740  0.1392  0.4186
   87MOL   C19733049   1.311   5.681   3.837 -0.0928  0.0896 -0.7914
   87MOL   C19833050   1.381   5.791   3.780 -0.1038  0.5122  0.4397
   87MOL   C19933051   1.367   5.832   3.644 -0.0507  0.1365  1.4044
   87MOL   C20033052   1.277   5.751   3.569 -0.4068 -0.2784 -0.4400
   87MOL   C20133053   1.203   5.643   3.623 -0.1756 -0.4583 -0.0308
   87MOL   C20233054   1.222   5.603   3.756 -0.0109 -0.3501  0.3147
   87MOL   H20333055   1.714   5.758   4.188  1.2719  0.5347 -0.5337
   87MOL   H20433056   1.559   5.595   4.093  0.0329  0.2088 -1.6659
   87MOL   H20533057   1.335   5.834   4.055 -0.8063 -0.6689 -0.8422
   87MOL   H20633058   1.325   5.696   4.164  1.4748 -2.1087  0.6391
   87MOL   H20733059   1.449   5.857   3.832 -0.6377  1.4543 -0.0570
   87MOL   H20833060   1.419   5.916   3.602  1.4179  0.0015  2.9199
   87MOL   H20933061   1.275   5.787   3.467 -0.8203  0.1882 -0.2698
   87MOL   H21033062   1.131   5.585   3.568 -0.1248 -2.2213  1.7205
   87MOL   C21133063   1.156   5.483   3.823 -0.7426  0.0964  0.9548
   87MOL   C21233064   1.029   5.491   3.907  0.0184  0.0518  0.3660
   87MOL   O21333065   1.024   5.471   3.763  0.8466 -0.3319 -0.7956
   87MOL   C21433066   0.949   5.616   3.942 -0.3066  0.4364  0.3415
   87MOL   O21533067   0.982   5.735   3.879 -0.5884  0.1470 -0.1969
   87MOL   C21633068   0.908   5.842   3.905 -0.1295  0.3863 -0.6597
   87MOL   C21733069   0.851   5.866   4.036 -0.3981  0.1169 -0.1598
   87MOL   C21833070   0.790   5.985   4.058  0.1604 -0.7369  0.0026
   87MOL   C21933071   0.787   6.084   3.959 -0.3843 -0.0036  0.2908
   87MOL   C22033072   0.853   6.066   3.840 -0.0505  0.3058  0.3372
   87MOL   C22133073   0.913   5.945   3.809 -0.1933 -0.9765  0.1665
   87MOL   H22233074   1.217   5.394   3.809 -0.9071  0.1633 -0.2313
   87MOL   H22333075   1.005   5.405   3.969  1.4349  0.0443  0.9200
   87MOL   H22433076   0.957   5.627   4.050 -1.6202  0.8404  0.4094
   87MOL   H22533077   0.843   5.598   3.923  0.1398 -0.6535 -1.1718
   87MOL   H22633078   0.852   5.793   4.115  1.4913 -0.7408 -0.9541
   87MOL   H22733079   0.742   5.997   4.154  0.1307  1.2029 -0.2301
   87MOL   H22833080   0.731   6.175   3.973 -0.4808 -0.0808  0.4098
   87MOL   H22933081   0.859   6.137   3.759 -1.2052  1.1434  0.9781
   87MOL   C23033082   0.980   5.926   3.675  0.2082  0.5205  0.3198
   87MOL   C23133083   0.918   5.848   3.558 -0.2692 -0.1802 -0.2634
   87MOL   O23233084   0.902   5.989   3.572  0.3679 -0.1350  0.4711
   87MOL   C23333085   0.801   5.756   3.589 -0.6193  0.9098  0.3781
   87MOL   O23433086   0.739   5.698   3.470 -0.3477 -0.9222 -0.3739
   87MOL   C23533087   0.670   5.583   3.491 -0.9162 -0.1572  0.6382
   87MOL   C23633088   0.732   5.477   3.565  0.0125  0.7237 -0.1053
   87MOL   C23733089   0.668   5.357   3.584 -0.0336  0.3860 -0.3325
   87MOL   C23833090   0.537   5.339   3.526 -0.2655  1.1670  0.5446
   87MOL   C23933091   0.475   5.447   3.459  0.7401  0.6323  0.5613
   87MOL   C24033092   0.540   5.569   3.438 -0.0053  0.1423  0.2521
   87MOL   H24133093   1.088   5.942   3.678  0.5423 -1.2431 -1.4906
   87MOL   H24233094   0.994   5.812   3.490  0.2471 -0.8711  0.6689
   87MOL   H24333095   0.730   5.806   3.655  0.5732  0.6091  1.9034
   87MOL   H24433096   0.836   5.688   3.666  0.4785  1.7062  0.5956
   87MOL   H24533097   0.836   5.487   3.594 -0.1498 -0.3322  0.8545
   87MOL   H24633098   0.724   5.278   3.631 -2.3159 -0.1012  1.6498
   87MOL   H24733099   0.484   5.244   3.531  1.7719  0.0504  1.6977
   87MOL   H24833100   0.373   5.432   3.427  0.4055  0.9721  1.4392
   87MOL   C24933101   0.476   5.676   3.355 -0.3527 -0.9230  0.6384
   87MOL   C25033102   0.469   5.673   3.202  0.5800  0.2327  0.4555
   87MOL   O25133103   0.363   5.629   3.296 -0.4711 -0.1013 -0.1041
   87MOL   C25233104   0.529   5.573   3.117 -0.1050 -0.1194  0.0985
   87MOL   O25333105   0.432   5.536   3.014 -0.0654 -0.7332  0.2280
   87MOL   C25433106   0.481   5.454   2.919 -0.4417  0.3043  0.3213
   87MOL   C25533107   0.613   5.411   2.908 -0.2619 -0.2392 -0.1607
   87MOL   C25633108   0.652   5.324   2.806  0.3285  0.1236  0.3789
   87MOL   C25733109   0.562   5.280   2.707 -0.5752 -1.1079 -0.2126
   87MOL   C25833110   0.426   5.330   2.713  0.3558 -0.0657  0.1691
   87MOL   C25933111   0.389   5.418   2.817  0.4095  1.0380 -0.6261
   87MOL   H26033112   0.465   5.769   3.410 -1.3598 -0.6026 -0.0903
   87MOL   H26133113   0.434   5.761   3.150  2.2820  0.5663 -0.1551
   87MOL   H26233114   0.547   5.486   3.180  3.2534  0.2515 -0.2169
   87MOL   H26333115   0.625   5.608   3.079 -0.3154  0.7328  0.3359
   87MOL   H26433116   0.680   5.435   2.990 -0.1763 -2.9743  0.6119
   87MOL   H26533117   0.756   5.294   2.799 -0.4623 -2.4964 -0.6883
   87MOL   H26633118   0.599   5.215   2.629  1.6231 -0.3763  0.2054
   87MOL   H26733119   0.356   5.299   2.637 -0.0414  1.0294  0.0716
   87MOL   C26833120   0.249   5.474   2.813 -0.7839  0.2743  0.8347
   87MOL   C26933121   0.226   5.608   2.748 -1.1770  0.1041 -1.4184
   87MOL   O27033122   0.211   5.488   2.674  0.2034  0.4043  0.3589
   87MOL   C27133123   0.340   5.698   2.698  0.1349 -0.0686 -0.3606
   87MOL   O27233124   0.294   5.783   2.598  0.2949 -0.5739 -0.3466
   87MOL   C27333125   0.228   5.900   2.619 -0.4701  0.2491  0.7209
   87MOL   C27433126   0.181   5.936   2.745  0.6371  0.3300  0.6621
   87MOL   C27533127   0.117   6.062   2.768 -0.3767 -0.1977  0.4512
   87MOL   C27633128   0.095   6.149   2.655 -0.5266  0.2467 -0.9092
   87MOL   C27733129   0.137   6.115   2.523 -0.3039 -0.3642 -0.8744
   87MOL   C27833130   0.214   6.000   2.513  0.3401  0.0917  0.2167
   87MOL   H27933131   0.175   5.430   2.880 -2.0418  1.5523  0.3065
   87MOL   H28033132   0.133   5.658   2.778 -0.9526 -1.0720  1.4027
   87MOL   H28133133   0.426   5.646   2.655  0.2227 -1.2554  1.2075
   87MOL   H28233134   0.388   5.747   2.782  0.1016 -1.6656  0.6012
   87MOL   H28333135   0.193   5.867   2.827 -0.8751  0.1222  0.7323
   87MOL   H28433136   0.083   6.108   2.859 -0.9575 -0.1979  0.2323
   87MOL   H28533137   0.054   6.246   2.677 -0.2560  0.4479 -1.2739
   87MOL   H28633138   0.110   6.168   2.433 -3.2616  1.1060  0.7927
   87MOL   C28733139   0.262   5.971   2.374  0.1237  0.2134  0.0565
   87MOL   C28833140   0.203   5.866   2.289 -1.0205  0.3243 -0.5238
   87MOL   O28933141   0.159   5.998   2.277 -0.0862  0.6898  0.3081
   87MOL   C29033142   0.098   5.773   2.339 -0.6250  0.5069  0.2799
   87MOL   O29133143   8.154   5.737   2.257 -0.0933 -0.1940  0.2103
   87MOL   C29233144   8.159   5.637   2.161  0.1503 -0.1186 -0.2030
   87MOL   C29333145   0.082   5.533   2.160  0.4791  0.1456 -0.4627
   87MOL   C29433146   0.079   5.434   2.057  0.5322  0.7105 -0.6941
   87MOL   C29533147   8.157   5.442   1.952  0.5601  0.2197  0.1748
   87MOL   C29633148   8.057   5.539   1.960  0.3799  0.0840  0.6150
   87MOL   C29733149   8.061   5.646   2.052  0.0159 -0.0337 -0.0696
   87MOL   H29833150   0.364   6.001   2.352  0.6324 -0.9682  0.7643
   87MOL   H29933151   0.258   5.822   2.206  0.8789  3.0315 -0.7588
   87MOL   H30033152   0.060   5.835   2.421  1.4339  0.0688  1.5954
   87MOL   H30133153   0.144   5.684   2.382 -0.5338  0.7917  0.7784
   87MOL   H30233154   0.156   5.515   2.236  2.7261 -0.1609 -2.6312
   87MOL   H30333155   0.154   5.358   2.052  1.8437  1.9931 -0.8138
   87MOL   H30433156   8.163   5.374   1.869  1.2128  1.8285 -1.1192
   87MOL   H30533157   7.979   5.552   1.887  1.0629 -2.8847 -0.7386
   87MOL   C30633158   7.957   5.753   2.057 -0.0855 -0.3016  0.3050
   87MOL   C30733159   7.981   5.902   2.023 -0.2944 -0.4130 -0.2338
   87MOL   O30833160   7.926   5.806   1.926 -0.0910  0.3017  0.2532
   87MOL   C30933161   8.118   5.963   1.982 -0.5417 -0.0431 -0.2633
   87MOL   O31033162   8.115   6.106   1.945 -0.2726 -0.3713 -0.7406
   87MOL   C31133163   8.094   6.200   2.042  0.2872 -0.8599 -0.2635
   87MOL   C31233164   8.055   6.174   2.175 -0.4180  0.1554 -0.6051
   87MOL   C31333165   8.019   6.275   2.263 -0.9968  0.2427  0.6633
   87MOL   C31433166   8.040   6.414   2.224 -0.7111 -0.5627 -0.0160
   87MOL   C31533167   8.092   6.442   2.099 -0.1416 -0.9714 -0.5312
   87MOL   C31633168   8.124   6.336   2.008  0.2524  0.2325 -0.3774
   87MOL   H31733169   7.875   5.725   2.123  1.8312 -1.1363  2.3844
   87MOL   H31833170   7.906   5.967   2.067 -0.9920 -1.5927  0.3420
   87MOL   H31933171   8.150   5.923   1.886 -0.6869  2.0163 -1.2028
   87MOL   H32033172   0.032   5.947   2.048  0.4254 -1.8887 -1.8857
   87MOL   H32133173   8.038   6.077   2.220  0.5980 -0.2460 -1.0590
   87MOL   H32233174   7.977   6.257   2.361  1.4331 -0.2690  1.6471
   87MOL   H32333175   8.021   6.503   2.283  1.4553  0.6093 -1.0359
   87MOL   H32433176   8.104   6.538   2.050 -0.1999 -1.3436 -1.2820
   87MOL   C32533177   0.003   6.361   1.870 -0.4316  0.5407  0.2163
   87MOL   C32633178   8.086   6.393   1.752  0.3487  0.0688 -0.3617
   87MOL   O32733179   8.165   6.500   1.820 -0.7613  0.0770  0.2733
   87MOL   C32833180   7.936   6.421   1.757  0.3301  0.2761 -0.4889
   87MOL   O32933181   7.887   6.465   1.633 -0.1072  0.6245  0.3349
   87MOL   C33033182   7.753   6.492   1.607 -0.3899  0.1743 -0.5718
   87MOL   C33133183   7.660   6.507   1.715  0.2646  0.7173  0.3064
   87MOL   C33233184   7.523   6.494   1.687 -0.3502 -0.3774 -0.0285
   87MOL   C33333185   7.477   6.498   1.554  0.3703 -0.0045 -0.4038
   87MOL   C33433186   7.574   6.483   1.445 -0.5870 -0.0436 -0.2186
   87MOL   C33533187   7.713   6.479   1.472  0.1517  0.6812 -1.0478
   87MOL   H33633188   0.090   6.299   1.850  0.4213  1.1826  1.8609
   87MOL   H33733189   8.132   6.356   1.660  0.5188  2.2321 -1.1810
   87MOL   H33833190   7.917   6.493   1.837  0.0875  1.3451 -1.4965
   87MOL   H33933191   7.892   6.324   1.781  1.3968  0.2921  1.6172
   87MOL   H34033192   7.699   6.505   1.816 -0.8536  0.6191  0.7448
   87MOL   H34133193   7.460   6.506   1.773  0.6666  0.5852  0.6021
   87MOL   H34233194   7.371   6.499   1.539  0.1925 -0.7663  0.7236
   87MOL   H34333195   7.544   6.472   1.342 -0.6482 -0.1698 -0.1882
   87MOL   C34433196   7.815   6.469   1.352 -0.2778 -0.6318  0.4025
   87MOL   C34533197   7.916   6.360   1.325  0.0571 -0.3631  0.7612
   87MOL   O34633198   7.791   6.364   1.258  0.8502 -0.1541 -0.0237
   87MOL   C34733199   7.939   6.248   1.420  0.5510  0.3431 -0.3930
   87MOL   O34833200   8.002   6.134   1.357 -0.2437  0.2569  0.5051
   87MOL   C34933201   8.065   6.044   1.438  0.6178  0.0537 -0.5433
   87MOL   C35033202   0.023   5.995   1.403  0.4041 -0.3342 -0.2769
   87MOL   C35133203   0.086   5.901   1.477 -0.1034 -0.5004 -0.7953
   87MOL   C35233204   0.023   5.841   1.587  0.5337  0.3528  0.0604
   87MOL   C35333205   8.062   5.877   1.621 -0.8113  0.7537  0.1688
   87MOL   C35433206   8.000   5.981   1.550 -0.2749  0.2720 -0.8090
   87MOL   H35533207   7.821   6.560   1.293  0.3388  0.0211  1.4866
   87MOL   H35633208   7.993   6.382   1.252  0.0036  1.6471  1.2880
   87MOL   H35733209   7.839   6.222   1.453  0.3589  0.0825 -1.1685
   87MOL   H35833210   7.997   6.283   1.505 -1.0079 -1.3357  1.4232
   87MOL   H35933211   0.073   6.038   1.318 -0.2668  0.5700 -0.2198
   87MOL   H36033212   0.179   5.863   1.439  0.6016 -0.2438  0.6253
   87MOL   H36133213   0.080   5.771   1.646  0.4542  0.2809  0.0512
   87MOL   H36233214   8.015   5.819   1.700 -0.3327 -1.3831 -1.0784
   87MOL   C36333215   7.867   6.021   1.604  0.2516  0.3449  0.5218
   87MOL   C36433216   7.734   5.945   1.570  0.3439 -1.0329 -0.0111
   87MOL   O36533217   7.810   5.912   1.687 -0.3113  0.6047  0.3776
   87MOL   C36633218   7.710   5.825   1.474  0.8010  0.3388  0.1890
   87MOL   O36733219   7.582   5.769   1.507  0.2845 -0.0361 -0.1502
   87MOL   C36833220   7.560   5.716   1.631  0.2738  0.2023  0.2487
   87MOL   C36933221   7.427   5.701   1.670 -0.3564 -0.9155  0.6374
   87MOL   C37033222   7.397   5.636   1.791  0.2862  0.1475  0.4142
   87MOL   C37133223   7.501   5.595   1.873 -0.7516  0.2380  0.1445
   87MOL   C37233224   7.638   5.607   1.839  0.5917 -0.3375 -0.0995
   87MOL   C37333225   7.665   5.666   1.719 -0.5854  0.0875 -0.0177
   87MOL   H37433226   7.867   6.119   1.651  1.1366  0.2460  0.7401
   87MOL   H37533227   7.644   6.001   1.594 -0.0195 -0.8475 -1.7525
   87MOL   H37633228   7.791   5.752   1.474  2.7149  2.4116  1.7098
   87MOL   H37733229   7.698   5.864   1.373  1.8098  3.4241  1.2202
   87MOL   H37833230   7.348   5.738   1.606 -1.1340 -4.9783 -0.8675
   87MOL   H37933231   7.295   5.621   1.824 -0.3194  3.1146  0.0810
   87MOL   H38033232   7.477   5.549   1.968  0.8417  0.6149  0.7514
   87MOL   H38133233   7.717   5.557   1.894 -0.4023 -2.8003 -0.8331
   87MOL   H38233234   7.771   5.673   1.699 -1.0978 -0.4882 -3.4021
   88MOL     C133235   6.979   3.226   8.120 -0.4240  0.3683 -0.7980
   88MOL     C233236   7.022   3.193   7.981  0.9228  0.1312  0.0015
   88MOL     O333237   7.019   3.095   8.080 -0.3398  0.1286 -0.0511
   88MOL     C433238   7.160   3.233   7.931  0.0271 -0.1884  0.3459
   88MOL     O533239   7.182   3.165   7.809  0.4858 -0.0414 -0.0295
   88MOL     C633240   7.299   3.199   7.742  0.3825  0.1908  1.0534
   88MOL     C733241   7.407   3.269   7.804  0.1292 -0.3422 -0.1755
   88MOL     C833242   7.534   3.279   7.738  0.1671 -0.2570 -0.6054
   88MOL     C933243   7.549   3.246   7.603 -0.4665 -0.1262  0.5555
   88MOL    C1033244   7.439   3.188   7.539  0.1179 -0.1093  0.5555
   88MOL    C1133245   7.319   3.161   7.601 -0.5483 -0.6366  0.7325
   88MOL    H1233246   6.874   3.250   8.132 -0.2920  0.5747 -0.0170
   88MOL    H1333247   6.949   3.190   7.900  2.5274  1.5185 -1.5277
   88MOL    H1433248   7.232   3.207   8.009  0.0442  0.3166  0.4971
   88MOL    H1533249   7.169   3.341   7.918  1.8060  0.1631  3.9315
   88MOL    H1633250   7.413   3.295   7.909 -0.2391  1.8059 -0.6704
   88MOL    H1733251   7.606   3.333   7.798 -0.1902 -1.2620  0.7662
   88MOL    H1833252   7.644   3.266   7.554 -0.0576 -3.1846  0.0214
   88MOL    H1933253   7.450   3.157   7.436 -0.4458  1.4373  0.0185
   88MOL    H2033254   7.047   3.276   0.019 -0.1878 -0.2602 -0.5703
   88MOL    C2133255   7.216   3.087   7.528  0.0764 -0.0283 -0.0693
   88MOL    C2233256   7.096   3.154   7.463  0.1278  0.0644 -0.5225
   88MOL    O2333257   7.217   3.120   7.390 -0.2920 -0.2933  0.1891
   88MOL    C2433258   7.071   3.300   7.503 -0.7372  0.3349  0.0739
   88MOL    O2533259   7.062   3.388   7.396 -0.3492 -0.1757  0.6388
   88MOL    C2633260   6.961   3.381   7.302 -0.4754  0.2883 -0.0458
   88MOL    C2733261   6.851   3.289   7.315  0.0430 -0.2462 -0.0788
   88MOL    C2833262   6.753   3.284   7.213  0.0821 -0.2122  0.0022
   88MOL    C2933263   6.758   3.377   7.108 -0.0917  0.1414 -0.0525
   88MOL    C3033264   6.869   3.462   7.094 -0.5616  0.4036 -0.1266
   88MOL    C3133265   6.968   3.470   7.191 -0.3500  0.0791  0.0882
   88MOL    H3233266   7.200   2.981   7.545 -2.0075  0.4937  1.3199
   88MOL    H3333267   7.010   3.101   7.424 -0.9066 -1.3110  3.3337
   88MOL    H3433268   7.152   3.333   7.568 -0.3609 -2.9432  1.3341
   88MOL    H3533269   6.982   3.316   7.563  0.4880  4.8353  0.8723
   88MOL    H3633270   6.844   3.221   7.398  2.1666  2.1404  2.1392
   88MOL    H3733271   6.672   3.214   7.226 -0.3683 -0.1492 -2.1968
   88MOL    H3833272   6.682   3.388   7.032  0.9761 -0.9214 -1.2937
   88MOL    H3933273   6.868   3.529   7.009 -0.0017  1.5074  0.7273
   88MOL    C4033274   7.087   3.563   7.177 -0.0728  1.1861 -0.0310
   88MOL    C4133275   7.228   3.528   7.131 -0.5927  0.3811 -0.5032
   88MOL    O4233276   7.133   3.574   7.032  0.4144 -0.0512  0.2074
   88MOL    C4333277   7.266   3.380   7.127 -0.0979  0.0825  0.0201
   88MOL    O4433278   7.344   3.342   7.011 -0.0730  0.4044 -0.3714
   88MOL    C4533279   7.481   3.365   7.002  0.9698 -0.1112 -0.5559
   88MOL    C4633280   7.553   3.404   7.116 -0.4536  1.0616  0.0595
   88MOL    C4733281   7.694   3.408   7.109  0.3210 -0.0153 -0.5111
   88MOL    C4833282   7.761   3.386   6.988  0.3943 -0.3681  0.1931
   88MOL    C4933283   7.688   3.362   6.871 -0.4476  0.0454 -0.8205
   88MOL    C5033284   7.545   3.346   6.874  0.8708  0.6325 -0.5857
   88MOL    H5133285   7.081   3.655   7.235  0.5958  1.0463  0.2655
   88MOL    H5233286   7.307   3.601   7.152 -0.1586 -0.9377  2.7554
   88MOL    H5333287   7.173   3.324   7.113 -2.0196  3.3670 -0.8339
   88MOL    H5433288   7.308   3.348   7.222 -0.7300 -1.4894 -0.2062
   88MOL    H5533289   7.507   3.420   7.212 -2.0282 -0.2819 -0.4363
   88MOL    H5633290   7.748   3.422   7.202 -0.4494 -1.7029  0.2119
   88MOL    H5733291   7.868   3.388   7.002  0.6213  2.3684 -1.5569
   88MOL    H5833292   7.749   3.338   6.785  0.0263 -0.7054 -0.2802
   88MOL    C5933293   7.482   3.304   6.749  0.8319 -0.0602  0.0460
   88MOL    C6033294   7.375   3.373   6.674 -0.2611  0.2443 -0.5593
   88MOL    O6133295   7.516   3.396   6.643  0.4962  0.3307  0.3762
   88MOL    C6233296   7.292   3.489   6.727  0.1717 -0.2591 -0.1059
   88MOL    O6333297   7.208   3.543   6.623 -0.0860  0.1924  0.0783
   88MOL    C6433298   7.071   3.517   6.614 -0.5374  0.5930  0.0870
   88MOL    C6533299   6.999   3.434   6.702  0.2124  0.1828 -0.5227
   88MOL    C6633300   6.858   3.415   6.688  0.0704  0.3027 -0.1415
   88MOL    C6733301   6.791   3.485   6.587 -0.2185  0.3586 -0.2501
   88MOL    C6833302   6.857   3.577   6.507 -0.0850  0.7365  0.3325
   88MOL    C6933303   6.996   3.586   6.519 -0.1251 -0.0227  0.0415
   88MOL    H7033304   7.505   3.200   6.729  0.7188 -0.3921  1.5431
   88MOL    H7133305   7.324   3.321   6.593 -0.2884  0.1746 -0.4967
   88MOL    H7233306   7.350   3.573   6.763  0.5343 -1.0347  1.1630
   88MOL    H7333307   7.234   3.448   6.810  0.5786  1.5559  1.0879
   88MOL    H7433308   7.043   3.379   6.784 -2.4966 -0.6303  0.4435
   88MOL    H7533309   6.796   3.350   6.748 -0.5001  0.9501 -0.0248
   88MOL    H7633310   6.685   3.468   6.577 -0.0017 -1.1755 -0.0016
   88MOL    H7733311   6.807   3.616   6.419 -0.3179 -0.5452 -0.1161
   88MOL    C7833312   7.070   3.673   6.430  1.0616  0.0958 -0.0672
   88MOL    C7933313   7.169   3.627   6.324 -0.3236 -0.4654 -0.3360
   88MOL    O8033314   7.041   3.658   6.293  0.1660  0.8713 -0.3480
   88MOL    C8133315   7.206   3.486   6.291 -0.2963 -0.4100 -0.1769
   88MOL    O8233316   7.303   3.464   6.187  0.2310  0.1990  0.1636
   88MOL    C8333317   7.438   3.470   6.220  0.0884  0.4429  0.3143
   88MOL    C8433318   7.487   3.525   6.336 -0.1778 -0.4475 -0.1448
   88MOL    C8533319   7.625   3.519   6.375  0.3625 -0.1115  0.2238
   88MOL    C8633320   7.719   3.462   6.288 -0.4278 -0.0644  0.1347
   88MOL    C8733321   7.669   3.398   6.171 -0.4628 -0.1999  0.0274
   88MOL    C8833322   7.533   3.401   6.138  0.9133 -0.5973 -0.5256
   88MOL    H8933323   7.062   3.778   6.456 -0.9931 -0.0113 -0.1737
   88MOL    H9033324   7.244   3.701   6.296  0.7744 -0.4241  2.4987
   88MOL    H9133325   7.124   3.426   6.253  0.0615 -0.4817 -0.8381
   88MOL    H9233326   7.233   3.431   6.381 -2.0560  0.4139  0.8860
   88MOL    H9333327   7.416   3.560   6.411  0.2504  0.2217 -0.0515
   88MOL    H9433328   7.653   3.554   6.474  1.1331 -1.7986  0.6107
   88MOL    H9533329   7.826   3.456   6.300 -0.4488 -3.4104 -0.8679
   88MOL    H9633330   7.743   3.355   6.105  1.2107  0.8839  1.1473
   88MOL    C9733331   7.486   3.318   6.019 -0.7913 -0.0167 -0.4426
   88MOL    C9833332   7.463   3.365   5.880 -0.2939  0.1722 -0.7047
   88MOL    O9933333   7.593   3.310   5.924 -0.3568 -0.0455  0.9871
   88MOL   C10033334   7.471   3.509   5.833  0.2956 -0.4203  0.2348
   88MOL   O10133335   7.479   3.515   5.688 -0.3803  0.1021 -0.5070
   88MOL   C10233336   7.453   3.640   5.634  0.2321 -0.4081  0.0832
   88MOL   C10333337   7.465   3.761   5.703  0.0141 -0.5344 -0.0125
   88MOL   C10433338   7.444   3.886   5.647 -0.4505 -0.1220 -0.3936
   88MOL   C10533339   7.408   3.890   5.509 -1.1092  0.1073  0.3237
   88MOL   C10633340   7.392   3.771   5.437 -0.0600 -0.0328  0.3348
   88MOL   C10733341   7.426   3.649   5.497 -1.0830  0.1419  1.4042
   88MOL   H10833342   7.448   3.222   6.052 -0.6961  0.4498  1.0714
   88MOL   H10933343   7.431   3.291   5.807  1.5075  0.0302 -1.3805
   88MOL   H11033344   7.564   3.549   5.874 -0.0747  2.3886 -1.4797
   88MOL   H11133345   7.390   3.573   5.866 -1.0944 -2.1099  0.1413
   88MOL   H11233346   7.503   3.760   5.804  0.3313  2.8578 -0.0447
   88MOL   H11333347   7.469   3.981   5.689 -0.3854 -0.3365  0.0528
   88MOL   H11433348   7.398   3.988   5.465  1.0808 -0.1682 -0.8683
   88MOL   H11533349   7.371   3.770   5.331 -0.7144 -0.1436  0.4602
   88MOL   C11633350   7.436   3.518   5.416 -0.9272 -0.8219 -0.4177
   88MOL   C11733351   7.346   3.392   5.431 -0.3133  0.6876  0.2330
   88MOL   O11833352   7.329   3.496   5.328 -0.5203 -0.0351  0.4779
   88MOL   C11933353   7.228   3.374   5.521  0.7336  0.4908  0.1671
   88MOL   O12033354   7.136   3.271   5.475  0.3214 -0.1229  0.2189
   88MOL   C12133355   7.154   3.142   5.518  0.3820  0.0868 -0.0437
   88MOL   C12233356   7.272   3.090   5.569 -0.4253 -0.2887  0.3137
   88MOL   C12333357   7.275   2.953   5.607  0.0199 -0.1782 -0.1510
   88MOL   C12433358   7.164   2.869   5.595  0.4451 -0.6296  0.4543
   88MOL   C12533359   7.051   2.919   5.530  0.3517 -0.8986 -0.8191
   88MOL   C12633360   7.047   3.055   5.485  0.4695  0.1064  0.1142
   88MOL   H12733361   7.535   3.518   5.370  0.0286  2.3770  1.5143
   88MOL   H12833362   7.393   3.297   5.407  0.4040  0.9397  0.6345
   88MOL   H12933363   7.178   3.470   5.534  0.6689  0.2161  2.0345
   88MOL   H13033364   7.261   3.350   5.622 -3.0540  1.4276  1.7018
   88MOL   H13133365   7.352   3.160   5.586 -1.2563  0.7018  0.2040
   88MOL   H13233366   7.370   2.912   5.638  0.4603  0.3966 -0.7377
   88MOL   H13333367   7.158   2.764   5.618  1.6426 -0.6445  0.7234
   88MOL   H13433368   6.971   2.851   5.501  0.8222 -0.7860 -2.4331
   88MOL   C13533369   6.932   3.098   5.401  0.4154 -0.4313  0.0510
   88MOL   C13633370   6.906   3.032   5.266 -0.0895 -0.1249 -1.1647
   88MOL   O13733371   6.826   2.989   5.379 -0.5776  0.3616  0.4599
   88MOL   C13833372   6.994   2.924   5.200  0.3213  0.0958  0.5005
   88MOL   O13933373   6.918   2.864   5.100 -0.6260 -0.2653 -0.0643
   88MOL   C14033374   6.978   2.774   5.014 -0.5912 -0.6480  0.3321
   88MOL   C14133375   6.988   2.640   5.047  0.0746 -1.0045  0.4904
   88MOL   C14233376   7.046   2.553   4.955  0.2798 -0.2433 -0.0296
   88MOL   C14333377   7.092   2.595   4.832 -0.4961 -0.0004  0.3582
   88MOL   C14433378   7.081   2.732   4.793  0.3299 -0.3300 -0.2782
   88MOL   C14533379   7.026   2.819   4.884 -0.0950 -0.1462  0.2450
   88MOL   H14633380   6.873   3.182   5.435  2.5354 -0.0002  2.8345
   88MOL   H14733381   6.857   3.102   5.198  0.1917  2.1596  0.9220
   88MOL   H14833382   7.033   2.845   5.265  1.9643 -1.4233 -2.2474
   88MOL   H14933383   7.072   2.977   5.146  1.5347 -0.7492  1.3836
   88MOL   H15033384   6.957   2.609   5.146 -0.8330  0.1912  0.5963
   88MOL   H15133385   7.052   2.448   4.982 -0.9750 -1.0601 -2.6692
   88MOL   H15233386   7.133   2.526   4.760 -2.1163 -0.9636  0.3438
   88MOL   H15333387   7.104   2.768   4.693  1.5358 -0.3779 -0.0278
   88MOL   C15433388   7.029   2.966   4.831 -0.2488  0.0926 -0.4989
   88MOL   C15533389   6.904   3.034   4.775  0.9200 -0.4699  0.0075
   88MOL   O15633390   6.945   3.051   4.911 -0.3132  0.5175 -0.5470
   88MOL   C15733391   6.769   2.959   4.752  0.3023  0.5626 -0.1800
   88MOL   O15833392   6.653   3.047   4.764 -0.7607 -0.3612 -0.1426
   88MOL   C15933393   6.588   3.060   4.886 -0.7112  0.2136 -0.8423
   88MOL   C16033394   6.625   2.998   5.010  0.3452 -0.2112  0.4389
   88MOL   C16133395   6.554   3.030   5.129 -0.4323 -0.7049  0.3906
   88MOL   C16233396   6.436   3.104   5.123 -0.4017  0.1987 -0.1988
   88MOL   C16333397   6.387   3.142   5.003 -1.0627 -0.7949  0.3530
   88MOL   C16433398   6.466   3.134   4.886  0.2776 -0.4823  0.3382
   88MOL   H16533399   7.130   3.004   4.816 -0.2508  0.0235 -0.6948
   88MOL   H16633400   6.915   3.126   4.719  2.2215 -0.5610  0.1028
   88MOL   H16733401   6.771   2.866   4.809  1.7103 -0.7662 -2.3447
   88MOL   H16833402   6.766   2.945   4.644 -0.3468  0.5128 -0.1588
   88MOL   H16933403   6.715   2.939   5.017  0.4711  0.0185  0.7629
   88MOL   H17033404   6.588   2.999   5.226  0.0780 -1.3010  0.0317
   88MOL   H17133405   6.379   3.133   5.210  1.0135 -1.1003  1.1936
   88MOL   H17233406   6.293   3.196   5.005 -1.2099 -0.9328 -1.9827
   88MOL   C17333407   6.420   3.204   4.758 -0.1173  0.4449 -0.2430
   88MOL   C17433408   6.271   3.203   4.715 -0.0583 -0.1876 -0.0628
   88MOL   O17533409   6.328   3.319   4.778 -0.5464 -0.0244  0.1792
   88MOL   C17633410   6.148   3.140   4.781  0.0154  0.1280 -0.4686
   88MOL   O17733411   6.039   3.105   4.698  0.5140 -0.5558 -0.2286
   88MOL   C17833412   6.027   2.985   4.640 -0.2949 -0.0499  0.1826
   88MOL   C17933413   6.137   2.896   4.619 -0.2552  0.0661  0.7725
   88MOL   C18033414   6.125   2.776   4.548 -0.5246 -0.0028 -0.3108
   88MOL   C18133415   5.999   2.743   4.495 -0.5647  0.0906  0.5290
   88MOL   C18233416   5.884   2.820   4.529  0.5772  0.1644  0.7297
   88MOL   C18333417   5.897   2.939   4.602  0.1869  0.1608  0.3161
   88MOL   H18433418   6.489   3.222   4.676 -1.1369  0.6327 -1.0734
   88MOL   H18533419   6.242   3.223   4.612 -1.7416  1.2585  0.6540
   88MOL   H18633420   6.113   3.207   4.860  0.6134 -1.6693  1.3683
   88MOL   H18733421   6.182   3.053   4.837  1.1625 -1.5348 -3.6222
   88MOL   H18833422   6.232   2.940   4.647  0.6219 -1.6191  0.5136
   88MOL   H18933423   6.209   2.717   4.515 -1.7298 -0.9028 -1.8678
   88MOL   H19033424   5.986   2.649   4.444 -0.3737  1.0212 -1.2970
   88MOL   H19133425   5.789   2.782   4.494 -0.5076  1.0611  2.6554
   88MOL   C19233426   5.780   3.031   4.615 -0.4446 -0.6681 -0.4538
   88MOL   C19333427   5.634   2.994   4.633 -0.0564  0.7175 -0.4814
   88MOL   O19433428   5.719   3.013   4.750 -0.1268 -0.0025  0.1612
   88MOL   C19533429   5.557   2.862   4.631 -0.8491  0.7300  0.2929
   88MOL   O19633430   5.534   2.817   4.497 -0.2861 -0.1532 -0.1813
   88MOL   C19733431   5.440   2.715   4.475 -0.7956  0.8311  0.3952
   88MOL   C19833432   5.348   2.677   4.577  0.3702  0.2064 -0.0448
   88MOL   C19933433   5.257   2.574   4.562  0.3848  0.0547 -0.2553
   88MOL   C20033434   5.247   2.510   4.436 -0.2832  0.1011  0.3805
   88MOL   C20133435   5.326   2.552   4.329  0.2577  0.2284 -0.1151
   88MOL   C20233436   5.426   2.658   4.347 -0.5062 -0.2967  0.1444
   88MOL   H20333437   5.803   3.134   4.589  1.5124 -0.5163  1.7338
   88MOL   H20433438   5.563   3.073   4.613 -0.5741  0.5247  0.5756
   88MOL   H20533439   5.469   2.898   4.685 -0.1383 -1.3602  2.9145
   88MOL   H20633440   5.603   2.780   4.686 -2.0975  0.2294  0.6166
   88MOL   H20733441   5.365   2.722   4.673  0.0444  0.4287 -0.0918
   88MOL   H20833442   5.187   2.556   4.642 -0.3672 -2.0110 -1.3410
   88MOL   H20933443   5.175   2.430   4.435  0.6580 -0.7720  1.8470
   88MOL   H21033444   5.316   2.513   4.229 -1.8535 -0.5088  0.3671
   88MOL   C21133445   5.507   2.719   4.242 -0.3288  0.3589  0.3572
   88MOL   C21233446   5.645   2.669   4.213  0.4192  0.0513  0.0916
   88MOL   O21333447   5.532   2.631   4.135  0.3403  0.2082  0.2730
   88MOL   C21433448   5.726   2.558   4.283  0.4805 -0.0121 -0.6359
   88MOL   O21533449   5.864   2.545   4.239 -0.1993  0.6287  0.1884
   88MOL   C21633450   5.894   2.481   4.127  0.0448  0.0239 -0.0843
   88MOL   C21733451   5.800   2.454   4.024  0.1294 -1.5629  0.4702
   88MOL   C21833452   5.840   2.396   3.905  0.2796  0.1352 -0.1371
   88MOL   C21933453   5.971   2.353   3.890 -0.1393  0.4392  0.0539
   88MOL   C22033454   6.071   2.382   3.989 -0.0698  0.0476  0.6849
   88MOL   C22133455   6.026   2.441   4.112  0.1849 -0.2040  0.0798
   88MOL   H22233456   5.494   2.825   4.223 -1.9311 -0.0925 -1.1384
   88MOL   H22333457   5.704   2.746   4.164  0.6274  1.4641  2.5099
   88MOL   H22433458   5.685   2.459   4.267 -1.3788  0.7425 -0.6769
   88MOL   H22533459   5.711   2.574   4.390  0.2642  0.3769 -0.7203
   88MOL   H22633460   5.696   2.485   4.028  0.5916  0.1833 -0.8207
   88MOL   H22733461   5.771   2.393   3.822 -1.0932 -1.3211  1.0365
   88MOL   H22833462   6.013   2.292   3.812  0.1618  0.9766 -0.2044
   88MOL   H22933463   6.175   2.353   3.980  0.5271  1.7602  1.7596
   88MOL   C23033464   6.122   2.470   4.231 -0.0407  0.1363  0.7967
   88MOL   C23133465   6.117   2.405   4.373 -0.5938 -0.1722  0.1554
   88MOL   O23233466   6.195   2.353   4.265  0.6176 -0.4904  0.2935
   88MOL   C23333467   6.005   2.308   4.415 -0.1674 -0.3869  0.3347
   88MOL   O23433468   5.930   2.372   4.520  0.2028 -0.4275 -0.0259
   88MOL   C23533469   5.983   2.372   4.649 -0.3586  0.0288  0.2352
   88MOL   C23633470   6.104   2.307   4.693 -0.5079 -0.4219 -0.8035
   88MOL   C23733471   6.137   2.304   4.831  0.4025 -0.3011 -0.5149
   88MOL   C23833472   6.055   2.372   4.922  0.0721  0.9144 -0.1765
   88MOL   C23933473   5.937   2.434   4.889  0.0748  0.0459  0.7882
   88MOL   C24033474   5.906   2.437   4.750 -0.3445 -0.4396 -0.3424
   88MOL   H24133475   6.191   2.552   4.211  0.7897 -1.0937 -1.6225
   88MOL   H24233476   6.172   2.457   4.452  0.8457  0.2262 -1.1018
   88MOL   H24333477   6.052   2.211   4.434  2.6765  1.0340  0.8638
   88MOL   H24433478   5.937   2.291   4.331  0.1379  2.2897 -0.5067
   88MOL   H24533479   6.155   2.244   4.622  0.5994 -0.8387  0.3582
   88MOL   H24633480   6.224   2.247   4.857 -0.6749 -1.0692  1.5262
   88MOL   H24733481   6.090   2.375   5.024  1.5781 -2.6447 -0.4983
   88MOL   H24833482   5.880   2.484   4.966 -0.0644 -1.1851  1.4824
   88MOL   C24933483   5.772   2.488   4.712 -0.1422  0.0524 -0.4346
   88MOL   C25033484   5.648   2.402   4.685 -0.3472  0.0627 -0.1050
   88MOL   O25133485   5.673   2.460   4.814 -0.0205 -0.2206  0.8587
   88MOL   C25233486   5.654   2.250   4.678 -0.2625  0.3355  0.1469
   88MOL   O25333487   5.528   2.180   4.704  0.2313 -0.4008 -0.6881
   88MOL   C25433488   5.447   2.151   4.598 -0.3869  0.5575 -0.3385
   88MOL   C25533489   5.446   2.220   4.475 -0.4409 -0.2832  0.4564
   88MOL   C25633490   5.346   2.200   4.380 -0.2988 -0.6234 -0.1800
   88MOL   C25733491   5.237   2.120   4.407  0.4574  0.2851  0.1934
   88MOL   C25833492   5.225   2.067   4.539  0.5368 -0.5744 -0.2070
   88MOL   C25933493   5.325   2.082   4.639 -0.0595  0.5929  0.4090
   88MOL   H26033494   5.776   2.595   4.691  1.0554  0.2259  0.5884
   88MOL   H26133495   5.560   2.440   4.634 -1.3624  2.2707  3.1215
   88MOL   H26233496   5.730   2.212   4.746 -1.1873  1.9271  2.1038
   88MOL   H26333497   5.680   2.216   4.577  0.0565 -1.9874  0.9770
   88MOL   H26433498   5.524   2.292   4.457 -1.7686  0.7184 -1.4558
   88MOL   H26533499   5.354   2.238   4.279  2.2016 -0.2169  0.1325
   88MOL   H26633500   5.152   2.092   4.347  1.9207 -1.6278 -0.9912
   88MOL   H26733501   5.142   2.000   4.555  1.1916 -0.8860  1.9895
   88MOL   C26833502   5.325   2.011   4.775  0.0639  0.3149 -0.1517
   88MOL   C26933503   5.272   2.071   4.900 -0.0776 -0.1226  0.1207
   88MOL   O27033504   5.196   1.977   4.821  0.2220  0.0278  0.0231
   88MOL   C27133505   5.224   2.218   4.904 -0.2853 -0.4156 -0.3634
   88MOL   O27233506   5.204   2.249   5.044 -0.5409  0.2390 -0.0221
   88MOL   C27333507   5.315   2.261   5.133 -0.4381 -0.0077 -0.4850
   88MOL   C27433508   5.450   2.269   5.092 -0.1915  1.4447 -0.3570
   88MOL   C27533509   5.553   2.282   5.187 -0.2346  0.2176  1.1121
   88MOL   C27633510   5.526   2.298   5.321 -0.1616 -0.5296  0.2288
   88MOL   C27733511   5.396   2.304   5.360  0.2176 -0.3121 -0.2354
   88MOL   C27833512   5.289   2.275   5.271 -0.3251  0.6449  0.2434
   88MOL   H27933513   5.398   1.933   4.793  1.7695  2.0539  0.6037
   88MOL   H28033514   5.308   2.031   4.995 -0.5357 -0.6308  0.0812
   88MOL   H28133515   5.122   2.233   4.869  0.3735  2.5351 -1.1263
   88MOL   H28233516   5.292   2.287   4.854 -0.0515 -0.7032 -0.4512
   88MOL   H28333517   5.480   2.261   4.989  2.3941  1.9813  0.3256
   88MOL   H28433518   5.649   2.303   5.144 -0.1087 -2.1596  0.1395
   88MOL   H28533519   5.606   2.314   5.392  0.2618 -1.1429 -0.1091
   88MOL   H28633520   5.371   2.316   5.465  0.0994  0.9035 -0.3900
   88MOL   C28733521   5.152   2.266   5.319  0.1433 -0.2914  0.9586
   88MOL   C28833522   5.097   2.126   5.351  0.2175 -0.1489 -0.0434
   88MOL   O28933523   5.138   2.219   5.454 -0.0509  0.5401 -0.2995
   88MOL   C29033524   5.189   2.006   5.348  0.0844 -0.1235 -0.2786
   88MOL   O29133525   5.125   1.880   5.359  0.3835  0.0201  0.2610
   88MOL   C29233526   5.051   1.833   5.253 -0.4778 -0.0925 -0.7776
   88MOL   C29333527   5.057   1.894   5.126  0.0530  0.8639 -0.3752
   88MOL   C29433528   4.965   1.855   5.023 -0.0558 -0.5004  1.0465
   88MOL   C29533529   4.884   1.745   5.045 -0.7037  1.1058 -0.1952
   88MOL   C29633530   4.879   1.680   5.167  0.4451  0.2779 -0.0696
   88MOL   C29733531   4.968   1.720   5.270 -0.0119 -0.1869 -0.2726
   88MOL   H29833532   5.099   2.358   5.295  1.1860 -0.2574 -1.4259
   88MOL   H29933533   4.991   2.109   5.365  0.1503  0.6381  0.3843
   88MOL   H30033534   5.250   2.006   5.439  0.9930 -0.5232 -0.8780
   88MOL   H30133535   5.256   2.014   5.262  1.1890  2.5504  0.7846
   88MOL   H30233536   5.119   1.980   5.108  0.9816  0.2867  0.0514
   88MOL   H30333537   4.966   1.907   4.929  0.2515 -1.5661  0.4531
   88MOL   H30433538   4.817   1.712   4.967 -0.2381 -3.5345  1.1769
   88MOL   H30533539   4.803   1.605   5.184 -0.9336  1.5919 -0.3240
   88MOL   C30633540   4.961   1.651   5.408 -0.0119 -0.3911 -0.2940
   88MOL   C30733541   4.912   1.710   5.534 -0.8151  0.3483 -0.1798
   88MOL   O30833542   4.823   1.634   5.447  0.7071  0.3663 -0.2366
   88MOL   C30933543   4.887   1.858   5.558 -0.6128 -1.0456  0.0490
   88MOL   O31033544   4.781   1.866   5.650  0.4303 -0.1084  0.0689
   88MOL   C31133545   4.759   1.992   5.708 -0.2316 -0.3233 -0.9115
   88MOL   C31233546   4.827   2.113   5.683  0.1861  0.7300 -0.3486
   88MOL   C31333547   4.790   2.228   5.757 -0.4624 -0.9308 -0.6280
   88MOL   C31433548   4.705   2.219   5.872 -0.0716 -0.8242  0.5207
   88MOL   C31533549   4.636   2.100   5.892  0.4348 -0.0818 -0.0410
   88MOL   C31633550   4.662   1.990   5.806 -0.0047  0.2659 -0.4609
   88MOL   H31733551   5.016   1.558   5.418  1.2716  0.3205 -0.6109
   88MOL   H31833552   4.948   1.663   5.625 -0.8710  2.5970  1.0391
   88MOL   H31933553   4.867   1.909   5.463 -1.0269 -1.1418  0.0834
   88MOL   H32033554   4.978   1.904   5.598 -0.9783 -0.1901 -0.0902
   88MOL   H32133555   4.894   2.130   5.600  1.1085  1.4938  0.5296
   88MOL   H32233556   4.835   2.319   5.722 -2.6133  1.8471  3.3880
   88MOL   H32333557   4.692   2.311   5.927 -1.0822  1.3738 -3.1823
   88MOL   H32433558   4.559   2.096   5.968 -2.1555 -0.3850 -2.5696
   88MOL   C32533559   4.576   1.866   5.824 -0.0036  0.5040 -0.0616
   88MOL   C32633560   4.630   1.737   5.891  0.1438 -0.6063 -0.6187
   88MOL   O32733561   4.540   1.833   5.957  0.0419  0.3303  0.0885
   88MOL   C32833562   4.774   1.727   5.943 -0.7229  0.6399 -0.1336
   88MOL   O32933563   4.782   1.648   6.063 -0.2978  0.0838  0.9680
   88MOL   C33033564   4.795   1.710   6.179 -0.2495 -0.1194 -0.0099
   88MOL   C33133565   4.918   1.778   6.204  0.0065  0.3161 -0.1336
   88MOL   C33233566   4.934   1.833   6.332 -0.1901 -0.6521 -0.1721
   88MOL   C33333567   4.843   1.808   6.435  0.2768 -0.7614 -0.2423
   88MOL   C33433568   4.721   1.738   6.404  0.4905 -0.5975 -0.9500
   88MOL   C33533569   4.696   1.689   6.277 -0.3766  0.6556 -0.3576
   88MOL   H33633570   4.496   1.869   5.750  1.9482  1.6713 -2.1521
   88MOL   H33733571   4.576   1.645   5.869 -0.3171 -0.0702 -1.7175
   88MOL   H33833572   4.829   1.819   5.962  0.5304  0.1717 -1.3958
   88MOL   H33933573   4.825   1.676   5.861  1.0855 -0.3727  1.5900
   88MOL   H34033574   4.997   1.768   6.132 -0.4164 -2.5417 -0.2485
   88MOL   H34133575   5.034   1.869   6.355  0.0231 -1.8300  0.7926
   88MOL   H34233576   4.875   1.847   6.531  0.5370  0.8044 -0.9597
   88MOL   H34333577   4.646   1.702   6.473  0.8191  0.6148  0.0643
   88MOL   C34433578   4.579   1.608   6.239 -0.2592 -0.5515 -0.2112
   88MOL   C34533579   4.555   1.469   6.287 -0.0628  0.0756  1.0471
   88MOL   O34633580   4.485   1.576   6.338  0.2304 -0.1505  0.9670
   88MOL   C34733581   4.635   1.401   6.396 -0.0169  0.2699 -0.8494
   88MOL   O34833582   4.542   1.320   6.464  0.0870 -0.2279 -0.7369
   88MOL   C34933583   4.576   1.242   6.572 -0.7340 -0.1957 -0.0300
   88MOL   C35033584   4.711   1.225   6.609  0.4468  0.3231 -0.4747
   88MOL   C35133585   4.748   1.133   6.711 -0.0360 -0.2639 -0.1714
   88MOL   C35233586   4.648   1.059   6.778  0.2465 -0.0523 -0.2074
   88MOL   C35333587   4.513   1.076   6.736 -0.1221 -0.8580  0.3279
   88MOL   C35433588   4.478   1.165   6.634  0.7223 -0.3276  0.1816
   88MOL   H35533589   4.526   1.646   6.152 -1.6605  1.6564  1.5580
   88MOL   H35633590   4.514   1.401   6.213  3.2714 -0.3352 -0.5495
   88MOL   H35733591   4.688   1.472   6.459 -1.7837 -0.7090  1.8134
   88MOL   H35833592   4.706   1.338   6.342  1.9665  0.7220  1.1480
   88MOL   H35933593   4.792   1.273   6.556 -0.1110 -0.2920 -1.9322
   88MOL   H36033594   4.852   1.119   6.738  0.1751  1.1829 -0.1487
   88MOL   H36133595   4.662   0.995   6.864  0.2108  0.7886  0.4326
   88MOL   H36233596   4.438   1.011   6.777 -1.2434  0.0650 -0.2225
   88MOL   C36333597   4.338   1.185   6.605 -0.1357  0.0905 -0.4496
   88MOL   C36433598   4.268   1.150   6.478  0.3410 -0.2623 -0.0654
   88MOL   O36533599   4.267   1.068   6.595 -1.0184 -0.4980 -0.3051
   88MOL   C36633600   4.332   1.083   6.353  0.1797 -0.1471 -0.4170
   88MOL   O36733601   4.232   0.994   6.294  0.0769  0.4563  0.1574
   88MOL   C36833602   4.222   0.867   6.343  0.4953  0.2061 -0.0395
   88MOL   C36933603   4.100   0.795   6.320  0.5342 -0.0059  0.7710
   88MOL   C37033604   4.092   0.658   6.353  0.2320  0.2264 -0.3357
   88MOL   C37133605   4.192   0.599   6.424 -0.2993 -0.1924  0.9627
   88MOL   C37233606   4.311   0.666   6.446  0.5076  0.0651 -0.5059
   88MOL   C37333607   4.329   0.797   6.405 -0.9839 -0.1681 -0.5512
   88MOL   H37433608   4.289   1.266   6.658 -3.4246 -0.4583 -2.4821
   88MOL   H37533609   4.177   1.206   6.462  0.2076  0.0444  1.6995
   88MOL   H37633610   4.425   1.028   6.368  0.1915 -0.0907 -0.2820
   88MOL   H37733611   4.363   1.157   6.279 -2.2882 -1.3340 -2.7215
   88MOL   H37833612   4.021   0.845   6.267  1.5030 -1.2861 -2.0065
   88MOL   H37933613   4.008   0.593   6.330  0.0894  0.8016 -1.4662
   88MOL   H38033614   4.176   0.496   6.450  0.1216 -0.7512 -0.9096
   88MOL   H38133615   4.395   0.610   6.485 -1.1581 -3.8129 -2.2119
   88MOL   H38233616   4.423   0.833   6.444 -1.1550 -1.2754  0.9484
   89MOL     C133617   6.718   4.647   1.237  0.0689 -0.2166 -0.5513
   89MOL     C233618   6.644   4.587   1.362 -0.7093 -0.2967  0.2027
   89MOL     O333619   6.576   4.615   1.239  0.3541 -0.4111  0.2594
   89MOL     C433620   6.587   4.670   1.477 -0.6653 -0.0278 -0.2107
   89MOL     O533621   6.482   4.597   1.539 -0.3262  0.1819  0.4615
   89MOL     C633622   6.400   4.670   1.624  0.0315  0.2219 -0.3780
   89MOL     C733623   6.357   4.802   1.595 -0.4679  0.3336  0.0209
   89MOL     C833624   6.280   4.868   1.682 -0.0161  0.7856  0.4576
   89MOL     C933625   6.230   4.804   1.795  0.4540 -0.4610 -0.0607
   89MOL    C1033626   6.271   4.673   1.830 -0.1065  0.7323 -0.8004
   89MOL    C1133627   6.357   4.604   1.743  0.6684  0.1637 -0.1663
   89MOL    H1233628   6.780   4.580   1.179 -0.9267 -0.7802 -0.9818
   89MOL    H1333629   6.657   4.481   1.382  0.2688 -0.0548  0.9133
   89MOL    H1433630   6.571   4.766   1.428  0.4347  0.2796  0.0026
   89MOL    H1533631   6.671   4.682   1.546 -1.7067  2.1531  0.7323
   89MOL    H1633632   6.387   4.850   1.503 -0.4078 -0.6335 -0.4703
   89MOL    H1733633   6.237   4.960   1.645 -1.1210  0.0728 -0.0358
   89MOL    H1833634   6.162   4.865   1.854  0.4534 -1.9122  1.4656
   89MOL    H1933635   6.229   4.632   1.920 -2.1546  0.5181 -1.8285
   89MOL    H2033636   6.742   4.753   1.238 -1.0837  0.0650 -1.3963
   89MOL    C2133637   6.404   4.458   1.774  0.3872 -0.3491  0.3840
   89MOL    C2233638   6.529   4.427   1.849 -0.1167 -0.3478 -0.0681
   89MOL    O2333639   6.398   4.423   1.918  0.3714  0.6446 -0.1461
   89MOL    C2433640   6.626   4.536   1.894  0.6177  0.2326  1.0406
   89MOL    O2533641   6.744   4.477   1.943  0.3778 -0.6541 -0.2580
   89MOL    C2633642   6.748   4.407   2.060  0.5693 -0.7537  0.4924
   89MOL    C2733643   6.656   4.434   2.167 -0.2281  0.5547  0.6864
   89MOL    C2833644   6.672   4.370   2.290  0.1208 -0.6067  0.5734
   89MOL    C2933645   6.780   4.290   2.319  1.3867  0.4435  0.1151
   89MOL    C3033646   6.868   4.262   2.212 -0.1780  0.3594 -0.2694
   89MOL    C3133647   6.854   4.316   2.083  0.6602  0.2804 -0.0715
   89MOL    H3233648   6.360   4.383   1.708 -0.2848 -0.2433  0.7090
   89MOL    H3333649   6.579   4.333   1.825 -0.9033 -0.4577 -1.3313
   89MOL    H3433650   6.587   4.599   1.974 -1.7440  0.3453 -0.1660
   89MOL    H3533651   6.654   4.612   1.821 -0.8805  1.1463  1.3915
   89MOL    H3633652   6.571   4.498   2.150  0.4268  0.7636 -1.8790
   89MOL    H3733653   6.592   4.384   2.362 -0.4424 -1.8985  0.2110
   89MOL    H3833654   6.785   4.251   2.419  0.1991  0.3614  0.1529
   89MOL    H3933655   6.954   4.197   2.222  0.8656  1.9501  1.3744
   89MOL    C4033656   6.963   4.296   1.981 -0.2993  0.5227 -0.3923
   89MOL    C4133657   7.065   4.399   1.949 -0.6612 -0.7388  0.4725
   89MOL    O4233658   7.097   4.290   2.039 -0.2403 -0.5639  0.4026
   89MOL    C4333659   7.067   4.532   2.025  0.1555 -0.2426 -0.1874
   89MOL    O4433660   7.191   4.597   2.011  0.2130 -0.2626  0.4715
   89MOL    C4533661   7.280   4.569   2.114  0.4207 -0.7382  0.0956
   89MOL    C4633662   7.368   4.460   2.095  0.2009 -0.0974  0.4871
   89MOL    C4733663   7.455   4.417   2.194 -0.1589 -0.5648  0.8146
   89MOL    C4833664   7.452   4.481   2.316  0.1532 -0.2322 -0.4338
   89MOL    C4933665   7.370   4.590   2.339 -0.2402  0.2905  0.0944
   89MOL    C5033666   7.276   4.638   2.238 -0.0200 -0.8126  0.1839
   89MOL    H5133667   6.934   4.230   1.900  0.7589  1.0233 -1.1976
   89MOL    H5233668   7.116   4.388   1.853  0.6033  0.7035  0.9611
   89MOL    H5333669   7.050   4.521   2.132 -0.8963 -1.3700 -0.4631
   89MOL    H5433670   6.989   4.597   1.986  0.9063  1.3531  0.8880
   89MOL    H5533671   7.368   4.405   2.002 -2.5898  1.2562 -0.3607
   89MOL    H5633672   7.521   4.333   2.176  1.7156  0.8725  0.7647
   89MOL    H5733673   7.514   4.440   2.395 -1.3955 -2.9441 -0.5693
   89MOL    H5833674   7.375   4.640   2.435  0.7754 -2.3971  1.5083
   89MOL    C5933675   7.183   4.746   2.272  1.0594  0.2005  0.7047
   89MOL    C6033676   7.072   4.719   2.367  0.6774 -0.6202  0.5353
   89MOL    O6133677   7.196   4.798   2.404 -0.0327  0.6588  0.5676
   89MOL    C6233678   7.050   4.583   2.433  0.1295  0.1497 -0.3992
   89MOL    O6333679   6.931   4.563   2.511 -0.2190 -0.0071  0.3743
   89MOL    C6433680   6.925   4.617   2.640 -0.6634 -0.2791  0.3464
   89MOL    C6533681   7.016   4.716   2.692 -0.0913  0.6287 -0.0712
   89MOL    C6633682   7.001   4.780   2.814 -0.5861  0.1088 -0.0304
   89MOL    C6733683   6.897   4.737   2.900 -0.2960  0.3661  0.0214
   89MOL    C6833684   6.811   4.637   2.856  0.0921 -0.3502 -0.1384
   89MOL    C6933685   6.834   4.569   2.730  0.5030  0.5499 -0.7935
   89MOL    H7033686   7.186   4.830   2.203  2.2398  0.7984  1.4826
   89MOL    H7133687   6.984   4.778   2.344  1.6748  0.9107  0.6188
   89MOL    H7233688   7.136   4.559   2.495  0.0539 -0.5701 -0.5732
   89MOL    H7333689   7.041   4.505   2.357 -1.7470  1.1497 -1.2476
   89MOL    H7433690   7.106   4.734   2.635  0.9180 -1.6300  0.7264
   89MOL    H7533691   7.084   4.837   2.850  1.4040 -1.8303 -1.4240
   89MOL    H7633692   6.884   4.779   2.999  0.7259  0.1784  0.2355
   89MOL    H7733693   6.726   4.610   2.917  1.5959  1.2158  2.7558
   89MOL    C7833694   6.757   4.436   2.698  0.3723  0.5445 -0.1177
   89MOL    C7933695   6.821   4.302   2.732  0.1373 -0.1094 -0.4576
   89MOL    O8033696   6.723   4.368   2.819 -0.5344  0.5079 -0.1477
   89MOL    C8133697   6.965   4.286   2.782  0.1074 -0.4102  0.0509
   89MOL    O8233698   6.969   4.158   2.848 -0.2040  0.1449  0.4126
   89MOL    C8333699   6.945   4.155   2.986 -0.9865  0.1524 -0.2635
   89MOL    C8433700   7.012   4.237   3.080 -0.0191  0.0073 -0.5509
   89MOL    C8533701   6.964   4.254   3.212  0.0303  0.0199  0.6954
   89MOL    C8633702   6.853   4.181   3.259 -0.5856 -0.3030  0.2103
   89MOL    C8733703   6.793   4.089   3.165 -0.2030  0.2737 -0.2342
   89MOL    C8833704   6.841   4.075   3.030  0.4954 -0.5509 -0.9003
   89MOL    H8933705   6.669   4.441   2.635  0.1689  0.8510  0.1896
   89MOL    H9033706   6.776   4.209   2.696 -1.3390  0.7371 -0.8680
   89MOL    H9133707   6.984   4.374   2.844  0.0476 -1.4350  1.5587
   89MOL    H9233708   7.027   4.282   2.693 -2.1776 -2.8085 -1.4929
   89MOL    H9333709   7.107   4.278   3.048 -0.5502  1.2796 -0.5165
   89MOL    H9433710   7.019   4.319   3.277 -0.8085  1.2638  0.1807
   89MOL    H9533711   6.823   4.189   3.362  1.5422 -1.6304  0.9702
   89MOL    H9633712   6.719   4.016   3.193 -0.1106  0.2684 -0.0012
   89MOL    C9733713   6.774   3.986   2.935  0.2432 -0.5317  1.3228
   89MOL    C9833714   6.803   3.843   2.931 -0.4807  0.0147 -0.5860
   89MOL    O9933715   6.684   3.895   2.987  0.1872  0.3469 -0.0359
   89MOL   C10033716   6.904   3.782   3.031  0.0466 -0.9442  0.5371
   89MOL   O10133717   6.879   3.641   3.052  0.0846 -0.0552  0.4885
   89MOL   C10233718   6.906   3.582   3.171  0.4390  0.0994 -0.9002
   89MOL   C10333719   6.997   3.638   3.267 -0.2437  0.1139 -0.4038
   89MOL   C10433720   7.014   3.572   3.393  0.0526  0.3821 -0.0661
   89MOL   C10533721   6.952   3.450   3.413  0.3079 -0.2031 -0.2085
   89MOL   C10633722   6.866   3.397   3.320 -0.3655  0.1177 -0.0910
   89MOL   C10733723   6.838   3.462   3.202 -0.7746 -0.2693 -0.7826
   89MOL   H10833724   6.736   4.042   2.850 -2.6762 -0.3465  2.7086
   89MOL   H10933725   6.786   3.776   2.847  0.0714 -0.0789 -0.6215
   89MOL   H11033726   6.892   3.835   3.125  1.3992  0.4009 -0.0397
   89MOL   H11133727   7.002   3.792   2.984 -1.0854  0.9579 -1.4677
   89MOL   H11233728   7.046   3.734   3.266 -0.9302  0.4708 -0.5604
   89MOL   H11333729   7.087   3.609   3.463  0.6231  1.1403 -1.0456
   89MOL   H11433730   6.982   3.391   3.499 -1.2221 -1.4105 -0.4853
   89MOL   H11533731   6.810   3.307   3.341 -1.3806  1.3452  2.7682
   89MOL   C11633732   6.754   3.401   3.091  0.4017  0.2297 -0.5298
   89MOL   C11733733   6.810   3.348   2.966  0.4945  0.8793 -0.3815
   89MOL   O11833734   6.774   3.259   3.070 -0.0093 -0.3995  0.3304
   89MOL   C11933735   6.959   3.351   2.934 -0.0776  0.3918  0.0773
   89MOL   O12033736   6.992   3.260   2.821 -0.3320  0.3292 -0.0266
   89MOL   C12133737   7.028   3.125   2.840  0.4875  0.9579 -0.0607
   89MOL   C12233738   7.021   3.070   2.969  0.1255 -0.0534 -0.3666
   89MOL   C12333739   7.019   2.930   2.985  0.3562 -0.8015  0.3862
   89MOL   C12433740   7.043   2.849   2.878  0.3673 -0.4183  0.0915
   89MOL   C12533741   7.067   2.900   2.747  0.5726  0.0712 -0.4162
   89MOL   C12633742   7.058   3.040   2.729 -0.0503  0.3267  0.0634
   89MOL   H12733743   6.653   3.436   3.112  2.1902  4.4523  1.6522
   89MOL   H12833744   6.743   3.356   2.881 -0.4784 -0.2806  0.2633
   89MOL   H12933745   7.013   3.324   3.025 -3.1540 -1.8100  1.3468
   89MOL   H13033746   6.989   3.453   2.909  1.7660 -0.1640 -0.0599
   89MOL   H13133747   6.992   3.121   3.060 -3.7355 -2.8408  0.0696
   89MOL   H13233748   7.000   2.887   3.082  1.6770 -1.9795  0.1268
   89MOL   H13333749   7.044   2.744   2.903  2.2820  0.0987  2.2701
   89MOL   H13433750   7.079   2.826   2.670  1.4245 -1.1627  0.8724
   89MOL   C13533751   7.061   3.111   2.593  0.0968 -0.2661 -0.4455
   89MOL   C13633752   7.170   3.100   2.491 -0.4006  0.8243  0.4854
   89MOL   O13733753   7.040   3.032   2.480  0.2434 -0.7160 -0.1869
   89MOL   C13833754   7.288   2.998   2.489 -0.2168 -0.0118  0.4662
   89MOL   O13933755   7.289   2.925   2.368 -0.5255  0.1977  0.2703
   89MOL   C14033756   7.371   2.812   2.342  0.2953  0.6388  0.0401
   89MOL   C14133757   7.470   2.772   2.436 -0.7551 -0.5137  0.0785
   89MOL   C14233758   7.561   2.675   2.397 -0.4455  0.2218 -0.3388
   89MOL   C14333759   7.543   2.601   2.284 -0.1025  0.0216  0.1154
   89MOL   C14433760   7.441   2.634   2.196  0.1892 -0.0074  0.0426
   89MOL   C14533761   7.357   2.746   2.216 -0.3193  0.2545  0.0023
   89MOL   H14633762   7.011   3.207   2.592 -1.9682 -1.3142 -0.0470
   89MOL   H14733763   7.176   3.175   2.412  1.3311  0.3824  0.1634
   89MOL   H14833764   7.289   2.932   2.576 -0.9076 -1.3915 -0.5622
   89MOL   H14933765   7.388   3.042   2.486 -0.8338  1.7708  3.2881
   89MOL   H15033766   7.485   2.830   2.526 -1.4936  0.7653 -0.6107
   89MOL   H15133767   7.635   2.644   2.468  1.9539  1.8495 -2.0492
   89MOL   H15233768   7.606   2.514   2.266  0.2076  0.4667 -1.0336
   89MOL   H15333769   7.414   2.574   2.111  1.6178  0.7695 -0.9776
   89MOL   C15433770   7.251   2.787   2.121  0.6621  0.1873  0.0390
   89MOL   C15533771   7.280   2.834   1.979  0.0760  0.1358  0.7347
   89MOL   O15633772   7.234   2.704   2.007  0.9306  0.5980  0.0671
   89MOL   C15733773   7.423   2.851   1.935 -0.3607  0.3396 -0.4576
   89MOL   O15833774   7.429   2.870   1.797  0.1624 -1.0928 -0.9287
   89MOL   C15933775   7.409   2.752   1.731  0.0385  0.0315 -0.0496
   89MOL   C16033776   7.497   2.641   1.741  0.2923 -0.1749 -0.3460
   89MOL   C16133777   7.462   2.518   1.686 -0.5882 -0.1763  0.0433
   89MOL   C16233778   7.346   2.506   1.610 -0.4347 -0.1574 -0.3231
   89MOL   C16333779   7.264   2.618   1.591  0.8727 -0.7943  0.1451
   89MOL   C16433780   7.296   2.739   1.649  0.0251  0.0128  0.1276
   89MOL   H16533781   7.159   2.802   2.178  0.4038  4.0744 -1.2665
   89MOL   H16633782   7.209   2.885   1.915  0.8873  0.9997  0.4973
   89MOL   H16733783   7.488   2.768   1.966 -0.0995  0.3734 -0.9109
   89MOL   H16833784   7.465   2.938   1.986 -0.9142 -0.0312  0.6456
   89MOL   H16933785   7.581   2.651   1.808 -2.6223  1.2558  3.2005
   89MOL   H17033786   7.530   2.436   1.704 -1.7654 -1.0918  0.4021
   89MOL   H17133787   7.319   2.411   1.567 -0.3143 -1.1641  1.7966
   89MOL   H17233788   7.170   2.607   1.539  2.1653 -0.8606 -2.2257
   89MOL   C17333789   7.200   2.856   1.629 -0.6449  0.2498 -0.0676
   89MOL   C17433790   7.223   2.962   1.531 -0.1685 -0.7303  1.1000
   89MOL   O17533791   7.122   2.861   1.509 -0.5485 -0.2530 -0.5544
   89MOL   C17633792   7.342   2.963   1.439  0.0042 -0.0042  0.2556
   89MOL   O17733793   7.332   3.074   1.342 -0.1454 -0.3502 -0.3131
   89MOL   C17833794   7.442   3.111   1.271  0.0570  0.3910 -0.6860
   89MOL   C17933795   7.559   3.037   1.278 -0.1709  0.3380  0.6662
   89MOL   C18033796   7.664   3.079   1.186 -0.5744  0.5023 -0.2313
   89MOL   C18133797   7.654   3.189   1.098  0.1191 -1.0067  0.1323
   89MOL   C18233798   7.528   3.261   1.099  0.2116 -0.0408  0.3805
   89MOL   C18333799   7.425   3.220   1.182  0.3423  0.0002  0.0153
   89MOL   H18433800   7.139   2.879   1.716  1.5587  1.4320  1.2178
   89MOL   H18533801   7.196   3.064   1.559  0.1112 -1.2492  3.3227
   89MOL   H18633802   7.355   2.869   1.385  0.9803 -0.8026  1.8549
   89MOL   H18733803   7.426   2.979   1.507  0.6261 -3.3623  0.3670
   89MOL   H18833804   7.580   2.950   1.338  0.4952  0.3181  0.4080
   89MOL   H18933805   7.760   3.031   1.181 -0.9637 -0.2557 -0.5376
   89MOL   H19033806   7.727   3.224   1.026 -0.5072  0.3675  0.1419
   89MOL   H19133807   7.517   3.354   1.045  1.0943  0.3887  0.9193
   89MOL   C19233808   7.288   3.294   1.178 -0.3358  0.8411  0.5938
   89MOL   C19333809   7.268   3.433   1.229  0.6400 -0.9285  0.5823
   89MOL   O19433810   7.275   3.405   1.092  0.0028  0.2964  0.6574
   89MOL   C19533811   7.376   3.507   1.309  0.4275 -0.1271 -0.2144
   89MOL   O19633812   7.345   3.635   1.348 -0.4220  0.2235 -0.0101
   89MOL   C19733813   7.351   3.734   1.251  0.8281  0.1651 -0.6896
   89MOL   C19833814   7.375   3.709   1.115  0.2645  0.2325  0.0548
   89MOL   C19933815   7.391   3.813   1.024 -0.2934 -0.1507 -0.7459
   89MOL   C20033816   7.377   3.947   1.064 -0.4484  0.2979  0.2872
   89MOL   C20133817   7.348   3.972   1.199 -0.6684 -0.1081  0.3901
   89MOL   C20233818   7.346   3.866   1.293  0.3174  0.2984 -1.0784
   89MOL   H20333819   7.207   3.222   1.177  1.3176 -1.0925  1.1911
   89MOL   H20433820   7.167   3.433   1.270  0.4355 -0.2760  0.0869
   89MOL   H20533821   7.469   3.512   1.252  0.8096  0.4916  0.4481
   89MOL   H20633822   7.401   3.444   1.394  1.4213  0.6909  0.1048
   89MOL   H20733823   7.401   3.610   1.081  0.1937  0.0834  0.4301
   89MOL   H20833824   7.421   3.786   0.924 -0.0252 -0.1884 -0.6576
   89MOL   H20933825   7.407   4.019   0.989 -0.4352 -0.9777 -0.9508
   89MOL   H21033826   7.353   4.074   1.233  0.7299  0.1624 -0.5688
   89MOL   C21133827   7.342   3.902   1.432 -0.4417  0.4853 -0.6269
   89MOL   C21233828   7.433   3.856   1.542  0.5756  0.2481  0.1161
   89MOL   O21333829   7.461   3.974   1.464  0.2967 -0.4527  0.0497
   89MOL   C21433830   7.543   3.752   1.539 -0.7210 -0.7238  0.0796
   89MOL   O21533831   7.658   3.769   1.614 -0.2299  0.3903 -0.1410
   89MOL   C21633832   7.768   3.692   1.587  0.1138 -0.2786  0.0144
   89MOL   C21733833   7.761   3.565   1.523 -0.0620  0.7353 -0.2809
   89MOL   C21833834   7.880   3.487   1.506 -0.5029  0.1550  0.3889
   89MOL   C21933835   8.000   3.532   1.555 -0.0866 -0.0579 -0.1653
   89MOL   C22033836   8.008   3.658   1.615  0.0776 -0.2570  0.0204
   89MOL   C22133837   7.891   3.736   1.635  0.1090 -0.9522  0.0667
   89MOL   H22233838   7.253   3.954   1.467  0.0965  0.0975  1.4292
   89MOL   H22333839   7.405   3.881   1.644  0.9534 -1.3997  0.6438
   89MOL   H22433840   7.572   3.738   1.434 -0.7926  1.7558 -0.3018
   89MOL   H22533841   7.500   3.653   1.554 -2.0653 -0.6385 -2.8120
   89MOL   H22633842   7.673   3.509   1.494 -1.1397  0.8343  2.6334
   89MOL   H22733843   7.869   3.390   1.461 -0.3266 -0.3498  1.4299
   89MOL   H22833844   8.085   3.481   1.512 -0.3242  0.7589 -1.6747
   89MOL   H22933845   8.103   3.700   1.643 -0.1657 -0.1448  0.7070
   89MOL   C23033846   7.900   3.880   1.692 -0.2442  0.2190 -0.4150
   89MOL   C23133847   7.892   3.904   1.835  0.1995 -0.7426 -0.2862
   89MOL   O23233848   8.024   3.904   1.768 -0.2284  0.4637 -0.1887
   89MOL   C23333849   7.862   3.794   1.933  0.1869 -0.6116  0.2620
   89MOL   O23433850   7.817   3.852   2.059  0.3045  0.4157  0.1661
   89MOL   C23533851   7.695   3.912   2.061 -0.3314  0.6416 -0.7926
   89MOL   C23633852   7.590   3.892   1.962  0.0356 -0.4724  0.2456
   89MOL   C23733853   7.461   3.948   1.979  0.0013  0.2293 -0.1594
   89MOL   C23833854   7.433   4.030   2.086  0.2367  0.3000  0.0102
   89MOL   C23933855   7.538   4.059   2.177 -0.2626  0.1109  0.1415
   89MOL   C24033856   7.659   3.996   2.170 -0.1623  0.0669 -0.7242
   89MOL   H24133857   7.871   3.959   1.623 -3.8236 -0.4649  0.1980
   89MOL   H24233858   7.877   4.006   1.869 -3.1015 -1.5376  0.8328
   89MOL   H24333859   7.962   3.750   1.937  0.3560 -0.2390  0.1453
   89MOL   H24433860   7.800   3.709   1.906 -2.0691  0.5909  1.5231
   89MOL   H24533861   7.612   3.832   1.874 -0.4573 -1.9049  1.0896
   89MOL   H24633862   7.392   3.927   1.899  2.6068 -2.9388 -1.6752
   89MOL   H24733863   7.337   4.077   2.096  0.9011  1.4462  1.2320
   89MOL   H24833864   7.509   4.120   2.261 -2.1363 -2.8062  1.7364
   89MOL   C24933865   7.762   4.006   2.283  0.1533 -0.0497  0.0503
   89MOL   C25033866   7.833   4.137   2.328 -0.1884  0.2314 -0.5162
   89MOL   O25133867   7.714   4.088   2.389  0.0388  0.0530 -0.6333
   89MOL   C25233868   7.819   4.263   2.248 -0.7376  0.2671  0.0688
   89MOL   O25333869   7.847   4.382   2.329 -0.1264  0.3314  0.0657
   89MOL   C25433870   7.846   4.512   2.276  0.3364 -0.1879 -0.5058
   89MOL   C25533871   7.794   4.540   2.146  0.6062  0.3647  0.7931
   89MOL   C25633872   7.772   4.673   2.107  0.0993  0.0966  0.4992
   89MOL   C25733873   7.821   4.780   2.180 -0.4439 -0.9240 -0.0503
   89MOL   C25833874   7.862   4.756   2.310  0.0451  0.3077 -0.1691
   89MOL   C25933875   7.879   4.626   2.361 -0.0367 -0.2559  0.2185
   89MOL   H26033876   7.819   3.916   2.305  0.2411  0.7394  3.3988
   89MOL   H26133877   7.918   4.119   2.393 -0.7539 -1.2129 -0.1361
   89MOL   H26233878   7.719   4.262   2.206 -0.0421 -3.2345 -1.6523
   89MOL   H26333879   7.880   4.259   2.157 -2.9256  0.5865 -1.4489
   89MOL   H26433880   7.762   4.461   2.079 -0.0427  1.3054 -0.0136
   89MOL   H26533881   7.713   4.701   2.021  1.5886  2.3663  0.1601
   89MOL   H26633882   7.796   4.883   2.162 -2.0349 -0.9704  1.7650
   89MOL   H26733883   7.867   4.839   2.378 -0.6007 -0.1613  0.4499
   89MOL   C26833884   7.916   4.600   2.508  0.2171  0.4038 -0.1161
   89MOL   C26933885   8.053   4.561   2.544 -0.7037  0.0293 -0.0060
   89MOL   O27033886   8.007   4.699   2.566  0.0693 -0.1440  0.1315
   89MOL   C27133887   8.168   4.552   2.443 -0.4014 -0.0075  0.2940
   89MOL   O27233888   0.112   4.487   2.505  0.8557  0.3166 -0.1500
   89MOL   C27333889   0.119   4.357   2.520 -0.7852  0.6972 -0.2362
   89MOL   C27433890   0.025   4.262   2.475 -0.2967 -0.0811 -0.1558
   89MOL   C27533891   0.038   4.128   2.505 -0.0541  0.2201 -0.3184
   89MOL   C27633892   0.149   4.084   2.582 -0.5194  0.0634 -0.6461
   89MOL   C27733893   0.233   4.175   2.640 -0.1825  0.5426  0.7669
   89MOL   C27833894   0.221   4.310   2.598  0.2217 -0.6166  0.8498
   89MOL   H27933895   7.826   4.595   2.569 -1.4566 -0.3848 -2.5705
   89MOL   H28033896   8.045   4.508   2.638  0.1150 -2.9541 -1.5610
   89MOL   H28133897   0.033   4.649   2.409  0.7098 -0.5427 -0.1470
   89MOL   H28233898   8.142   4.488   2.358  1.8396 -2.0246  1.0587
   89MOL   H28333899   8.104   4.282   2.419 -0.3130 -0.8531 -0.4144
   89MOL   H28433900   8.130   4.062   2.469 -0.2604  1.0984 -1.5093
   89MOL   H28533901   0.156   3.980   2.608  3.1615  0.4789  0.2440
   89MOL   H28633902   0.308   4.142   2.711  1.0126 -1.3613 -1.3231
   89MOL   C28733903   0.324   4.413   2.645  0.9402  0.1884  0.4195
   89MOL   C28833904   0.319   4.491   2.779  0.0624 -0.2684  0.3877
   89MOL   O28933905   0.391   4.368   2.775 -0.2660 -0.2348 -0.0425
   89MOL   C29033906   0.205   4.483   2.880  0.0871  0.4340 -0.1658
   89MOL   O29133907   0.264   4.473   3.009 -0.3034  0.0957  0.1462
   89MOL   C29233908   0.228   4.560   3.111  0.2752  0.6072  0.1811
   89MOL   C29333909   0.108   4.642   3.103  0.1000 -0.3849 -0.1429
   89MOL   C29433910   0.081   4.740   3.198  0.4247 -0.3754  0.3734
   89MOL   C29533911   0.170   4.766   3.303  0.9747  0.8368  0.2263
   89MOL   C29633912   0.289   4.685   3.309  0.1509  0.1012 -0.6087
   89MOL   C29733913   0.316   4.576   3.219 -0.1887 -0.0048  0.1641
   89MOL   H29833914   0.383   4.456   2.564  0.4699 -0.6710 -0.3963
   89MOL   H29933915   0.384   4.578   2.779  1.2510 -1.1396  0.1983
   89MOL   H30033916   0.136   4.401   2.860  0.9086 -0.4625  0.6049
   89MOL   H30133917   0.151   4.578   2.870  0.0447  0.5156  0.7422
   89MOL   H30233918   0.031   4.639   3.028 -0.1322 -0.7513  0.1103
   89MOL   H30333919   8.164   4.802   3.183 -0.6268 -1.6945  0.8951
   89MOL   H30433920   0.154   4.840   3.380  1.0738  0.5060  0.5676
   89MOL   H30533921   0.361   4.703   3.387 -1.4204  0.5210  0.7713
   89MOL   C30633922   0.449   4.500   3.220  0.6105 -0.4328 -0.1300
   89MOL   C30733923   0.577   4.542   3.143 -0.3984 -0.1662  0.8582
   89MOL   O30833924   0.554   4.578   3.277  0.4982 -0.2040 -0.3922
   89MOL   C30933925   0.588   4.663   3.042 -0.1298  0.2291 -0.0469
   89MOL   O31033926   0.717   4.722   3.022 -0.4056  0.2232 -0.0418
   89MOL   C31133927   0.819   4.642   2.978  0.7406 -0.2657 -0.7982
   89MOL   C31233928   0.795   4.515   2.921 -0.0566  0.1029 -0.6061
   89MOL   C31333929   0.901   4.435   2.886  0.5099 -0.4172 -0.1220
   89MOL   C31433930   1.034   4.476   2.910 -0.3269 -0.2401  0.7479
   89MOL   C31533931   1.064   4.608   2.969 -0.0892  0.5598  0.3464
   89MOL   C31633932   0.949   4.683   3.007  0.1385  0.5382 -0.1011
   89MOL   H31733933   0.442   4.405   3.272  0.8137  0.4179  1.4879
   89MOL   H31833934   0.665   4.477   3.146 -0.4562 -0.3227 -0.6531
   89MOL   H31933935   0.523   4.743   3.078  0.1075 -0.6791  2.5077
   89MOL   H32033936   0.530   4.635   2.954 -0.7087 -0.0958  0.4311
   89MOL   H32133937   0.696   4.476   2.903 -0.2008  0.2492 -0.1576
   89MOL   H32233938   0.882   4.336   2.845 -0.1081 -1.3260  2.2630
   89MOL   H32333939   1.116   4.412   2.880 -1.6022 -0.6548 -2.0135
   89MOL   H32433940   1.163   4.645   2.991  0.3129 -0.0623 -0.3659
   89MOL   C32533941   0.972   4.816   3.076 -0.7107  1.2259 -0.7900
   89MOL   C32633942   0.978   4.832   3.225  0.6368 -0.3617  0.2930
   89MOL   O32733943   1.099   4.843   3.146 -0.4391  0.2823  0.0520
   89MOL   C32833944   0.963   4.702   3.304  0.1215 -0.2548 -0.1014
   89MOL   O32933945   0.978   4.739   3.441 -0.5474  0.0679 -0.7283
   89MOL   C33033946   0.925   4.662   3.543 -0.6535 -0.9207  0.1800
   89MOL   C33133947   0.949   4.524   3.541  0.2167  1.0432 -0.7921
   89MOL   C33233948   0.889   4.439   3.641 -0.4401  0.1051 -0.4680
   89MOL   C33333949   0.815   4.505   3.745 -0.1711  1.1130 -0.8965
   89MOL   C33433950   0.794   4.646   3.748 -0.0983  0.0851 -0.0527
   89MOL   C33533951   0.848   4.721   3.638 -0.6503 -0.0575 -0.7342
   89MOL   H33633952   0.934   4.901   3.020 -1.8387  0.7846 -0.7094
   89MOL   H33733953   0.932   4.924   3.259 -0.2776 -0.7296  0.0791
   89MOL   H33833954   1.043   4.630   3.285 -2.4557 -3.4321  0.5963
   89MOL   H33933955   0.873   4.645   3.282  1.7820 -1.4895 -4.2199
   89MOL   H34033956   1.020   4.477   3.474 -1.8032 -2.0013 -0.8873
   89MOL   H34133957   0.901   4.331   3.648  1.4755  0.4598  2.4641
   89MOL   H34233958   0.777   4.446   3.827  0.2614  1.7473 -0.2269
   89MOL   H34333959   0.740   4.682   3.834 -0.8044 -0.1205 -0.4092
   89MOL   C34433960   0.831   4.871   3.628 -0.4131  0.1871 -0.1514
   89MOL   C34533961   0.740   4.934   3.526 -0.1768  0.0344 -0.1644
   89MOL   O34633962   0.707   4.921   3.670  0.2715 -0.1364  0.7361
   89MOL   C34733963   0.657   4.857   3.427  0.1949  0.1277  0.0075
   89MOL   O34833964   0.591   4.940   3.339  0.2186  0.1612  0.1906
   89MOL   C34933965   0.473   4.988   3.384  0.3689  0.0418 -0.5050
   89MOL   C35033966   0.413   4.961   3.509 -0.4530 -0.3540  0.2707
   89MOL   C35133967   0.288   5.023   3.540 -0.1285  0.1676 -0.6815
   89MOL   C35233968   0.221   5.098   3.443  0.4799  0.3680  0.2547
   89MOL   C35333969   0.277   5.127   3.323  0.6601  0.2974  0.5041
   89MOL   C35433970   0.403   5.070   3.292 -0.2464 -0.4533 -0.4844
   89MOL   H35533971   0.917   4.916   3.676  0.2610  1.0244 -2.1065
   89MOL   H35633972   0.790   5.025   3.494  0.3499  0.4652  1.8255
   89MOL   H35733973   0.597   4.784   3.482  1.6926 -1.4626 -0.4128
   89MOL   H35833974   0.721   4.809   3.352 -1.0007  0.1002 -1.0049
   89MOL   H35933975   0.454   4.902   3.589  2.5218  0.3647 -0.6508
   89MOL   H36033976   0.241   5.002   3.635 -0.5342  2.0675 -0.4472
   89MOL   H36133977   0.124   5.138   3.470  0.6642  0.8999  0.1422
   89MOL   H36233978   0.219   5.191   3.258 -3.0898 -1.3191  2.1085
   89MOL   C36333979   0.476   5.104   3.163 -0.8153  0.2485 -0.0849
   89MOL   C36433980   0.422   5.057   3.032 -0.3793 -0.9046 -0.1925
   89MOL   O36533981   0.400   5.192   3.077  0.0523  0.1695  0.0921
   89MOL   C36633982   0.298   4.971   3.028 -0.1189  1.0373  0.3491
   89MOL   O36733983   0.296   4.890   2.914 -0.1630  0.3425  0.4213
   89MOL   C36833984   0.231   4.941   2.805  0.1475 -0.0279 -0.0898
   89MOL   C36933985   0.224   5.080   2.777 -0.0491 -0.1154  1.0271
   89MOL   C37033986   0.159   5.127   2.658  0.0569  0.2261 -0.5281
   89MOL   C37133987   0.101   5.037   2.571 -0.0748  0.7661  0.0269
   89MOL   C37233988   0.112   4.897   2.592 -0.8862 -0.2526  0.5464
   89MOL   C37333989   0.171   4.849   2.710  0.1578  0.4328 -0.4943
   89MOL   H37433990   0.579   5.140   3.166 -0.4619 -0.7595 -0.0049
   89MOL   H37533991   0.497   5.055   2.954  0.1509  0.4084  0.2649
   89MOL   H37633992   0.216   5.039   3.049 -0.7457  1.3308 -2.9134
   89MOL   H37733993   0.317   4.912   3.118  3.1850  3.4505  1.3495
   89MOL   H37833994   0.264   5.157   2.842  2.7825  0.0669 -0.8259
   89MOL   H37933995   0.153   5.232   2.635 -0.3805  0.1853 -0.6038
   89MOL   H38033996   0.043   5.073   2.488  0.9540  0.9359 -0.6264
   89MOL   H38133997   0.066   4.828   2.523 -0.5775 -1.4820  1.5586
   89MOL   H38233998   0.184   4.744   2.731  1.9456  0.6536 -0.3793
   90MOL     C133999   5.437   5.022   4.086 -0.2200  0.5194 -0.2790
   90MOL     C234000   5.411   5.165   4.088 -0.5889  0.4740 -0.1726
   90MOL     O334001   5.545   5.114   4.105 -0.1684 -0.2600  0.3615
   90MOL     C434002   5.338   5.227   4.212 -0.3058 -0.0327  0.0439
   90MOL     O534003   5.219   5.147   4.220  0.3107  0.2136  0.6593
   90MOL     C634004   5.103   5.212   4.273 -0.3404 -0.3448 -0.6791
   90MOL     C734005   5.115   5.315   4.370 -0.3755  0.2384  0.2130
   90MOL     C834006   4.999   5.372   4.433  0.4850  0.0768 -0.1023
   90MOL     C934007   4.874   5.328   4.384 -0.3106  0.4696 -0.5116
   90MOL    C1034008   4.861   5.225   4.285  0.5189 -0.0992 -0.0765
   90MOL    C1134009   4.976   5.169   4.225  0.2612 -0.6414  0.7654
   90MOL    H1234010   5.453   4.977   3.988  0.9476 -1.7922  0.9193
   90MOL    H1334011   5.399   5.216   3.993  0.2889  0.9220 -0.0460
   90MOL    H1434012   5.315   5.328   4.177  2.2187  0.0269 -1.5195
   90MOL    H1534013   5.396   5.225   4.304 -0.0386 -0.2025 -0.1270
   90MOL    H1634014   5.211   5.354   4.402 -0.5108  0.2826  0.5660
   90MOL    H1734015   5.016   5.439   4.516 -0.3972 -0.4526  0.5161
   90MOL    H1834016   4.787   5.371   4.431 -0.4946 -0.7967  0.3344
   90MOL    H1934017   4.763   5.198   4.248  0.4183  0.2682 -0.0832
   90MOL    H2034018   5.407   4.954   4.165 -0.9878 -0.7499 -1.6228
   90MOL    C2134019   4.961   5.068   4.112  0.3414  0.3906  0.6742
   90MOL    C2234020   4.997   4.921   4.130 -0.8520  0.1506  0.1240
   90MOL    O2334021   4.860   4.972   4.136  0.2170  0.3051 -0.4079
   90MOL    C2434022   5.054   4.864   4.259  0.2796  0.0071  0.0219
   90MOL    O2534023   5.040   4.721   4.273  0.0254 -0.3526  0.6756
   90MOL    C2634024   5.134   4.634   4.222 -0.5892 -0.0720  0.1305
   90MOL    C2734025   5.226   4.668   4.122 -0.1674  0.3032  0.4310
   90MOL    C2834026   5.326   4.576   4.084  0.0115  0.2323 -0.0311
   90MOL    C2934027   5.330   4.446   4.136 -0.7156 -0.2208  0.4056
   90MOL    C3034028   5.237   4.413   4.239  0.2007  0.2177 -0.5319
   90MOL    C3134029   5.139   4.504   4.275  0.0871 -0.7647 -1.1626
   90MOL    H3234030   4.948   5.106   4.011 -0.7004 -0.5369  0.4411
   90MOL    H3334031   5.022   4.868   4.038  1.1399  0.2644  0.5797
   90MOL    H3434032   5.001   4.920   4.336  0.7839  2.5454 -1.4342
   90MOL    H3534033   5.160   4.888   4.262 -0.0574  1.5374 -0.2533
   90MOL    H3634034   5.223   4.768   4.079  1.1878  0.8688  1.6082
   90MOL    H3734035   5.397   4.608   4.010 -0.5243  1.9409  0.1747
   90MOL    H3834036   5.410   4.377   4.111  1.8465  2.0518  2.0056
   90MOL    H3934037   5.244   4.311   4.272  0.3295  0.8967  1.6483
   90MOL    C4034038   5.035   4.479   4.374  0.5107  0.6604 -0.5473
   90MOL    C4134039   4.936   4.365   4.364  0.4290  0.7070  0.2115
   90MOL    O4234040   5.063   4.349   4.429 -0.3624 -0.1177  0.2077
   90MOL    C4334041   4.921   4.289   4.242 -0.5617  0.1913 -0.2344
   90MOL    O4434042   4.836   4.175   4.246 -0.8771 -0.0536  0.3380
   90MOL    C4534043   4.775   4.156   4.128 -0.1782  0.1529  0.4007
   90MOL    C4634044   4.826   4.192   3.997 -0.3184 -0.2980 -0.7063
   90MOL    C4734045   4.760   4.138   3.891  0.7862 -0.5210  0.9790
   90MOL    C4834046   4.630   4.090   3.903 -0.4590 -0.0216  0.8317
   90MOL    C4934047   4.576   4.052   4.027 -0.0996 -0.1214  0.2675
   90MOL    C5034048   4.648   4.092   4.143  0.4448 -0.3534  0.1185
   90MOL    H5134049   5.017   4.556   4.449 -1.8462  0.7252 -1.1373
   90MOL    H5234050   4.854   4.359   4.435  0.0492  1.4112 -0.1660
   90MOL    H5334051   5.022   4.258   4.214  0.3667  1.1874  1.9045
   90MOL    H5434052   4.880   4.364   4.175  0.2253  1.5158  0.7506
   90MOL    H5534053   4.910   4.259   3.980 -1.5625  2.1094  2.1047
   90MOL    H5634054   4.807   4.152   3.795 -1.7085 -0.6841 -0.3190
   90MOL    H5734055   4.571   4.067   3.815  2.4288 -0.2916 -1.1214
   90MOL    H5834056   4.478   4.010   4.044 -0.6260  0.8545 -0.3230
   90MOL    C5934057   4.598   4.048   4.274 -0.2133  0.5935 -0.6507
   90MOL    C6034058   4.546   4.155   4.357  0.3265  0.1790 -0.5148
   90MOL    O6134059   4.455   4.066   4.291 -0.0865  0.7962 -0.5147
   90MOL    C6234060   4.530   4.295   4.318  0.6173 -0.3462  0.1343
   90MOL    O6334061   4.446   4.358   4.420 -0.5905 -0.3534 -0.2655
   90MOL    C6434062   4.363   4.450   4.360 -0.2436  0.2501 -0.6103
   90MOL    C6534063   4.396   4.588   4.374  0.5521 -1.3411  0.0738
   90MOL    C6634064   4.318   4.695   4.322  0.4540  0.2112  0.4217
   90MOL    C6734065   4.193   4.661   4.262 -0.1742 -0.3223  0.4752
   90MOL    C6834066   4.161   4.524   4.244  0.3554  0.1677  0.1375
   90MOL    C6934067   4.245   4.413   4.288 -0.3493  0.5027 -0.0458
   90MOL    H7034068   4.651   3.968   4.325 -0.1797  0.0035 -1.5986
   90MOL    H7134069   4.559   4.144   4.465  1.0016  1.3217 -0.4667
   90MOL    H7234070   4.497   4.306   4.215 -1.6464 -0.5455  0.8026
   90MOL    H7334071   4.624   4.351   4.319  0.7430 -0.5451 -0.4470
   90MOL    H7434072   4.488   4.613   4.425  0.9392  1.1921 -1.7189
   90MOL    H7534073   4.350   4.798   4.329 -0.3724  0.5510 -0.6866
   90MOL    H7634074   4.115   4.729   4.231 -0.5151 -0.7689  0.3505
   90MOL    H7734075   4.067   4.494   4.201  0.0475 -0.9491  1.5690
   90MOL    C7834076   4.213   4.272   4.266  0.3627 -0.9559  0.3847
   90MOL    C7934077   4.170   4.177   4.375 -0.3091 -0.0178  0.3535
   90MOL    O8034078   4.075   4.245   4.295 -0.3056 -0.1040 -0.6430
   90MOL    C8134079   4.175   4.216   4.521 -0.4771  0.1873 -0.2729
   90MOL    O8234080   4.146   4.103   4.601  0.1832  0.3777  0.3526
   90MOL    C8334081   4.240   4.037   4.683 -0.0542  0.5830 -0.6482
   90MOL    C8434082   4.375   4.079   4.695 -0.3453 -0.7237 -0.5601
   90MOL    C8534083   4.469   4.002   4.763  0.0439  0.4148 -0.0950
   90MOL    C8634084   4.429   3.883   4.831 -0.0700 -0.0043  0.3166
   90MOL    C8734085   4.292   3.843   4.830  0.1252  0.0875 -0.6978
   90MOL    C8834086   4.201   3.915   4.748  0.0209 -0.2944  0.0059
   90MOL    H8934087   4.250   4.236   4.171 -2.4596  0.4484 -1.3211
   90MOL    H9034088   4.185   4.071   4.355  2.4938  0.0466  1.7920
   90MOL    H9134089   4.099   4.289   4.549  1.4510  1.6767  1.1432
   90MOL    H9234090   4.265   4.269   4.551  1.6560 -3.3912 -0.1218
   90MOL    H9334091   4.418   4.166   4.646 -0.5095 -0.8048 -0.8531
   90MOL    H9434092   4.573   4.030   4.760  0.4995 -1.2749 -1.4513
   90MOL    H9534093   4.497   3.829   4.895  1.1372  1.3178  0.1815
   90MOL    H9634094   4.255   3.754   4.878  3.2039 -0.6578  0.3737
   90MOL    C9734095   4.066   3.856   4.744 -0.3268 -0.0587  0.1634
   90MOL    C9834096   4.003   3.802   4.609  0.5708  0.1738  0.2159
   90MOL    O9934097   4.056   3.722   4.717  0.0177 -0.2178  0.0956
   90MOL   C10034098   4.076   3.778   4.480 -0.2747  0.1712  0.1635
   90MOL   O10134099   3.999   3.687   4.401 -0.5171 -0.5295  0.2393
   90MOL   C10234100   4.055   3.592   4.320 -0.0848 -0.1569 -0.6765
   90MOL   C10334101   4.180   3.600   4.252  0.0205 -0.4619  1.0795
   90MOL   C10434102   4.223   3.499   4.167 -0.2884  0.2094  0.0077
   90MOL   C10534103   4.145   3.389   4.140  0.0678 -0.0776  0.3707
   90MOL   C10634104   4.024   3.378   4.215 -0.0494 -0.6690  0.6879
   90MOL   C10734105   3.973   3.481   4.301  0.0983  0.2063 -0.0710
   90MOL   H10834106   3.992   3.905   4.806 -0.4322  2.6222 -1.9613
   90MOL   H10934107   3.895   3.816   4.602  0.8546  2.6427  0.2947
   90MOL   H11034108   4.173   3.734   4.506 -0.0506 -0.4055 -1.5300
   90MOL   H11134109   4.089   3.869   4.421 -1.4071 -1.5304 -2.8316
   90MOL   H11234110   4.248   3.676   4.288  0.9237 -0.9071  0.3594
   90MOL   H11334111   4.321   3.504   4.120 -1.2928 -1.8968 -2.4612
   90MOL   H11434112   4.187   3.307   4.083 -0.0648 -1.1684  1.8342
   90MOL   H11534113   3.971   3.285   4.205 -0.2642 -0.4454 -0.3847
   90MOL   C11634114   3.842   3.467   4.366  0.3411  1.5911  0.2906
   90MOL   C11734115   3.719   3.541   4.340 -1.1273 -0.4022  0.6718
   90MOL   O11834116   3.735   3.413   4.276  0.1316  0.0105 -0.0282
   90MOL   C11934117   3.714   3.657   4.244  0.4031 -0.3091  0.5682
   90MOL   O12034118   3.580   3.673   4.192  0.2592  0.0976 -0.0371
   90MOL   C12134119   3.553   3.780   4.108  0.3432  0.1896  0.2760
   90MOL   C12234120   3.654   3.872   4.072  0.5607 -0.0873 -0.8695
   90MOL   C12334121   3.625   3.991   4.013  0.5751  0.0260  0.7824
   90MOL   C12434122   3.492   4.027   3.980  0.3039  0.0592  0.4986
   90MOL   C12534123   3.391   3.929   3.997 -0.1289  0.5714 -0.2097
   90MOL   C12634124   3.419   3.809   4.061 -0.3383  0.3054 -0.9034
   90MOL   H12734125   3.850   3.430   4.468 -0.6563  2.1961  0.5964
   90MOL   H12834126   3.641   3.539   4.415 -0.1523 -2.7365  1.6648
   90MOL   H12934127   3.781   3.629   4.162  0.2170 -1.2289  0.7252
   90MOL   H13034128   3.748   3.747   4.296  0.6648  0.3711 -0.7625
   90MOL   H13134129   3.757   3.863   4.102  0.6858 -2.1696 -1.8324
   90MOL   H13234130   3.705   4.063   4.004  0.7628 -0.2226  0.4922
   90MOL   H13334131   3.462   4.123   3.941  1.7360 -0.1810 -1.2970
   90MOL   H13434132   3.287   3.949   3.975 -1.2141 -0.4995  3.5078
   90MOL   C13534133   3.318   3.694   4.089  0.6449 -0.2284 -0.0587
   90MOL   C13634134   3.208   3.695   4.197 -0.3678 -0.3048 -0.5635
   90MOL   O13734135   3.182   3.727   4.058 -0.0458 -0.3849 -0.0885
   90MOL   C13834136   3.200   3.811   4.300 -0.3766 -0.8031  0.4505
   90MOL   O13934137   3.093   3.787   4.382  0.4270  0.0544 -0.1429
   90MOL   C14034138   3.091   3.681   4.475 -0.4235 -0.0961 -0.0848
   90MOL   C14134139   3.195   3.592   4.499  0.2276 -0.4450  0.9664
   90MOL   C14234140   3.187   3.485   4.587  0.0605  0.4669  0.1776
   90MOL   C14334141   3.063   3.459   4.647  0.1682  0.3472  0.1398
   90MOL   C14434142   2.952   3.542   4.624  0.6786  0.1320  0.4927
   90MOL   C14534143   2.966   3.658   4.539  0.2141 -0.3975  0.2995
   90MOL   H14634144   3.356   3.604   4.042  1.0574 -1.2552  2.1648
   90MOL   H14734145   3.174   3.597   4.231 -1.7211 -0.4544 -2.2516
   90MOL   H14834146   3.191   3.904   4.244 -0.8038 -1.4275 -0.5292
   90MOL   H14934147   3.292   3.810   4.359 -0.6682  0.6267  0.9630
   90MOL   H15034148   3.283   3.599   4.436  0.1292 -0.7063  0.8011
   90MOL   H15134149   3.272   3.421   4.602 -2.4366 -3.0635 -0.2571
   90MOL   H15234150   3.053   3.384   4.724 -0.4566  1.6519  1.3701
   90MOL   H15334151   2.858   3.512   4.668  0.4018 -1.3064 -1.0094
   90MOL   C15434152   2.849   3.748   4.509 -0.2861  0.1206  0.3969
   90MOL   C15534153   2.745   3.722   4.400  0.7070  0.0655  0.0436
   90MOL   O15634154   2.720   3.682   4.532  0.6748  1.0182  0.3177
   90MOL   C15734155   2.762   3.617   4.289 -0.0301  0.4226  0.5395
   90MOL   O15834156   2.678   3.645   4.175  0.3433 -0.7297 -0.0176
   90MOL   C15934157   2.550   3.591   4.168 -0.2038 -0.6772 -0.4045
   90MOL   C16034158   2.485   3.522   4.277 -0.0090 -0.2847 -0.6972
   90MOL   C16134159   2.358   3.465   4.258 -0.2677 -0.2446 -0.0035
   90MOL   C16234160   2.289   3.468   4.135  0.2012  1.0023  0.7111
   90MOL   C16334161   2.359   3.533   4.033  0.0671  0.0100  0.3139
   90MOL   C16434162   2.488   3.599   4.044  0.3566  0.9558  0.5464
   90MOL   H16534163   2.857   3.841   4.565  3.7777  0.9980 -1.4721
   90MOL   H16634164   2.697   3.814   4.366 -1.0328  0.0017  2.2032
   90MOL   H16734165   2.754   3.515   4.325 -0.2182  0.6865  1.2488
   90MOL   H16834166   2.862   3.640   4.251  0.0279 -0.6431  0.0229
   90MOL   H16934167   2.530   3.520   4.375 -1.4694  1.3909  0.0341
   90MOL   H17034168   2.304   3.434   4.346 -1.7415 -2.1814 -1.5440
   90MOL   H17134169   2.193   3.423   4.117  0.8879  0.3118 -1.3206
   90MOL   H17234170   2.314   3.542   3.936  0.8876 -0.0929 -0.0823
   90MOL   C17334171   2.545   3.684   3.935 -0.0345  0.5709 -0.0834
   90MOL   C17434172   2.665   3.638   3.856  0.0400 -0.3793  0.9368
   90MOL   O17534173   2.538   3.610   3.810  0.2236 -0.1309 -0.6065
   90MOL   C17634174   2.750   3.514   3.884  0.0082  0.0219 -0.0776
   90MOL   O17734175   2.863   3.512   3.805 -0.2827 -0.3359 -0.8443
   90MOL   C17834176   2.860   3.457   3.678  0.1010  0.1604  0.2297
   90MOL   C17934177   2.739   3.436   3.607 -0.3700  0.0941 -0.7414
   90MOL   C18034178   2.742   3.361   3.492 -0.8195 -0.2285  0.1577
   90MOL   C18134179   2.864   3.314   3.434  0.2154 -0.0596 -0.3970
   90MOL   C18234180   2.985   3.334   3.508  1.2760  0.4816  0.1687
   90MOL   C18334181   2.981   3.412   3.626 -0.1946 -0.6120 -0.0494
   90MOL   H18434182   2.510   3.787   3.935 -0.6277  0.3880 -2.4502
   90MOL   H18534183   2.721   3.720   3.811 -0.4331 -1.0961 -0.9901
   90MOL   H18634184   2.694   3.421   3.890 -1.5366  1.0027  1.4281
   90MOL   H18734185   2.786   3.536   3.985 -0.9067  0.9898  0.0566
   90MOL   H18834186   2.645   3.468   3.648 -0.0238  0.5173 -0.2698
   90MOL   H18934187   2.657   3.327   3.434 -0.7208 -1.9716  1.0085
   90MOL   H19034188   2.865   3.263   3.339  0.5699 -1.5438  0.3950
   90MOL   H19134189   3.077   3.293   3.471  1.9753  0.6312  1.6953
   90MOL   C19234190   3.108   3.450   3.686 -0.3601 -0.2880  0.5770
   90MOL   C19334191   3.174   3.377   3.800  0.0401  0.5062 -0.3967
   90MOL   O19434192   3.219   3.351   3.666  0.3829  0.1236  0.9305
   90MOL   C19534193   3.115   3.256   3.865 -0.3073 -0.4017  0.0042
   90MOL   O19634194   3.210   3.191   3.952 -0.2983  0.1228  0.2381
   90MOL   C19734195   3.186   3.204   4.084  0.2571 -0.4174  0.2652
   90MOL   C19834196   3.113   3.312   4.146  0.0694 -0.0618 -0.0623
   90MOL   C19934197   3.095   3.311   4.285 -0.3859  0.8163 -0.3694
   90MOL   C20034198   3.138   3.206   4.364  0.1831  0.6507  0.0359
   90MOL   C20134199   3.205   3.097   4.308  0.2364  0.4259  0.2618
   90MOL   C20234200   3.233   3.096   4.167  0.0569 -0.1491 -0.5757
   90MOL   H20334201   3.135   3.550   3.653  1.2214 -0.6776  0.6328
   90MOL   H20434202   3.243   3.433   3.863 -1.6923  1.9046  0.2829
   90MOL   H20534203   3.098   3.184   3.785 -1.1766 -0.0935 -0.0915
   90MOL   H20634204   3.017   3.278   3.908  0.0643 -0.1399  0.7343
   90MOL   H20734205   3.068   3.389   4.084  1.1886 -0.0814 -0.9035
   90MOL   H20834206   3.058   3.401   4.333  0.0991  0.4626  0.6965
   90MOL   H20934207   3.110   3.205   4.468 -0.5702  1.9034 -0.1503
   90MOL   H21034208   3.240   3.019   4.374 -2.7534 -0.0174  1.4052
   90MOL   C21134209   3.293   2.968   4.104 -0.3053  0.4794  0.0800
   90MOL   C21234210   3.421   2.964   4.018  0.2700  0.1071 -0.7367
   90MOL   O21334211   3.414   2.941   4.164 -0.2269 -0.0558  0.0412
   90MOL   C21434212   3.509   3.079   3.985 -0.1602 -0.4220 -0.6025
   90MOL   O21534213   3.644   3.055   3.954  0.2570 -0.6221  0.4473
   90MOL   C21634214   3.737   3.031   4.059  0.4298  0.5839 -0.0003
   90MOL   C21734215   3.723   3.087   4.188  0.5597 -0.1331 -0.3087
   90MOL   C21834216   3.816   3.059   4.290  0.4070 -1.0976 -0.3918
   90MOL   C21934217   3.934   2.996   4.254  0.3463 -0.2598  0.3568
   90MOL   C22034218   3.958   2.952   4.121 -0.7287 -0.9867  0.0579
   90MOL   C22134219   3.855   2.964   4.027  0.0178 -0.2039  0.0397
   90MOL   H22234220   3.229   2.880   4.109  2.0103 -1.2619 -0.0678
   90MOL   H22334221   3.440   2.872   3.962 -0.8796 -0.5772 -0.0199
   90MOL   H22434222   3.507   3.160   4.058  0.6827  0.5580 -1.6381
   90MOL   H22534223   3.473   3.127   3.894 -1.9623  0.4571  0.5490
   90MOL   H22634224   3.632   3.131   4.225 -0.2346 -1.6647 -0.3918
   90MOL   H22734225   3.802   3.097   4.390 -0.3731 -1.0495 -0.5201
   90MOL   H22834226   4.005   2.980   4.333  0.4451  1.1192  0.5554
   90MOL   H22934227   4.051   2.907   4.089  0.3942  0.1475  1.6582
   90MOL   C23034228   3.867   2.899   3.896  0.3488 -0.2545  0.6222
   90MOL   C23134229   3.950   2.957   3.783 -0.0555  0.4209  0.1216
   90MOL   O23234230   3.995   2.853   3.865  0.2506  0.5308 -0.3109
   90MOL   C23334231   4.036   3.090   3.804  0.4222  0.6250 -0.3131
   90MOL   O23434232   4.169   3.061   3.748  0.1377  0.1952  1.0265
   90MOL   C23534233   4.264   3.154   3.754 -0.3556  0.5803 -0.3316
   90MOL   C23634234   4.238   3.288   3.799  0.2086  0.3786  0.1169
   90MOL   C23734235   4.351   3.376   3.821  0.5171 -0.0218  0.2978
   90MOL   C23834236   4.477   3.339   3.775 -0.1437 -0.2352 -0.1245
   90MOL   C23934237   4.502   3.213   3.718 -0.0293  0.0660  0.4614
   90MOL   C24034238   4.398   3.116   3.723 -0.3467  0.3002 -0.4588
   90MOL   H24134239   3.782   2.832   3.879  1.3084 -0.9913 -1.5155
   90MOL   H24234240   3.933   2.922   3.682 -1.2313 -0.9631  0.7772
   90MOL   H24334241   4.053   3.098   3.911 -2.3853 -0.0476  0.2255
   90MOL   H24434242   3.984   3.174   3.758  1.7637  2.7536  1.9320
   90MOL   H24534243   4.135   3.313   3.818 -0.5334 -1.4726 -1.3588
   90MOL   H24634244   4.321   3.476   3.850 -0.6524  0.0308 -1.0028
   90MOL   H24734245   4.564   3.404   3.778  0.7194 -1.4450  1.1005
   90MOL   H24834246   4.602   3.180   3.694 -0.0787  0.9325 -1.0122
   90MOL   C24934247   4.428   2.978   3.673 -0.2664 -0.2451  0.2807
   90MOL   C25034248   4.414   2.922   3.536 -1.2068 -0.3760 -0.5361
   90MOL   O25134249   4.538   2.974   3.585  0.2020  0.2164 -0.1473
   90MOL   C25234250   4.349   2.992   3.419  0.9668  0.0819 -0.0612
   90MOL   O25334251   4.316   2.908   3.304 -0.2619 -0.6775  0.0678
   90MOL   C25434252   4.198   2.847   3.297 -0.0310 -0.0479 -0.7295
   90MOL   C25534253   4.117   2.800   3.403  0.6331  0.7466 -0.1110
   90MOL   C25634254   4.004   2.713   3.376 -0.0303  0.2446 -0.0082
   90MOL   C25734255   3.967   2.678   3.242 -0.6762  0.4494 -0.0648
   90MOL   C25834256   4.053   2.726   3.139  0.2083 -0.0486 -0.1000
   90MOL   C25934257   4.164   2.806   3.165  0.2492 -0.9079  0.2697
   90MOL   H26034258   4.413   2.901   3.747  0.0494 -1.0087 -0.4460
   90MOL   H26134259   4.412   2.815   3.522 -1.0824 -0.6593  1.4141
   90MOL   H26234260   4.418   3.070   3.387  0.9033 -0.4556 -1.5240
   90MOL   H26334261   4.263   3.043   3.463  1.3538  1.1193 -0.5095
   90MOL   H26434262   4.141   2.809   3.508 -0.4636  1.5301  0.0696
   90MOL   H26534263   3.928   2.690   3.449 -0.4312  0.3462 -0.3840
   90MOL   H26634264   3.880   2.616   3.226 -0.6434 -0.0994  1.6957
   90MOL   H26734265   4.029   2.695   3.039 -1.9000 -2.1919  1.0085
   90MOL   C26834266   4.246   2.866   3.055 -0.5123 -0.1607 -0.2711
   90MOL   C26934267   4.381   2.805   3.012 -0.1605 -0.1635 -0.0156
   90MOL   O27034268   4.262   2.780   2.941  0.1883 -0.3688 -0.2338
   90MOL   C27134269   4.450   2.683   3.064 -0.2698 -0.0675 -0.1519
   90MOL   O27234270   4.593   2.697   3.054  0.1330  0.1666  0.1978
   90MOL   C27334271   4.654   2.681   2.934  0.1435 -0.1269  0.0092
   90MOL   C27434272   4.586   2.662   2.813 -0.4228 -0.0830  0.4349
   90MOL   C27534273   4.654   2.635   2.695  0.0035 -0.0175  0.6171
   90MOL   C27634274   4.795   2.625   2.690 -0.1855  0.4715  0.1523
   90MOL   C27734275   4.865   2.643   2.813 -0.1250  1.4802  0.4352
   90MOL   C27834276   4.797   2.670   2.933  0.0648 -0.1823  0.4058
   90MOL   H27934277   4.218   2.967   3.026 -3.7889 -0.1215  2.6470
   90MOL   H28034278   4.441   2.884   2.967 -0.5554 -0.6475 -1.4310
   90MOL   H28134279   4.412   2.587   3.028 -1.0531  0.3241 -0.3832
   90MOL   H28234280   4.439   2.673   3.172  1.3182 -0.0291  0.0140
   90MOL   H28334281   4.478   2.659   2.814 -0.4216 -1.3672 -0.6876
   90MOL   H28434282   4.609   2.625   2.597  0.1579 -0.8078  0.6206
   90MOL   H28534283   4.850   2.610   2.598  1.1212  0.5020  0.9123
   90MOL   H28634284   4.972   2.636   2.813 -0.1141  1.6645 -0.7356
   90MOL   C28734285   4.882   2.710   3.051 -0.1250  0.5544  0.4086
   90MOL   C28834286   4.889   2.630   3.178  0.5522 -0.3714  0.0884
   90MOL   O28934287   4.988   2.616   3.077  0.2938 -0.5764  0.2834
   90MOL   C29034288   4.818   2.498   3.219 -0.7202 -0.4273  0.3655
   90MOL   O29134289   4.768   2.423   3.108  0.2644 -0.6595 -0.2164
   90MOL   C29234290   4.687   2.312   3.135  0.3999 -0.6935 -0.9187
   90MOL   C29334291   4.663   2.257   3.261  0.0120 -0.1366 -0.3922
   90MOL   C29434292   4.581   2.145   3.274 -0.2381  0.5357  0.0783
   90MOL   C29534293   4.499   2.109   3.165 -0.2236 -0.2810  0.4214
   90MOL   C29634294   4.521   2.161   3.039 -0.3334 -0.1631  0.2276
   90MOL   C29734295   4.616   2.263   3.023  0.6760  0.7692 -0.5521
   90MOL   H29834296   4.918   2.812   3.044  0.1149  0.5764  1.8676
   90MOL   H29934297   4.922   2.686   3.266 -1.3316 -1.8658  1.7760
   90MOL   H30034298   4.742   2.521   3.294  0.6264 -2.2737  2.3623
   90MOL   H30134299   4.898   2.449   3.274 -1.0621 -2.9998 -1.3014
   90MOL   H30234300   4.730   2.290   3.339 -0.1787 -1.2561  0.2473
   90MOL   H30334301   4.573   2.092   3.368  1.6364 -1.7622 -1.0071
   90MOL   H30434302   4.420   2.036   3.170 -0.9340  0.3878 -0.6911
   90MOL   H30534303   4.469   2.122   2.953 -0.2006  0.2870 -0.0611
   90MOL   C30634304   4.643   2.317   2.887 -0.5405  0.3091  0.4574
   90MOL   C30734305   4.750   2.263   2.793 -0.1192 -0.3763  0.4911
   90MOL   O30834306   4.611   2.232   2.783 -0.5012  0.9902 -0.1784
   90MOL   C30934307   4.845   2.157   2.839  0.7827 -0.1307  0.8297
   90MOL   O31034308   4.860   2.048   2.741 -0.4051 -0.3988 -0.3086
   90MOL   C31134309   4.746   1.976   2.720  0.9036 -0.2010 -0.2504
   90MOL   C31234310   4.669   1.908   2.821 -0.4737  0.3366  0.0818
   90MOL   C31334311   4.553   1.830   2.790 -0.2518  0.0902  0.0947
   90MOL   C31434312   4.513   1.826   2.653  0.0509  0.2418  0.0360
   90MOL   C31534313   4.589   1.892   2.551 -0.3461 -0.3008 -0.0291
   90MOL   C31634314   4.696   1.967   2.589 -0.2219 -0.5939  0.5583
   90MOL   H31734315   4.596   2.414   2.872 -0.2246 -0.0475 -3.2160
   90MOL   H31834316   4.780   2.334   2.716  1.5334  0.1552  1.6105
   90MOL   H31934317   4.833   2.127   2.943 -1.7000 -1.2685  0.2513
   90MOL   H32034318   4.937   2.214   2.836 -0.4933  1.9576 -0.6736
   90MOL   H32134319   4.712   1.914   2.920  0.7847 -1.2691 -0.3436
   90MOL   H32234320   4.493   1.774   2.861  0.2637 -0.7059 -0.0894
   90MOL   H32334321   4.432   1.757   2.635  0.2378  0.1778 -0.5612
   90MOL   H32434322   4.554   1.887   2.449 -2.0069 -1.5758  0.5799
   90MOL   C32534323   4.769   2.043   2.486 -0.6459 -0.1683 -0.4747
   90MOL   C32634324   4.897   1.997   2.424 -0.0327 -0.1461  0.0260
   90MOL   O32734325   4.768   1.980   2.354 -0.1146  0.5668  0.4625
   90MOL   C32834326   4.964   1.863   2.453  0.3295  0.1854  0.0038
   90MOL   O32934327   5.085   1.858   2.382  0.3796  0.1771 -0.4367
   90MOL   C33034328   5.173   1.762   2.420  1.0755 -0.0008  0.1021
   90MOL   C33134329   5.174   1.699   2.546 -0.3288 -0.1198  0.2607
   90MOL   C33234330   5.252   1.587   2.577  0.3655  1.0353  0.4355
   90MOL   C33334331   5.350   1.541   2.480 -0.4829  0.7841  0.2473
   90MOL   C33434332   5.359   1.618   2.360 -0.7220 -0.5314  0.6064
   90MOL   C33534333   5.273   1.721   2.330  0.0863 -0.4529  0.1919
   90MOL   H33634334   4.743   2.148   2.494  0.1690 -0.1369  2.4654
   90MOL   H33734335   4.959   2.082   2.397 -1.0848 -0.0174 -2.0935
   90MOL   H33834336   4.904   1.779   2.418  3.6291 -1.4540 -1.9107
   90MOL   H33934337   4.972   1.846   2.560 -0.3422 -0.6599 -0.0747
   90MOL   H34034338   5.105   1.723   2.626  0.0619 -3.5450  1.7607
   90MOL   H34134339   5.235   1.528   2.665  0.6185  1.1856  0.5837
   90MOL   H34234340   5.405   1.450   2.498 -0.5167  1.0173  1.6362
   90MOL   H34334341   5.428   1.589   2.282  0.1165  3.3374 -0.2043
   90MOL   C34434342   5.284   1.781   2.199 -0.2690 -0.4127 -0.1826
   90MOL   C34534343   5.337   1.925   2.175  0.1885 -0.2364  0.0912
   90MOL   O34634344   5.424   1.811   2.171  0.5618  0.1828 -0.1109
   90MOL   C34734345   5.346   2.025   2.289  0.5037 -0.3227  0.8042
   90MOL   O34834346   5.436   2.132   2.258  0.1952  0.1735 -0.1054
   90MOL   C34934347   5.571   2.114   2.278  0.3354 -0.3808 -0.2593
   90MOL   C35034348   5.623   1.996   2.337  0.1613  0.0508  0.1909
   90MOL   C35134349   5.760   1.977   2.343  0.7010  0.4646  0.1827
   90MOL   C35234350   5.846   2.081   2.303  0.5243 -0.1455 -0.0871
   90MOL   C35334351   5.799   2.203   2.254 -0.2408  0.3143  0.1802
   90MOL   C35434352   5.658   2.219   2.245  0.1982  0.5958 -0.8231
   90MOL   H35534353   5.236   1.718   2.125  0.5054  0.8553 -1.7942
   90MOL   H35634354   5.311   1.961   2.076  0.9753 -1.7091 -0.6640
   90MOL   H35734355   5.347   1.984   2.390 -1.8357 -0.1339  0.9261
   90MOL   H35834356   5.256   2.086   2.277  0.2851 -1.1746 -2.3891
   90MOL   H35934357   5.555   1.918   2.368 -0.6816  0.7186  0.0654
   90MOL   H36034358   5.801   1.883   2.375  0.3285 -0.0910 -0.9490
   90MOL   H36134359   5.952   2.060   2.304  0.1333 -2.2884 -0.1229
   90MOL   H36234360   5.878   2.274   2.231  0.0232 -0.0944 -0.1905
   90MOL   C36334361   5.602   2.347   2.199  0.0870 -1.0701  0.0633
   90MOL   C36434362   5.544   2.451   2.290 -0.2307 -0.4554  0.4488
   90MOL   O36534363   5.676   2.468   2.237 -0.0037  0.0500  0.6188
   90MOL   C36634364   5.525   2.421   2.436 -0.3197  0.1918  0.3452
   90MOL   O36734365   5.427   2.498   2.504 -0.3859 -0.5332  0.2844
   90MOL   C36834366   5.298   2.456   2.513  0.2466 -0.0386 -0.4151
   90MOL   C36934367   5.226   2.410   2.394  0.7471  0.1362  0.3154
   90MOL   C37034368   5.091   2.370   2.401 -0.1929 -0.3367 -0.0783
   90MOL   C37134369   5.022   2.391   2.526 -1.4595  0.2323 -0.1201
   90MOL   C37234370   5.089   2.438   2.644 -0.4021  0.0710 -0.0613
   90MOL   C37334371   5.225   2.473   2.631 -0.3768  0.0877  0.0797
   90MOL   H37434372   5.572   2.346   2.095  1.5521 -0.9852 -0.3682
   90MOL   H37534373   5.473   2.522   2.247  0.4797 -0.8999 -1.5035
   90MOL   H37634374   5.621   2.428   2.488  0.1075  0.3768 -0.4668
   90MOL   H37734375   5.490   2.320   2.456 -0.5881  0.3252  0.5446
   90MOL   H37834376   5.281   2.400   2.302 -1.2166 -0.1857 -0.8421
   90MOL   H37934377   5.044   2.325   2.314  1.2680  1.1599 -1.6884
   90MOL   H38034378   4.920   2.355   2.527 -0.3844 -2.9525  2.8718
   90MOL   H38134379   5.040   2.440   2.740  0.1844 -1.6579  0.2972
   90MOL   H38234380   5.294   2.501   2.710  0.5010 -1.8231  0.0218
   91MOL     C134381   5.895   7.144   5.892 -1.0240  0.4398  0.3611
   91MOL     C234382   6.030   7.069   5.885  0.4859 -0.5250  0.6049
   91MOL     O334383   6.010   7.188   5.967 -0.1305 -0.1390 -0.0791
   91MOL     C434384   6.118   7.085   5.757 -0.1089 -0.0534  0.2017
   91MOL     O534385   6.051   7.031   5.643 -0.2657 -0.3199 -0.2177
   91MOL     C634386   6.086   6.908   5.593 -0.6436 -0.2781  0.0941
   91MOL     C734387   6.206   6.838   5.626  0.4752  0.2363  0.5341
   91MOL     C834388   6.230   6.709   5.575  0.0426  0.4330  0.2736
   91MOL     C934389   6.134   6.648   5.491 -0.1627  0.1741 -0.0138
   91MOL    C1034390   6.010   6.711   5.467  0.1456  0.1699 -0.4205
   91MOL    C1134391   5.993   6.843   5.511  0.4553  0.3761  0.4140
   91MOL    H1234392   5.811   7.102   5.947 -0.4849  2.2324  2.6523
   91MOL    H1334393   6.042   6.974   5.937  0.6824 -1.2998 -0.8406
   91MOL    H1434394   6.218   7.046   5.777 -0.8971 -2.7480 -0.9777
   91MOL    H1534395   6.134   7.192   5.744 -1.7347  0.1498 -0.1605
   91MOL    H1634396   6.287   6.888   5.677  0.9611  0.1359 -0.1376
   91MOL    H1734397   6.323   6.655   5.582  0.4627  0.5560 -3.2147
   91MOL    H1834398   6.155   6.547   5.461  1.5427  0.6508 -0.4765
   91MOL    H1934399   5.930   6.656   5.419  1.3598 -0.4069 -1.8162
   91MOL    H2034400   5.867   7.211   5.811  0.6467  1.6583  0.7686
   91MOL    C2134401   5.860   6.918   5.482 -0.2269  0.2465  0.0286
   91MOL    C2234402   5.832   6.997   5.358  0.0197  0.9581 -0.4725
   91MOL    O2334403   5.778   6.864   5.388  0.7344  0.3346 -0.7833
   91MOL    C2434404   5.901   6.983   5.226 -0.3671  0.6261  0.0020
   91MOL    O2534405   5.789   6.991   5.133 -0.4943  0.2049 -0.0121
   91MOL    C2634406   5.802   6.927   5.013  0.3163 -0.4824  0.1235
   91MOL    C2734407   5.927   6.883   4.960  0.3455  0.7351  0.1190
   91MOL    C2834408   5.939   6.822   4.831 -0.3679 -0.2128  0.0145
   91MOL    C2934409   5.823   6.789   4.761  0.6781  0.3262 -0.1738
   91MOL    C3034410   5.697   6.829   4.816  0.5645 -0.8696  0.1265
   91MOL    C3134411   5.684   6.896   4.939 -0.9764  0.3724  0.2454
   91MOL    H3234412   5.816   6.946   5.578 -1.3714  2.1945 -1.0354
   91MOL    H3334413   5.749   7.068   5.354 -0.4192  0.4228 -1.0610
   91MOL    H3434414   5.961   6.893   5.219  0.8588  1.4711 -0.5669
   91MOL    H3534415   5.973   7.064   5.217 -0.4215  0.8693  1.5644
   91MOL    H3634416   6.016   6.925   5.004 -0.2893  3.3372 -0.9812
   91MOL    H3734417   6.038   6.808   4.789 -0.0006 -0.4051  0.9303
   91MOL    H3834418   5.842   6.761   4.658 -2.4137  0.4995 -0.8543
   91MOL    H3934419   5.610   6.822   4.753 -1.0842  0.3669  2.2296
   91MOL    C4034420   5.549   6.932   4.998 -0.3117  0.6267 -0.0586
   91MOL    C4134421   5.462   7.058   4.960 -0.4640  0.1197 -0.1937
   91MOL    O4234422   5.455   6.936   4.890  0.5476  0.5520 -0.2367
   91MOL    C4334423   5.502   7.182   4.875 -0.1027  0.2517 -0.1901
   91MOL    O4434424   5.638   7.214   4.836 -0.3579 -0.3889 -0.1491
   91MOL    C4534425   5.719   7.257   4.936  0.1485  0.0248 -0.4525
   91MOL    C4634426   5.676   7.283   5.070 -0.5505  0.2176 -0.2934
   91MOL    C4734427   5.772   7.318   5.172  0.0469 -0.2465  0.7133
   91MOL    C4834428   5.904   7.344   5.150 -0.4536 -0.0292  0.2638
   91MOL    C4934429   5.950   7.314   5.015 -0.0538 -0.5055 -0.6329
   91MOL    C5034430   5.855   7.267   4.912  0.6510 -0.0204  0.0859
   91MOL    H5134431   5.522   6.868   5.081  1.3331 -0.5829 -0.4305
   91MOL    H5234432   5.366   7.068   5.009  0.0166 -2.4468  1.3972
   91MOL    H5334433   5.445   7.263   4.919  0.3871  0.2685  0.4239
   91MOL    H5434434   5.457   7.165   4.777 -0.0466  0.4473 -0.2495
   91MOL    H5534435   5.577   7.261   5.106  0.2991  1.2826  2.8769
   91MOL    H5634436   5.738   7.314   5.275  0.5824 -2.7162  0.8219
   91MOL    H5734437   5.980   7.360   5.225 -0.6660 -1.8644  0.8828
   91MOL    H5834438   6.056   7.318   4.998  0.4193  0.8014  2.3101
   91MOL    C5934439   5.903   7.228   4.776 -0.6030 -0.0055 -0.1908
   91MOL    C6034440   5.908   7.319   4.660  0.7491  0.2622  0.2248
   91MOL    O6134441   6.026   7.295   4.738 -0.2354 -0.2312 -0.2511
   91MOL    C6234442   5.834   7.455   4.668  0.0132  0.2698  0.5588
   91MOL    O6334443   5.905   7.553   4.579  0.6029 -0.0442  0.1739
   91MOL    C6434444   5.895   7.548   4.438 -1.1985 -0.5990  0.2340
   91MOL    C6534445   5.800   7.473   4.378 -0.5248  0.1839 -0.5514
   91MOL    C6634446   5.789   7.471   4.238 -0.3537  0.4956  0.1125
   91MOL    C6734447   5.865   7.555   4.159  0.7414 -1.2805  0.1437
   91MOL    C6834448   5.957   7.641   4.226 -0.0450 -0.3314  0.9194
   91MOL    C6934449   5.971   7.635   4.364 -0.7025  0.4141 -0.7438
   91MOL    H7034450   5.938   7.125   4.782 -1.2137 -0.2546 -0.9293
   91MOL    H7134451   5.916   7.280   4.558 -4.3745  1.6264 -0.8801
   91MOL    H7234452   5.856   7.505   4.763  1.9383 -1.1585  0.8797
   91MOL    H7334453   5.727   7.436   4.656 -0.4615  2.2540  1.3765
   91MOL    H7434454   5.746   7.396   4.431  1.4689 -0.5075  0.5110
   91MOL    H7534455   5.725   7.395   4.195  1.1911  0.1153 -1.5778
   91MOL    H7634456   5.846   7.569   4.053 -2.4463 -2.5608  0.5083
   91MOL    H7734457   6.007   7.716   4.165 -1.6720 -2.2054 -2.8787
   91MOL    C7834458   6.045   7.747   4.432  0.7996  0.1971 -0.0634
   91MOL    C7934459   6.181   7.724   4.495 -0.1658 -0.4427  0.9718
   91MOL    O8034460   6.170   7.785   4.364 -0.6990 -0.1162  0.1754
   91MOL    C8134461   6.259   7.597   4.488  0.0099 -0.2555  1.1029
   91MOL    O8234462   6.400   7.609   4.514  0.1465 -0.2718  0.8214
   91MOL    C8334463   6.484   7.637   4.409 -0.3770 -0.1583  0.7587
   91MOL    C8434464   6.491   7.769   4.362 -0.3528  0.6302 -0.2953
   91MOL    C8534465   6.587   7.804   4.265 -0.1007  0.0622  0.1063
   91MOL    C8634466   6.676   7.707   4.213 -0.0672 -0.4633 -0.4801
   91MOL    C8734467   6.661   7.575   4.260  0.9183 -0.1436  0.2496
   91MOL    C8834468   6.563   7.537   4.354 -0.3320  0.9587  0.2547
   91MOL    H8934469   5.981   7.831   4.459 -0.9146 -0.4569 -1.8790
   91MOL    H9034470   6.214   7.789   4.576  0.0334  3.3319 -2.0247
   91MOL    H9134471   6.250   7.547   4.391 -0.3996 -1.1457  1.5942
   91MOL    H9234472   6.222   7.529   4.564  0.2018 -0.0222  1.4051
   91MOL    H9334473   6.430   7.846   4.407 -0.0520 -0.0287  1.2555
   91MOL    H9434474   6.588   7.911   4.250  0.0067 -0.2315 -2.0512
   91MOL    H9534475   6.757   7.744   4.151  0.0064  0.2970  0.0623
   91MOL    H9634476   6.739   7.506   4.230 -1.1000 -2.4801  0.2245
   91MOL    C9734477   6.555   7.394   4.403 -0.0573 -1.0547 -0.9919
   91MOL    C9834478   6.490   7.288   4.321 -0.2195  0.4319  0.4884
   91MOL    O9934479   6.633   7.295   4.327  0.9631 -0.1969  0.1154
   91MOL   C10034480   6.429   7.329   4.184 -0.1105 -0.5646 -0.0957
   91MOL   O10134481   6.311   7.277   4.134 -0.0573 -0.1584 -0.5693
   91MOL   C10234482   6.303   7.140   4.110  0.0520 -0.6554 -0.2494
   91MOL   C10334483   6.403   7.046   4.131  0.7975  0.4804 -0.1366
   91MOL   C10434484   6.374   6.910   4.137 -0.3846 -0.1327  0.2021
   91MOL   C10534485   6.244   6.869   4.113  0.4102  0.2409 -0.4972
   91MOL   C10634486   6.143   6.963   4.080 -0.1514 -0.1796  0.1414
   91MOL   C10734487   6.171   7.098   4.088  0.8147 -0.7042  0.3184
   91MOL   H10834488   6.557   7.372   4.510 -2.8471 -0.5881 -0.8148
   91MOL   H10934489   6.444   7.202   4.369  1.7920 -2.0517 -1.8918
   91MOL   H11034490   6.503   7.306   4.107 -0.2175  0.3213 -0.4645
   91MOL   H11134491   6.413   7.436   4.186 -1.0505 -0.6831 -0.8630
   91MOL   H11234492   6.499   7.072   4.172 -0.7404  0.8092  3.3716
   91MOL   H11334493   6.454   6.841   4.163  0.5361  0.8680  0.0334
   91MOL   H11434494   6.225   6.763   4.117 -1.0998  0.4837 -0.8028
   91MOL   H11534495   6.041   6.934   4.060 -0.7634  3.1318 -1.9567
   91MOL   C11634496   6.072   7.206   4.068  0.0096 -0.2215 -0.7266
   91MOL   C11734497   6.027   7.261   3.933 -0.2483  0.0692 -0.0080
   91MOL   O11834498   5.951   7.161   4.002  0.5903  0.9610  0.0606
   91MOL   C11934499   6.082   7.221   3.799 -0.2467 -0.6140  0.5309
   91MOL   O12034500   5.984   7.237   3.692 -0.1738 -0.6344  0.0401
   91MOL   C12134501   5.998   7.344   3.607  0.7404  0.7314  0.5762
   91MOL   C12234502   6.091   7.445   3.614 -0.4372  0.0964 -0.3260
   91MOL   C12334503   6.089   7.553   3.522  0.2487 -0.7219 -0.1615
   91MOL   C12434504   5.991   7.556   3.420 -1.1683  0.3325 -0.6836
   91MOL   C12534505   5.898   7.457   3.415 -0.3094 -0.0565  0.5895
   91MOL   C12634506   5.898   7.355   3.508  0.2564  0.8964 -0.0566
   91MOL   H12734507   6.052   7.255   4.163  1.7222  0.8217 -0.8787
   91MOL   H12834508   5.981   7.360   3.931  1.1324  0.8161  2.7242
   91MOL   H12934509   6.109   7.116   3.800 -1.3843 -0.9223 -0.1823
   91MOL   H13034510   6.176   7.271   3.780 -0.5046  0.3996  1.8581
   91MOL   H13134511   6.172   7.454   3.685  0.1840 -1.2387 -0.8641
   91MOL   H13234512   6.166   7.628   3.515  0.4761 -0.8724  0.6532
   91MOL   H13334513   5.977   7.637   3.351 -0.2855  0.2756 -0.9388
   91MOL   H13434514   5.812   7.462   3.350 -1.9168  1.1001  2.7395
   91MOL   C13534515   5.783   7.258   3.516  0.7328  0.4195  0.0894
   91MOL   C13634516   5.674   7.261   3.618 -0.1653  0.7435  0.3580
   91MOL   O13734517   5.664   7.318   3.489  0.3060 -0.3146  0.2141
   91MOL   C13834518   5.680   7.357   3.728  0.0611  0.2571  1.0497
   91MOL   O13934519   5.553   7.358   3.798  0.1310 -0.3388 -0.8786
   91MOL   C14034520   5.526   7.457   3.880 -0.0764 -0.2104 -0.5412
   91MOL   C14134521   5.611   7.570   3.900  0.2689 -0.0763 -0.2700
   91MOL   C14234522   5.579   7.679   3.995  0.4415  0.4736 -0.1020
   91MOL   C14334523   5.459   7.671   4.068 -0.5054 -1.0289  0.4381
   91MOL   C14434524   5.385   7.552   4.066 -0.2354 -0.3827  0.6058
   91MOL   C14534525   5.415   7.447   3.971 -0.3417 -0.5741 -0.0761
   91MOL   H14634526   5.783   7.167   3.456  0.6332 -0.5629  1.5576
   91MOL   H14734527   5.616   7.170   3.626  1.6569 -0.4981 -0.2698
   91MOL   H14834528   5.705   7.456   3.689 -2.0833 -0.1316 -1.3971
   91MOL   H14934529   5.759   7.344   3.802  0.9060  1.2846  0.3352
   91MOL   H15034530   5.711   7.582   3.861  0.3440  2.8718  0.7103
   91MOL   H15134531   5.659   7.747   4.022  0.3665  0.0559  1.1883
   91MOL   H15234532   5.435   7.747   4.141 -2.2618 -1.8069  0.7026
   91MOL   H15334533   5.307   7.533   4.137  0.4497  1.3772  1.8537
   91MOL   C15434534   5.334   7.326   3.965  0.3766  0.2540  0.4505
   91MOL   C15534535   5.372   7.194   4.029 -0.0327 -0.0582 -0.3591
   91MOL   O15634536   5.295   7.295   4.100 -0.1095  0.4433 -0.5813
   91MOL   C15734537   5.507   7.168   4.096 -0.0072 -0.4876  0.2461
   91MOL   O15834538   5.496   7.077   4.204 -0.3393  0.0197  0.0260
   91MOL   C15934539   5.602   7.066   4.291  0.4504  0.6161  0.3881
   91MOL   C16034540   5.729   7.110   4.256 -0.3742 -0.1224 -0.1377
   91MOL   C16134541   5.834   7.099   4.351 -0.2421 -1.0347 -0.4858
   91MOL   C16234542   5.801   7.053   4.479 -0.6887 -0.9784 -0.2881
   91MOL   C16334543   5.667   7.028   4.514 -0.3184 -0.1544 -0.2120
   91MOL   C16434544   5.571   7.015   4.419 -0.1723 -0.0103  0.2555
   91MOL   H16534545   5.264   7.335   3.883  1.7697  1.9738 -0.5669
   91MOL   H16634546   5.314   7.104   4.011 -1.1071  0.2525  1.4175
   91MOL   H16734547   5.542   7.267   4.127 -0.0512 -0.2715 -0.3858
   91MOL   H16834548   5.573   7.121   4.023 -1.1930 -1.7679 -0.0114
   91MOL   H16934549   5.749   7.142   4.155  0.5366  0.8604  0.3362
   91MOL   H17034550   5.938   7.112   4.325 -0.2380 -0.4412 -0.1744
   91MOL   H17134551   5.874   7.046   4.558  0.7627  1.1579 -1.3703
   91MOL   H17234552   5.636   6.994   4.611 -1.5040 -0.3656 -0.6488
   91MOL   C17334553   5.432   6.973   4.452 -0.4061 -0.1019  0.9667
   91MOL   C17434554   5.347   6.864   4.393 -0.2067  0.2053 -0.1526
   91MOL   O17534555   5.420   6.849   4.519  0.0616 -0.0186  0.2191
   91MOL   C17634556   5.386   6.769   4.281  0.9182  0.1694 -0.3904
   91MOL   O17734557   5.311   6.654   4.280  0.2147  0.4184 -0.1558
   91MOL   C17834558   5.331   6.567   4.170 -0.3672 -0.9786 -0.7090
   91MOL   C17934559   5.404   6.606   4.052  0.1904 -0.3421 -0.2729
   91MOL   C18034560   5.412   6.521   3.942 -0.8861  0.3816 -0.0643
   91MOL   C18134561   5.356   6.396   3.945  0.1113 -0.1470 -0.5059
   91MOL   C18234562   5.278   6.355   4.060 -0.2909 -1.2356 -0.2603
   91MOL   C18334563   5.272   6.437   4.174  0.0282  0.1462 -0.6208
   91MOL   H18434564   5.373   7.059   4.483 -1.7570 -1.0210  0.9563
   91MOL   H18534565   5.242   6.891   4.390 -0.3915 -0.5426 -0.5651
   91MOL   H18634566   5.491   6.741   4.289  0.9395  0.4603  0.4015
   91MOL   H18734567   5.363   6.829   4.193 -1.0169  0.8927  0.5660
   91MOL   H18834568   5.450   6.702   4.033 -1.9108  0.8377  0.3838
   91MOL   H18934569   5.471   6.561   3.860  0.6941  0.9165  1.3012
   91MOL   H19034570   5.364   6.337   3.854  0.4752 -0.7143 -0.1124
   91MOL   H19134571   5.243   6.253   4.062  1.9420 -2.0148  0.7310
   91MOL   C19234572   5.204   6.385   4.298  0.1629 -0.1413 -0.9081
   91MOL   C19334573   5.055   6.354   4.300 -0.8223 -0.3534 -0.3402
   91MOL   O19434574   5.162   6.249   4.297 -0.3448 -0.4698  0.0652
   91MOL   C19534575   4.973   6.370   4.175 -0.1077 -0.1150 -0.1164
   91MOL   O19634576   4.854   6.284   4.171 -0.3351 -0.1290  0.0367
   91MOL   C19734577   4.738   6.320   4.231 -0.2901 -1.4361  0.3306
   91MOL   C19834578   4.713   6.441   4.292 -0.6192 -0.4026  0.0839
   91MOL   C19934579   4.583   6.462   4.340  0.2376  0.1309 -0.3169
   91MOL   C20034580   4.495   6.357   4.355 -0.8360 -0.2992  0.0167
   91MOL   C20134581   4.519   6.235   4.291  0.2921  0.2734 -0.9160
   91MOL   C20234582   4.646   6.212   4.223 -0.1515  0.1344 -0.8797
   91MOL   H20334583   5.236   6.432   4.391 -1.4347  0.8653 -0.8469
   91MOL   H20434584   5.006   6.362   4.398  1.8414 -0.1967  1.0161
   91MOL   H20534585   5.027   6.339   4.086  1.0052  1.3891  0.0101
   91MOL   H20634586   4.950   6.476   4.162  0.8912  0.1177 -0.0402
   91MOL   H20734587   4.775   6.530   4.291 -0.0116 -0.7830  2.3664
   91MOL   H20834588   4.557   6.561   4.373  0.1794  0.6261 -1.8358
   91MOL   H20934589   4.395   6.377   4.390 -1.7155 -2.3995 -1.2381
   91MOL   H21034590   4.442   6.160   4.302  0.1846  0.6485  1.0336
   91MOL   C21134591   4.664   6.081   4.146  0.0612 -0.4547  0.2819
   91MOL   C21234592   4.765   5.980   4.194 -0.6598  0.1131  0.0539
   91MOL   O21334593   4.624   5.966   4.222 -0.3924 -0.1887 -0.0117
   91MOL   C21434594   4.857   6.015   4.307  0.3621 -0.1692 -0.4295
   91MOL   O21534595   4.932   5.908   4.358  0.1187  0.2784 -0.0935
   91MOL   C21634596   4.878   5.821   4.447  0.5955  0.4578  0.0506
   91MOL   C21734597   4.740   5.821   4.482  0.0117 -0.2792  0.0432
   91MOL   C21834598   4.692   5.734   4.586 -0.0219  1.0458  0.1302
   91MOL   C21934599   4.780   5.652   4.650 -0.2894 -0.9679  0.3979
   91MOL   C22034600   4.915   5.657   4.622  0.3183 -0.4793 -0.2294
   91MOL   C22134601   4.970   5.737   4.518  0.5448 -0.8431  0.9940
   91MOL   H22234602   4.649   6.070   4.039  0.4757 -3.1177  0.4456
   91MOL   H22334603   4.793   5.887   4.143 -0.1719  0.4607 -0.3207
   91MOL   H22434604   4.809   6.077   4.383  1.2077  0.5661 -0.4917
   91MOL   H22534605   4.931   6.070   4.249 -2.3580  1.2800 -2.6772
   91MOL   H22634606   4.674   5.896   4.441  2.0986  0.6670 -1.6692
   91MOL   H22734607   4.587   5.734   4.613 -0.0231 -3.5806  0.6084
   91MOL   H22834608   4.743   5.588   4.730  0.9595 -0.8349  1.0917
   91MOL   H22934609   4.988   5.600   4.679  0.7156 -2.0912 -2.2792
   91MOL   C23034610   5.109   5.732   4.485 -0.3135  0.4990  0.1880
   91MOL   C23134611   5.199   5.850   4.504 -1.1882 -0.2528  0.1807
   91MOL   O23234612   5.193   5.741   4.602  0.1945  0.6622 -0.1111
   91MOL   C23334613   5.143   5.981   4.542  0.4156  0.2600 -0.1664
   91MOL   O23434614   5.235   6.052   4.617  0.2717 -0.1493 -0.0162
   91MOL   C23534615   5.197   6.178   4.671  0.4446 -0.3496  0.0832
   91MOL   C23634616   5.075   6.247   4.634  0.2004  0.2558  0.6997
   91MOL   C23734617   5.052   6.376   4.674  0.0726  0.2001 -0.3276
   91MOL   C23834618   5.153   6.442   4.753  0.3058  0.6788  0.0893
   91MOL   C23934619   5.275   6.386   4.782 -0.1390  0.8655  0.5431
   91MOL   C24034620   5.300   6.254   4.738 -0.6439 -0.7712 -0.3082
   91MOL   H24134621   5.127   5.646   4.421  0.3876  0.0316  0.9995
   91MOL   H24234622   5.296   5.855   4.455 -1.2355  2.4151  0.3098
   91MOL   H24334623   5.051   5.973   4.600  0.9204 -0.7742  0.5123
   91MOL   H24434624   5.126   6.031   4.447  0.9008 -0.4561 -0.6330
   91MOL   H24534625   5.005   6.200   4.567  0.9577  0.3720 -0.1875
   91MOL   H24634626   4.959   6.424   4.650 -0.7851 -1.1952  0.1462
   91MOL   H24734627   5.131   6.545   4.777 -0.7294  0.8670 -1.6018
   91MOL   H24834628   5.342   6.458   4.826 -0.9867  1.2581  1.2275
   91MOL   C24934629   5.432   6.192   4.759  0.0984 -0.3042  0.5732
   91MOL   C25034630   5.537   6.180   4.649  0.0980 -0.4453  0.0251
   91MOL   O25134631   5.543   6.280   4.745 -0.4525 -0.1114 -0.8295
   91MOL   C25234632   5.523   6.223   4.499  0.7305 -0.1806  0.0310
   91MOL   O25334633   5.644   6.253   4.440 -0.0067 -0.4715 -0.1285
   91MOL   C25434634   5.670   6.390   4.415 -0.5936  0.2135  0.7223
   91MOL   C25534635   5.613   6.504   4.480 -0.3783  0.1303 -0.4319
   91MOL   C25634636   5.665   6.639   4.463 -0.1083 -0.3886 -0.2374
   91MOL   C25734637   5.777   6.654   4.381 -0.2162  0.4077  0.4898
   91MOL   C25834638   5.827   6.542   4.309 -0.8156  0.3756 -0.1590
   91MOL   C25934639   5.777   6.412   4.327 -0.1001 -0.6980  0.0364
   91MOL   H26034640   5.432   6.116   4.837 -0.9229 -1.9912 -1.0166
   91MOL   H26134641   5.604   6.096   4.669  1.2447  0.3804 -0.3495
   91MOL   H26234642   5.452   6.305   4.495 -2.2252 -2.7337 -1.6184
   91MOL   H26334643   5.473   6.138   4.452 -1.9352  3.4159 -3.8689
   91MOL   H26434644   5.539   6.487   4.557  0.3062  0.2874  0.2710
   91MOL   H26534645   5.624   6.727   4.510 -1.0790 -0.5273 -0.8330
   91MOL   H26634646   5.821   6.752   4.379  0.0817  0.2749  0.6352
   91MOL   H26734647   5.915   6.548   4.247 -0.0690  0.1127  0.8551
   91MOL   C26834648   5.847   6.290   4.263  0.0573  0.1852  0.1665
   91MOL   C26934649   5.785   6.198   4.158  0.1010 -0.1379 -0.9082
   91MOL   O27034650   5.868   6.311   4.122  0.3137 -0.1316  0.5120
   91MOL   C27134651   5.636   6.199   4.116 -0.2989  0.0971  0.3173
   91MOL   O27234652   5.608   6.099   4.017 -0.2920 -0.1980 -0.9218
   91MOL   C27334653   5.664   6.112   3.892 -0.5349  0.1232  0.0671
   91MOL   C27434654   5.673   6.233   3.833 -0.6531 -0.2886 -0.6506
   91MOL   C27534655   5.730   6.261   3.708  0.0181 -0.2158 -0.4815
   91MOL   C27634656   5.775   6.157   3.631  0.8601 -0.0228  0.1895
   91MOL   C27734657   5.754   6.024   3.682  0.2964  0.1827  0.1184
   91MOL   C27834658   5.693   6.003   3.808  0.0758 -0.7565  0.3512
   91MOL   H27934659   5.938   6.258   4.315  0.3243  0.7518  0.0487
   91MOL   H28034660   5.846   6.111   4.135 -0.5535 -0.4591 -1.4443
   91MOL   H28134661   5.595   6.296   4.088  0.3002 -0.2216 -1.7368
   91MOL   H28234662   5.588   6.170   4.210  0.4128  1.3893  1.0941
   91MOL   H28334663   5.627   6.311   3.892 -0.1502  0.6301 -1.4519
   91MOL   H28434664   5.726   6.356   3.656 -1.3546  0.3087  0.5556
   91MOL   H28534665   5.818   6.163   3.531  0.3381 -0.5605 -0.0702
   91MOL   H28634666   5.789   5.940   3.624  0.1994  0.5960 -0.5478
   91MOL   C28734667   5.681   5.866   3.860 -0.1062 -0.3071  0.1121
   91MOL   C28834668   5.553   5.791   3.861  0.3673 -1.0468 -0.1461
   91MOL   O28934669   5.649   5.767   3.759  0.3637 -0.0386  0.1077
   91MOL   C29034670   5.421   5.848   3.816  0.0573  0.0549 -0.0940
   91MOL   O29134671   5.328   5.742   3.812 -0.3432 -0.2011  0.3670
   91MOL   C29234672   5.247   5.711   3.922  1.3290  0.1085 -0.0865
   91MOL   C29334673   5.242   5.792   4.038  0.2055 -0.8100  0.3099
   91MOL   C29434674   5.140   5.774   4.134  0.7594  0.1810  0.4181
   91MOL   C29534675   5.050   5.668   4.119  0.3916  0.0723 -0.6409
   91MOL   C29634676   5.059   5.587   4.008  0.4891 -0.0612  0.1941
   91MOL   C29734677   5.155   5.604   3.911 -0.8140 -0.1312  0.4765
   91MOL   H29834678   5.766   5.836   3.921 -0.6018  0.6256  1.2810
   91MOL   H29934679   5.543   5.711   3.935  2.1981 -2.5275 -1.4711
   91MOL   H30034680   5.452   5.886   3.718  1.5710 -0.1914  0.2713
   91MOL   H30134681   5.390   5.929   3.881 -0.1856 -1.4440  1.7055
   91MOL   H30234682   5.307   5.877   4.051  1.9815 -2.3295  1.6295
   91MOL   H30334683   5.118   5.838   4.219  0.9570 -0.4282  0.9354
   91MOL   H30434684   4.976   5.651   4.195  1.4357  1.0787  0.6467
   91MOL   H30534685   4.989   5.506   3.991  1.2517 -0.7818  0.4441
   91MOL   C30634686   5.143   5.513   3.784  0.6579 -0.2165 -0.0021
   91MOL   C30734687   5.257   5.442   3.710  0.7060  0.0990  0.3010
   91MOL   O30834688   5.174   5.378   3.810 -0.6387  0.1765  0.2915
   91MOL   C30934689   5.403   5.448   3.749 -0.4876 -0.9740  0.0571
   91MOL   O31034690   5.471   5.324   3.708 -0.4831 -0.3895  0.8121
   91MOL   C31134691   5.594   5.295   3.773 -0.2693 -0.1057  0.5200
   91MOL   C31234692   5.675   5.397   3.840 -1.0700 -0.8856  0.8599
   91MOL   C31334693   5.800   5.365   3.905 -0.3018  0.4081 -0.3090
   91MOL   C31434694   5.845   5.234   3.895  0.0343  0.3447 -0.4162
   91MOL   C31534695   5.764   5.132   3.838 -0.9547  0.1250  0.4947
   91MOL   C31634696   5.643   5.161   3.776 -0.4269 -0.3191 -0.3264
   91MOL   H31734697   5.042   5.518   3.743  1.2769  1.0390 -1.3967
   91MOL   H31834698   5.230   5.402   3.612 -1.5083 -0.7944  1.2379
   91MOL   H31934699   5.401   5.450   3.858 -2.4482 -0.7153  0.0263
   91MOL   H32034700   5.451   5.529   3.694 -1.2573 -0.4580  0.1354
   91MOL   H32134701   5.649   5.501   3.843  4.3791  0.6015  1.4342
   91MOL   H32234702   5.860   5.447   3.943 -1.4459  1.9388 -1.7583
   91MOL   H32334703   5.940   5.218   3.942 -0.5640 -1.1828  0.3049
   91MOL   H32434704   5.806   5.032   3.829 -1.6019  0.0418 -1.9025
   91MOL   C32534705   5.569   5.061   3.702 -0.2138  0.0681 -0.7203
   91MOL   C32634706   5.633   4.979   3.592 -0.2848  0.8167  0.2145
   91MOL   O32734707   5.613   4.929   3.730 -0.9512  0.3507 -0.2899
   91MOL   C32834708   5.782   4.978   3.549 -0.0790 -0.4245  0.0056
   91MOL   O32934709   5.811   5.008   3.423 -0.0902 -0.8563  0.4330
   91MOL   C33034710   5.828   5.142   3.372  0.4592 -0.1533  0.9827
   91MOL   C33134711   5.783   5.257   3.443  0.2163 -0.5244  0.0336
   91MOL   C33234712   5.821   5.382   3.389  0.2979  0.4098 -0.3685
   91MOL   C33334713   5.887   5.397   3.264  0.3869  0.2206 -0.0605
   91MOL   C33434714   5.924   5.277   3.202 -0.5150 -0.0991 -0.0128
   91MOL   C33534715   5.898   5.145   3.251 -0.1683  0.0388  0.5329
   91MOL   H33634716   5.463   5.081   3.683  0.0009 -0.4373 -2.5159
   91MOL   H33734717   5.569   4.920   3.527 -2.2958  1.5962  1.4520
   91MOL   H33834718   5.804   4.871   3.547 -3.0750 -1.0851 -0.3808
   91MOL   H33934719   5.845   5.039   3.614  0.4934 -0.2793 -0.6831
   91MOL   H34034720   5.726   5.252   3.534 -0.6108 -0.9567 -0.5022
   91MOL   H34134721   5.796   5.471   3.446  1.5359 -0.1535  1.0866
   91MOL   H34234722   5.919   5.488   3.216 -1.8575  0.3433 -1.3733
   91MOL   H34334723   5.999   5.282   3.124  0.9610 -2.1431  1.2182
   91MOL   C34434724   5.949   5.019   3.181  0.4796 -0.0459  0.0300
   91MOL   C34534725   5.881   4.962   3.055  0.6667  0.0696  0.9308
   91MOL   O34634726   5.993   5.046   3.049  0.2021  0.5221  0.3764
   91MOL   C34734727   5.762   5.013   2.979 -0.1079 -0.4639 -0.0245
   91MOL   O34834728   5.750   4.963   2.850  0.3420  0.3888 -0.1076
   91MOL   C34934729   5.817   5.020   2.743 -0.5036 -0.7536  0.2844
   91MOL   C35034730   5.913   5.121   2.752  0.3590  0.5553 -0.2907
   91MOL   C35134731   5.982   5.161   2.639 -0.0483  0.9557  0.2566
   91MOL   C35234732   5.949   5.113   2.510 -0.1267  0.4723 -0.2511
   91MOL   C35334733   5.850   5.010   2.498 -0.2531  0.7054 -0.4752
   91MOL   C35434734   5.785   4.967   2.618  0.4206 -0.3851  0.0014
   91MOL   H35534735   6.032   4.971   3.234  1.2048  1.5208  0.3521
   91MOL   H35634736   5.913   4.864   3.019 -0.5877  0.8554 -2.5321
   91MOL   H35734737   5.768   5.121   2.976 -1.2040 -0.3555  1.4160
   91MOL   H35834738   5.681   4.987   3.046 -0.7854  1.6674 -0.0061
   91MOL   H35934739   5.949   5.169   2.842 -1.4755 -0.3015  0.9299
   91MOL   H36034740   6.045   5.249   2.640 -0.4432  1.2438 -0.1773
   91MOL   H36134741   6.012   5.137   2.426  0.6017  4.5663  1.3363
   91MOL   H36234742   5.828   4.960   2.405  2.5996 -3.2865  0.8747
   91MOL   C36334743   5.686   4.852   2.623  1.5523 -0.2887  0.0737
   91MOL   C36434744   5.539   4.849   2.593  0.0534 -0.8739 -0.1279
   91MOL   O36534745   5.638   4.830   2.486  0.4998  0.2875 -0.4626
   91MOL   C36634746   5.448   4.969   2.593 -0.6636  0.0831  0.2693
   91MOL   O36734747   5.328   4.956   2.514  0.3814  0.2852  0.2262
   91MOL   C36834748   5.213   4.949   2.585  0.1186  0.3823 -0.1840
   91MOL   C36934749   5.116   5.047   2.558  0.4289  0.4148 -0.4253
   91MOL   C37034750   4.985   5.033   2.618 -0.7127 -0.3454  0.2040
   91MOL   C37134751   4.960   4.926   2.707 -0.4899  0.6019 -0.5372
   91MOL   C37234752   5.059   4.829   2.731  0.1115  0.1010 -1.0601
   91MOL   C37334753   5.185   4.846   2.675 -0.2610 -0.0320  0.0993
   91MOL   H37434754   5.730   4.764   2.669  0.6688 -0.7600  0.0420
   91MOL   H37534755   5.492   4.764   2.642 -0.0801 -0.5228  0.3583
   91MOL   H37634756   5.507   5.053   2.556  1.1900 -1.5259 -0.4482
   91MOL   H37734757   5.417   4.997   2.694 -0.9773 -0.4145  0.3111
   91MOL   H37834758   5.143   5.123   2.486 -0.4692 -0.0971 -1.3174
   91MOL   H37934759   4.907   5.105   2.598 -1.3301 -1.2578 -0.6878
   91MOL   H38034760   4.858   4.916   2.741  0.1238 -1.4850  0.8069
   91MOL   H38134761   5.043   4.737   2.786  1.3686  0.7515  0.4585
   91MOL   H38234762   5.259   4.768   2.686  0.7251  0.8874  0.0665
   92MOL     C134763   4.735   7.142   1.350 -0.0723  0.4860  0.0274
   92MOL     C234764   4.605   7.100   1.413  0.6785 -0.0613  0.1191
   92MOL     O334765   4.731   7.039   1.445 -0.4963  0.7225 -0.4857
   92MOL     C434766   4.518   7.001   1.350 -0.1101 -0.3827 -0.4048
   92MOL     O534767   4.437   6.954   1.459  0.7004 -0.1393  0.6532
   92MOL     C634768   4.349   6.849   1.433 -0.4414 -0.4948 -0.6872
   92MOL     C734769   4.329   6.798   1.300 -0.1398  0.1881  0.1557
   92MOL     C834770   4.223   6.700   1.280  0.2581  0.3020 -0.3279
   92MOL     C934771   4.144   6.649   1.387 -0.8279 -0.0272  0.2435
   92MOL    C1034772   4.181   6.703   1.515  0.4536  0.0087 -0.7829
   92MOL    C1134773   4.282   6.796   1.543 -0.1468  0.2491 -1.2186
   92MOL    H1234774   4.770   7.241   1.379  0.6093  0.1926  0.2094
   92MOL    H1334775   4.562   7.170   1.485 -0.9782 -1.2765  0.3523
   92MOL    H1434776   4.584   6.916   1.332 -0.1477 -0.5048  0.0447
   92MOL    H1534777   4.469   7.046   1.264 -0.4135 -1.2396 -0.6849
   92MOL    H1634778   4.382   6.833   1.212  0.6559  0.0696  0.5817
   92MOL    H1734779   4.208   6.665   1.178 -0.6024  0.8269 -0.3904
   92MOL    H1834780   4.065   6.579   1.363  0.6270 -0.9127 -2.0572
   92MOL    H1934781   4.115   6.667   1.593  1.7211 -0.1822  0.2186
   92MOL    H2034782   4.760   7.111   1.249  0.2654 -1.1340  0.5942
   92MOL    C2134783   4.303   6.854   1.679 -0.6107 -0.2726  0.1136
   92MOL    C2234784   4.209   6.951   1.752  0.8137  0.0004 -0.9391
   92MOL    O2334785   4.204   6.807   1.779  0.1873  0.1316 -0.0493
   92MOL    C2434786   4.082   7.018   1.688  0.0395 -0.5565  0.1515
   92MOL    O2534787   4.089   7.030   1.545 -0.6519  0.9216  0.0766
   92MOL    C2634788   4.166   7.132   1.493 -0.3114 -0.1289  0.0199
   92MOL    C2734789   4.267   7.212   1.560 -0.1883  0.3879  0.0195
   92MOL    C2834790   4.350   7.309   1.491  0.8166 -0.8363 -0.2290
   92MOL    C2934791   4.327   7.325   1.354  0.1799 -0.5480  0.1144
   92MOL    C3034792   4.225   7.258   1.284  0.1944 -0.3655 -0.4668
   92MOL    C3134793   4.150   7.155   1.352 -0.2911  0.3144  0.9254
   92MOL    H3234794   4.407   6.850   1.711 -0.9277 -0.7224  1.1359
   92MOL    H3334795   4.268   7.019   1.813 -0.1079 -0.8359  0.9174
   92MOL    H3434796   4.062   7.117   1.729  1.3169 -0.2904  0.1373
   92MOL    H3534797   3.990   6.966   1.718 -1.1568  0.9954 -0.7664
   92MOL    H3634798   4.278   7.196   1.667 -1.2679  1.4830  0.3096
   92MOL    H3734799   4.428   7.363   1.543 -0.2346 -0.9215  1.4836
   92MOL    H3834800   4.397   7.385   1.298  1.4240 -0.6863  1.5050
   92MOL    H3934801   4.202   7.273   1.179  0.9399 -1.8814 -0.8609
   92MOL    C4034802   4.049   7.061   1.285 -0.3459  0.1821 -1.6026
   92MOL    C4134803   3.896   7.082   1.294  0.4876  0.1624 -0.4127
   92MOL    O4234804   3.970   7.126   1.179  0.2373 -0.7091 -0.6820
   92MOL    C4334805   3.826   7.195   1.358  1.1276 -0.1813 -0.5775
   92MOL    O4434806   3.691   7.185   1.321  0.0741 -0.3732 -0.1122
   92MOL    C4534807   3.655   7.255   1.209 -0.1483 -0.0436  0.8772
   92MOL    C4634808   3.727   7.355   1.141 -0.3160  0.3174  0.2408
   92MOL    C4734809   3.678   7.406   1.020  0.0403 -0.6653 -0.2077
   92MOL    C4834810   3.546   7.365   0.970 -0.2714  0.3848 -0.5899
   92MOL    C4934811   3.466   7.284   1.055  0.0906  1.1434 -0.0567
   92MOL    C5034812   3.521   7.221   1.168 -0.2460 -0.3339 -0.2647
   92MOL    H5134813   4.095   6.965   1.261  2.5986  0.6513  1.7963
   92MOL    H5234814   3.836   6.992   1.280  0.9318 -0.0024 -1.2874
   92MOL    H5334815   3.887   7.284   1.344 -1.2093  1.5169 -0.2950
   92MOL    H5434816   3.831   7.175   1.465  2.7586 -0.6538 -0.7282
   92MOL    H5534817   3.813   7.408   1.180  0.1256  0.3180 -0.7158
   92MOL    H5634818   3.738   7.479   0.968  0.4511  0.5242  1.8532
   92MOL    H5734819   3.508   7.431   0.893 -3.2240 -1.7813 -1.0585
   92MOL    H5834820   3.367   7.253   1.025 -0.0887  1.1582  0.5233
   92MOL    C5934821   3.437   7.124   1.247 -0.1504 -0.5222 -0.8350
   92MOL    C6034822   3.360   7.163   1.371 -0.3517  0.0062  0.3970
   92MOL    O6134823   3.303   7.163   1.240  1.0204  0.8865 -0.4194
   92MOL    C6234824   3.390   7.298   1.425  0.3252  0.0580 -0.3550
   92MOL    O6334825   3.290   7.321   1.521 -0.0802  0.5413 -0.1349
   92MOL    C6434826   3.271   7.452   1.570 -0.5194  0.1375  0.3834
   92MOL    C6534827   3.375   7.545   1.560  0.4386  0.6367  0.0292
   92MOL    C6634828   3.364   7.675   1.607 -0.2554 -0.1810  0.9268
   92MOL    C6734829   3.244   7.717   1.672 -0.2819  0.2922 -0.8551
   92MOL    C6834830   3.144   7.620   1.690 -0.0048  0.3094 -0.1339
   92MOL    C6934831   3.156   7.493   1.639  0.3805  0.0858  0.8133
   92MOL    H7034832   3.451   7.020   1.217 -1.3406 -1.3833  1.4858
   92MOL    H7134833   3.306   7.095   1.436  0.2393  0.7501  1.7033
   92MOL    H7234834   3.383   7.370   1.344  3.5889  0.5515 -0.2430
   92MOL    H7334835   3.493   7.304   1.461  0.0717  0.8794  0.2588
   92MOL    H7434836   3.471   7.518   1.518  0.3535  1.2764 -0.5967
   92MOL    H7534837   3.452   7.739   1.607 -1.3450  1.3812  2.3716
   92MOL    H7634838   3.230   7.819   1.704  2.1440  1.0583 -2.0306
   92MOL    H7734839   3.058   7.656   1.744 -0.9348 -0.5953 -0.9859
   92MOL    C7834840   3.052   7.387   1.660  0.8131 -0.8047  0.5195
   92MOL    C7934841   3.078   7.265   1.751  0.3102 -0.5449  0.9642
   92MOL    O8034842   3.015   7.380   1.794 -0.8549 -0.2710 -1.1454
   92MOL    C8134843   3.213   7.232   1.823  1.0351  0.1746  0.5972
   92MOL    O8234844   3.193   7.197   1.957 -0.1653  0.2227  0.8131
   92MOL    C8334845   3.139   7.073   1.988 -0.0380  0.1108 -0.6838
   92MOL    C8434846   3.121   6.973   1.890  0.3059 -0.4976 -0.0350
   92MOL    C8534847   3.059   6.853   1.920  0.4329 -0.0800 -0.1505
   92MOL    C8634848   3.006   6.829   2.048 -0.2358 -0.2044 -0.6607
   92MOL    C8734849   3.009   6.930   2.147 -0.1193  0.3890 -0.0600
   92MOL    C8834850   3.087   7.052   2.118 -0.6184 -0.3530 -0.1324
   92MOL    H8934851   2.981   7.370   1.579  0.6355 -0.9867  0.7136
   92MOL    H9034852   3.013   7.178   1.751 -1.2213  0.5812  0.4474
   92MOL    H9134853   3.274   7.322   1.826  2.4464 -0.8302  3.3833
   92MOL    H9234854   3.276   7.166   1.762 -0.2536 -1.2234  0.7469
   92MOL    H9334855   3.172   6.980   1.795  1.0958 -1.1496  0.3366
   92MOL    H9434856   3.056   6.772   1.848 -1.5719 -2.1979  2.2117
   92MOL    H9534857   2.963   6.733   2.071 -0.9469  0.2352 -0.1437
   92MOL    H9634858   2.970   6.915   2.246 -1.5018 -1.8475 -0.9109
   92MOL    C9734859   3.111   7.148   2.235 -0.0438 -0.2838  0.2529
   92MOL    C9834860   3.032   7.273   2.251 -0.2988 -0.5246 -0.3273
   92MOL    O9934861   3.002   7.158   2.329  0.1594 -0.1074 -0.1552
   92MOL   C10034862   2.928   7.309   2.147  0.1119 -0.1415 -0.0404
   92MOL   O10134863   2.812   7.381   2.189  0.0668  0.0512  0.0489
   92MOL   C10234864   2.823   7.512   2.232 -0.2570 -0.1646  0.0476
   92MOL   C10334865   2.936   7.591   2.208 -0.2636  0.4206 -0.3076
   92MOL   C10434866   2.955   7.717   2.268  0.3572 -0.7715  0.8833
   92MOL   C10534867   2.847   7.775   2.339  0.1110  0.5743  0.6895
   92MOL   C10634868   2.734   7.703   2.366 -0.9036  0.1302  0.2998
   92MOL   C10734869   2.724   7.566   2.320 -0.3048  0.0767 -0.1892
   92MOL   H10834870   3.211   7.151   2.279  0.1950  1.7443 -0.3698
   92MOL   H10934871   3.071   7.362   2.300  0.0339 -0.9252  0.1442
   92MOL   H11034872   2.875   7.222   2.110 -3.3027  2.3951 -1.3818
   92MOL   H11134873   2.981   7.364   2.069  2.2192  0.5212  1.7938
   92MOL   H11234874   3.026   7.558   2.157  1.1586  0.6400  2.0048
   92MOL   H11334875   3.045   7.775   2.253  1.0127 -1.9754  0.0793
   92MOL   H11434876   2.839   7.877   2.372 -0.1780  0.3138  1.4307
   92MOL   H11534877   2.655   7.745   2.428 -0.2213  0.2264  1.1175
   92MOL   C11634878   2.602   7.481   2.353  0.1427  1.1300 -0.1307
   92MOL   C11734879   2.616   7.352   2.435  0.2271 -0.1093 -0.5399
   92MOL   O11834880   2.564   7.473   2.490  0.0182  0.2069 -0.9010
   92MOL   C11934881   2.752   7.303   2.477  0.6280 -0.4059  0.2382
   92MOL   O12034882   2.752   7.230   2.600 -0.2332  0.0376 -0.5729
   92MOL   C12134883   2.803   7.294   2.714 -0.5626 -0.1672  0.5614
   92MOL   C12234884   2.821   7.434   2.719  0.0081  0.7157  0.1761
   92MOL   C12334885   2.877   7.493   2.834 -0.3291 -0.0128 -0.8112
   92MOL   C12434886   2.913   7.405   2.946 -1.1083  0.1668  0.7435
   92MOL   C12534887   2.879   7.266   2.943 -0.3768  0.4906  0.3856
   92MOL   C12634888   2.830   7.210   2.825  0.1984 -0.1194 -0.4736
   92MOL   H12734889   2.510   7.505   2.300 -1.9549 -0.7756  2.5044
   92MOL   H12834890   2.541   7.273   2.425 -0.2198 -0.0143  1.7925
   92MOL   H12934891   2.828   7.381   2.473 -0.1753  0.4224  0.9993
   92MOL   H13034892   2.771   7.238   2.392  3.2434  1.4074 -0.6638
   92MOL   H13134893   2.786   7.500   2.641 -1.6129 -0.9570 -0.5680
   92MOL   H13234894   2.907   7.597   2.834  2.9457 -0.8728  0.2801
   92MOL   H13334895   2.959   7.458   3.028  0.1339  2.0887 -1.1321
   92MOL   H13434896   2.907   7.195   3.019  2.3164  0.6840 -0.3829
   92MOL   C13534897   2.815   7.064   2.814 -0.4756  0.3840 -0.1291
   92MOL   C13634898   2.914   6.980   2.740 -0.1078 -0.4579 -0.5037
   92MOL   O13734899   2.923   6.998   2.876  0.1834 -0.1309  0.1032
   92MOL   C13834900   3.040   7.028   2.667 -0.1931  0.0252 -0.3269
   92MOL   O13934901   3.150   6.951   2.685  0.2555  0.9546 -0.5135
   92MOL   C14034902   3.149   6.820   2.647  0.3864 -0.0717  0.5677
   92MOL   C14134903   3.074   6.764   2.539  0.0759  0.1894  0.7051
   92MOL   C14234904   3.093   6.632   2.491 -0.0312  0.1659  0.2064
   92MOL   C14334905   3.176   6.544   2.566 -0.0458 -0.9881  0.3181
   92MOL   C14434906   3.246   6.597   2.676 -0.1970 -0.4174 -0.2212
   92MOL   C14534907   3.241   6.738   2.709 -0.2619  0.1338 -0.1095
   92MOL   H14634908   2.714   7.037   2.844 -1.3092  0.6042 -2.6163
   92MOL   H14734909   2.861   6.893   2.701 -3.4100  1.4887 -0.5247
   92MOL   H14834910   3.060   7.132   2.694  0.4077 -0.3285  0.6116
   92MOL   H14934911   3.014   7.033   2.561 -1.0131  1.5119 -0.0776
   92MOL   H15034912   2.997   6.815   2.484  1.4933  0.9471 -0.6276
   92MOL   H15134913   3.047   6.598   2.399  1.6340  1.0178 -0.9772
   92MOL   H15234914   3.181   6.439   2.542  1.8054 -0.9870  0.5988
   92MOL   H15334915   3.314   6.538   2.736  1.2491  0.6574 -0.7756
   92MOL   C15434916   3.336   6.791   2.817 -0.0647 -0.1952  0.5120
   92MOL   C15534917   3.290   6.849   2.949 -0.3329  0.4691 -0.8855
   92MOL   O15634918   3.316   6.711   2.937  0.0502  0.1743 -0.3557
   92MOL   C15734919   3.150   6.882   2.994 -0.4462 -0.4759  0.0603
   92MOL   O15834920   3.137   6.855   3.137  0.2631  0.1117  0.0909
   92MOL   C15934921   3.083   6.964   3.200  0.8764  1.0706 -0.2079
   92MOL   C16034922   3.173   7.047   3.259 -0.3030 -0.1172  0.5806
   92MOL   C16134923   3.141   7.162   3.333  0.2359  0.6196 -0.0065
   92MOL   C16234924   3.001   7.185   3.348  0.0270  0.0351 -0.2920
   92MOL   C16334925   2.909   7.098   3.288 -0.4303 -0.4225  0.1446
   92MOL   C16434926   2.946   6.984   3.217  0.1917  0.6178 -0.0844
   92MOL   H16534927   3.441   6.800   2.789  0.1547 -1.7661  0.7734
   92MOL   H16634928   3.357   6.913   3.005 -0.3712  2.3746 -2.9417
   92MOL   H16734929   3.077   6.818   2.945 -0.1302 -0.9225  0.1661
   92MOL   H16834930   3.146   6.984   2.957 -1.5365 -0.5465 -0.0337
   92MOL   H16934931   3.277   7.031   3.233 -0.1524  0.2906  0.9353
   92MOL   H17034932   3.216   7.222   3.382  1.4004 -1.2292  0.5184
   92MOL   H17134933   2.961   7.274   3.395  0.4107 -0.2518  0.5886
   92MOL   H17234934   2.803   7.114   3.301 -1.2777 -3.0443 -2.9283
   92MOL   C17334935   2.847   6.889   3.163 -0.8456  0.3029  0.1147
   92MOL   C17434936   2.810   6.757   3.233 -0.5391 -0.0717  0.0288
   92MOL   O17534937   2.727   6.873   3.235 -0.0313  0.1806 -0.0352
   92MOL   C17634938   2.873   6.721   3.363  0.3583  0.0839  0.1547
   92MOL   O17734939   2.937   6.595   3.362 -0.3141 -0.0829 -0.2218
   92MOL   C17834940   3.002   6.551   3.473 -0.8654  0.1838 -0.2740
   92MOL   C17934941   2.969   6.576   3.601  0.4109 -0.0220 -0.4499
   92MOL   C18034942   3.026   6.508   3.705  0.4411 -0.1104 -0.9636
   92MOL   C18134943   3.139   6.424   3.687  0.5773  0.8377 -0.2426
   92MOL   C18234944   3.174   6.398   3.552 -0.7118 -0.5193  0.3701
   92MOL   C18334945   3.116   6.473   3.451  0.7006 -0.2980  0.3750
   92MOL   H18434946   2.848   6.870   3.056  0.2936 -0.1018  0.1914
   92MOL   H18534947   2.772   6.672   3.176  1.7754 -0.2742 -1.2641
   92MOL   H18634948   2.797   6.727   3.440  1.2691  2.1540  0.9324
   92MOL   H18734949   2.934   6.805   3.395 -1.2105  1.1953  0.2856
   92MOL   H18834950   2.889   6.647   3.616  0.3126 -0.4449  1.0878
   92MOL   H18934951   2.978   6.517   3.802  1.5821 -0.9708 -0.2973
   92MOL   H19034952   3.186   6.365   3.764 -2.4931  1.0247  1.8472
   92MOL   H19134953   3.254   6.327   3.535 -0.0384  0.4294 -0.4564
   92MOL   C19234954   3.155   6.460   3.306  0.1127 -0.3353  1.1967
   92MOL   C19334955   3.265   6.525   3.236  0.1415  0.3456 -0.2940
   92MOL   O19434956   3.273   6.387   3.293  0.1182  0.4984 -0.0908
   92MOL   C19534957   3.370   6.615   3.301  0.9634  0.2142 -0.1754
   92MOL   O19634958   3.503   6.598   3.241 -0.2016  0.0868 -0.1790
   92MOL   C19734959   3.558   6.473   3.227 -0.1910  0.1516  0.0630
   92MOL   C19834960   3.549   6.385   3.339  0.3858  0.2134  0.0077
   92MOL   C19934961   3.605   6.259   3.328 -0.1951  0.3743 -0.7677
   92MOL   C20034962   3.662   6.214   3.205  0.3995 -0.6061 -0.5649
   92MOL   C20134963   3.666   6.302   3.094 -0.2863 -0.4132  0.4704
   92MOL   C20234964   3.628   6.434   3.108  0.3093 -0.1892  0.2491
   92MOL   H20334965   3.074   6.416   3.248  0.9876 -0.4316  0.0315
   92MOL   H20434966   3.263   6.537   3.128 -0.1724  0.8018 -0.2370
   92MOL   H20534967   3.360   6.609   3.409 -0.6732 -2.6405 -0.4412
   92MOL   H20634968   3.351   6.721   3.282 -2.8227 -0.5584 -1.1066
   92MOL   H20734969   3.499   6.410   3.432 -1.6659 -2.0425 -0.4483
   92MOL   H20834970   3.601   6.188   3.409  1.8917 -0.4639 -1.3549
   92MOL   H20934971   3.712   6.118   3.205 -1.5807 -1.6573 -0.4490
   92MOL   H21034972   3.722   6.278   3.005 -0.3616 -1.8574  0.7958
   92MOL   C21134973   3.641   6.533   2.998 -0.1767 -0.2193  0.3794
   92MOL   C21234974   3.770   6.609   3.003 -0.6252  1.2958 -0.2003
   92MOL   O21334975   3.745   6.514   2.899  0.4416  0.4877  1.1523
   92MOL   C21434976   3.883   6.565   3.096 -0.0926 -0.2181  0.7048
   92MOL   O21534977   3.996   6.651   3.104  0.7277 -0.0507  0.1281
   92MOL   C21634978   4.067   6.668   2.989 -0.1887  0.0344 -0.3635
   92MOL   C21734979   4.064   6.571   2.885  0.1422 -0.1578 -0.2088
   92MOL   C21834980   4.161   6.580   2.780  0.8870  0.0619  0.3476
   92MOL   C21934981   4.260   6.684   2.785  0.6675  0.4067  0.2076
   92MOL   C22034982   4.262   6.771   2.892 -0.2494 -0.3291  0.3633
   92MOL   C22134983   4.170   6.762   2.998  0.0285  0.1653 -0.2642
   92MOL   H22234984   3.552   6.589   2.970  0.2963  0.7611  0.7766
   92MOL   H22334985   3.756   6.716   3.001 -1.6411  1.2359  2.0317
   92MOL   H22434986   3.914   6.463   3.076 -1.4542 -1.0524  2.6453
   92MOL   H22534987   3.836   6.566   3.194  1.0843 -1.4850  1.2958
   92MOL   H22634988   4.002   6.483   2.883 -0.2046  0.0690  0.3718
   92MOL   H22734989   4.164   6.511   2.697 -2.0870  0.0516  0.2053
   92MOL   H22834990   4.339   6.698   2.713  0.3736  0.7264 -0.0516
   92MOL   H22934991   4.339   6.847   2.891 -0.6994  0.1318  0.7597
   92MOL   C23034992   4.178   6.859   3.109  0.2032 -0.2482  0.1178
   92MOL   C23134993   4.231   6.824   3.246 -0.1093  1.0683  0.4596
   92MOL   O23234994   4.309   6.887   3.146 -0.2376  0.4822  0.3867
   92MOL   C23334995   4.272   6.682   3.284 -0.1077 -0.2111  0.0879
   92MOL   O23434996   4.357   6.684   3.392  0.0146 -0.2973 -0.1912
   92MOL   C23534997   4.312   6.745   3.505 -0.7969 -0.1676 -0.4100
   92MOL   C23634998   4.176   6.759   3.550  0.0178 -0.1574 -0.0953
   92MOL   C23734999   4.154   6.810   3.680 -0.5209 -0.2441 -0.6248
   92MOL   C23835000   4.257   6.844   3.763 -0.5575 -0.0460 -0.4956
   92MOL   C23935001   4.390   6.839   3.714 -0.1072  0.7013 -0.2490
   92MOL   C24035002   4.419   6.793   3.585  0.0260  0.2756  0.4872
   92MOL   H24135003   4.117   6.948   3.099 -0.7071 -1.1658 -2.8179
   92MOL   H24235004   4.184   6.879   3.327 -1.3550  0.3008  0.2719
   92MOL   H24335005   4.333   6.639   3.204 -0.6705  1.2535 -1.1422
   92MOL   H24435006   4.178   6.629   3.299 -1.6302  2.0183 -1.4234
   92MOL   H24535007   4.096   6.714   3.493  0.0677 -1.8062  1.0917
   92MOL   H24635008   4.054   6.803   3.721 -0.2530 -0.9653 -0.0878
   92MOL   H24735009   4.241   6.872   3.867  1.5015 -0.7869  0.0461
   92MOL   H24835010   4.471   6.864   3.781  1.0836  1.8203 -2.0935
   92MOL   C24935011   4.565   6.785   3.545 -0.7253 -0.1889  0.3893
   92MOL   C25035012   4.646   6.885   3.456  0.4499 -0.2291 -0.5731
   92MOL   O25135013   4.643   6.896   3.597  0.8282 -0.0864 -0.1737
   92MOL   C25235014   4.581   6.999   3.384 -0.1317  0.2160 -0.2283
   92MOL   O25335015   4.685   7.094   3.363  0.4217 -0.0614 -0.4310
   92MOL   C25435016   4.644   7.209   3.303 -0.7674  0.2778 -0.3974
   92MOL   C25535017   4.514   7.236   3.254 -0.1036 -0.5084 -0.3340
   92MOL   C25635018   4.475   7.370   3.225  0.6627  0.2591 -0.2192
   92MOL   C25735019   4.569   7.472   3.236  0.5855 -0.3108 -0.5399
   92MOL   C25835020   4.705   7.440   3.257  0.8454  0.0732 -0.7012
   92MOL   C25935021   4.743   7.311   3.294  0.7845 -0.3496 -0.5587
   92MOL   H26035022   4.598   6.684   3.569  0.5690 -0.2387 -1.4743
   92MOL   H26135023   4.731   6.833   3.412  1.4003  1.1898 -0.4290
   92MOL   H26235024   4.501   7.044   3.442 -0.7234 -0.5594 -0.4343
   92MOL   H26335025   4.542   6.971   3.286  0.3781  0.4570 -0.5044
   92MOL   H26435026   4.432   7.166   3.242 -0.6747 -0.1732  1.4871
   92MOL   H26535027   4.372   7.376   3.193 -0.1187  0.2122  2.1442
   92MOL   H26635028   4.537   7.574   3.219 -2.6874 -0.8639  1.7445
   92MOL   H26735029   4.781   7.517   3.259  1.3754 -0.4857  2.0468
   92MOL   C26835030   4.885   7.281   3.317  0.4424 -0.6371  0.4919
   92MOL   C26935031   4.979   7.208   3.224 -0.3158  1.3292  0.5810
   92MOL   O27035032   4.967   7.353   3.226 -0.5425 -0.5499 -0.4162
   92MOL   C27135033   4.920   7.121   3.107 -0.4283 -0.2465 -1.1254
   92MOL   O27235034   5.028   7.032   3.068  0.0555  0.0039  0.6168
   92MOL   C27335035   5.126   7.079   2.983  0.1491  0.0497 -0.3039
   92MOL   C27435036   5.137   7.212   2.938 -0.5540 -0.3712 -0.0954
   92MOL   C27535037   5.233   7.245   2.847 -0.3157 -0.1806 -0.4486
   92MOL   C27635038   5.339   7.164   2.818 -0.2854  0.3286  0.6040
   92MOL   C27735039   5.330   7.029   2.864 -0.6645  0.5092 -0.2482
   92MOL   C27835040   5.224   6.981   2.944  0.0028 -0.4333  0.5923
   92MOL   H27935041   4.911   7.282   3.423 -0.3240 -1.8004  0.7102
   92MOL   H28035042   5.070   7.164   3.264 -1.3328 -0.5734  0.8825
   92MOL   H28135043   4.880   7.189   3.031 -1.5642  0.2543 -0.0945
   92MOL   H28235044   4.840   7.054   3.139  0.1607 -0.5725 -0.3370
   92MOL   H28335045   5.061   7.285   2.961 -0.3083  0.4188 -1.7753
   92MOL   H28435046   5.228   7.341   2.797  0.7580  0.0133 -0.1894
   92MOL   H28535047   5.423   7.198   2.758 -0.2532 -2.0664 -0.7437
   92MOL   H28635048   5.416   6.970   2.838  0.5879  1.7338  1.0585
   92MOL   C28735049   5.226   6.841   3.002  0.2294 -0.3604 -0.2169
   92MOL   C28835050   5.226   6.715   2.925  0.1371 -0.1472  0.1575
   92MOL   O28935051   5.346   6.770   2.965 -0.5257  0.1446  0.0145
   92MOL   C29035052   5.193   6.711   2.769 -0.3897 -0.3963 -0.6799
   92MOL   O29135053   5.287   6.625   2.708 -0.0603 -0.1317  0.9204
   92MOL   C29235054   5.285   6.492   2.728  0.4534  0.4146 -0.5680
   92MOL   C29335055   5.168   6.412   2.757  0.0355 -0.7096 -0.0043
   92MOL   C29435056   5.191   6.274   2.761  0.4054  0.3045 -0.3575
   92MOL   C29535057   5.315   6.215   2.741  0.1915 -1.1429  0.4723
   92MOL   C29635058   5.425   6.304   2.715  0.1634  0.2388  0.2174
   92MOL   C29735059   5.413   6.442   2.716  0.3773  0.1676  0.2947
   92MOL   H29835060   5.196   6.836   3.106 -1.7478 -2.5914 -0.8728
   92MOL   H29935061   5.204   6.628   2.986  0.4712  0.4984  1.2037
   92MOL   H30035062   5.225   6.804   2.723  1.0101 -1.3113 -1.6145
   92MOL   H30135063   5.087   6.694   2.749 -0.1643  1.1853 -3.4430
   92MOL   H30235064   5.077   6.458   2.791 -0.6280 -1.4333 -0.7981
   92MOL   H30335065   5.119   6.201   2.794  0.4781  0.1600 -0.5174
   92MOL   H30435066   5.330   6.112   2.769  1.5560 -0.4286  2.4225
   92MOL   H30535067   5.521   6.255   2.718  1.4705  2.7075 -0.4162
   92MOL   C30635068   5.536   6.531   2.700  0.0433 -0.1643 -0.5985
   92MOL   C30735069   5.621   6.563   2.819 -0.2846  0.4621 -0.3974
   92MOL   O30835070   5.660   6.465   2.724 -0.4705 -0.0763  0.1027
   92MOL   C30935071   5.584   6.508   2.961  0.2649  0.0338  0.7025
   92MOL   O31035072   5.697   6.534   3.051  0.0647 -0.2366  0.1505
   92MOL   C31135073   5.750   6.661   3.084  0.4956  0.5292  0.1010
   92MOL   C31235074   5.664   6.772   3.101 -0.9867  0.2807 -0.5164
   92MOL   C31335075   5.719   6.897   3.141  0.0505  0.8693 -0.1831
   92MOL   C31435076   5.853   6.898   3.177  0.1874 -0.0641  0.0409
   92MOL   C31535077   5.938   6.786   3.164 -0.0659  0.2586 -0.0697
   92MOL   C31635078   5.888   6.667   3.114 -0.3412  0.0340  0.2055
   92MOL   H31735079   5.539   6.611   2.626  0.6025  0.2324 -0.1544
   92MOL   H31835080   5.675   6.657   2.811  0.9693 -0.0320  1.7889
   92MOL   H31935081   5.585   6.400   2.948  1.7579  0.2704 -1.3980
   92MOL   H32035082   5.488   6.536   3.005  0.6102 -0.2078  1.6059
   92MOL   H32135083   5.561   6.764   3.071 -1.4771 -0.2598  1.2632
   92MOL   H32235084   5.652   6.982   3.147 -2.2575 -0.9970  1.1250
   92MOL   H32335085   5.897   6.991   3.209 -2.9761  0.9957  1.5563
   92MOL   H32435086   6.043   6.791   3.191  0.0979 -0.3419 -0.5906
   92MOL   C32535087   5.973   6.547   3.086 -0.6404  0.0746 -0.7572
   92MOL   C32635088   6.033   6.511   2.959 -0.0134  0.2782 -0.2122
   92MOL   O32735089   6.112   6.579   3.058 -0.2050 -0.4360  0.3826
   92MOL   C32835090   6.015   6.577   2.825  0.3325 -0.1534 -0.3605
   92MOL   O32935091   6.112   6.540   2.727  0.3448  0.6958 -0.5347
   92MOL   C33035092   6.099   6.420   2.658 -0.4036  0.1764 -0.8357
   92MOL   C33135093   5.982   6.338   2.670  0.4909 -0.1984 -0.0483
   92MOL   C33235094   5.957   6.229   2.587  0.2365  0.4371  0.0700
   92MOL   C33335095   6.061   6.180   2.508 -0.0057  0.3936  0.6251
   92MOL   C33435096   6.186   6.249   2.512 -0.4266  0.8337 -0.4809
   92MOL   C33535097   6.206   6.369   2.582 -0.2727 -1.1939 -0.0729
   92MOL   H33635098   5.971   6.477   3.169 -2.4487  1.6351  0.5576
   92MOL   H33735099   6.053   6.405   2.947  0.3865  0.1725  1.3313
   92MOL   H33835100   6.027   6.684   2.840  1.3194 -0.0737 -1.6486
   92MOL   H33935101   5.910   6.560   2.797  0.5624 -2.3499  0.0261
   92MOL   H34035102   5.898   6.365   2.732  2.0148  1.1703  1.4953
   92MOL   H34135103   5.857   6.187   2.590  0.6520 -0.5684  0.2637
   92MOL   H34235104   6.041   6.090   2.451  1.0453  0.6020 -0.0763
   92MOL   H34335105   6.272   6.209   2.460 -1.0397 -0.5859 -0.4356
   92MOL   C34435106   6.346   6.431   2.581  0.7721  0.2805 -0.3824
   92MOL   C34535107   6.429   6.453   2.712 -0.0117  0.0140 -0.2536
   92MOL   O34635108   6.444   6.342   2.622 -0.0455  0.1929  0.2952
   92MOL   C34735109   6.379   6.417   2.853  0.7528 -0.2597  0.5090
   92MOL   O34835110   6.484   6.373   2.931 -1.0142 -0.0688 -0.2804
   92MOL   C34935111   6.493   6.234   2.959  0.3595  0.5832 -0.2609
   92MOL   C35035112   6.400   6.133   2.913 -0.0510 -0.1406  0.4698
   92MOL   C35135113   6.429   5.995   2.942  0.3446 -0.1258  0.5923
   92MOL   C35235114   6.546   5.966   3.023  0.9654 -0.1515 -0.3854
   92MOL   C35335115   6.629   6.066   3.073 -0.1393 -0.3868  0.0564
   92MOL   C35435116   6.605   6.201   3.040  0.7421 -0.0044 -0.5711
   92MOL   H35535117   6.383   6.480   2.491  1.7305 -0.9253 -0.6710
   92MOL   H35635118   6.514   6.521   2.709 -0.6822  0.8397 -0.7974
   92MOL   H35735119   6.294   6.350   2.841 -0.4304  1.1990  0.5563
   92MOL   H35835120   6.334   6.506   2.897 -0.4864 -0.8681  0.4898
   92MOL   H35935121   6.313   6.156   2.853  0.2119  2.0317  0.8848
   92MOL   H36035122   6.358   5.918   2.914  0.3858  0.3956 -0.9986
   92MOL   H36135123   6.573   5.863   3.044 -0.0133 -0.4774 -0.7203
   92MOL   H36235124   6.727   6.044   3.113  0.0611  0.9173  0.2891
   92MOL   C36335125   6.707   6.310   3.080  0.3306 -0.6695  0.1821
   92MOL   C36435126   6.721   6.369   3.219  0.0829 -0.0016  0.3289
   92MOL   O36535127   6.808   6.268   3.171  0.1300  0.0206 -0.5782
   92MOL   C36635128   6.633   6.320   3.336 -0.0221  1.2279 -0.5107
   92MOL   O36735129   6.696   6.313   3.465  0.3841 -0.1838  0.6031
   92MOL   C36835130   6.804   6.228   3.505  0.3771 -0.6983  0.9770
   92MOL   C36935131   6.848   6.119   3.421  0.9258 -0.2762 -0.6133
   92MOL   C37035132   6.954   6.040   3.468  0.3755 -0.0537 -0.8339
   92MOL   C37135133   6.993   6.052   3.600 -0.0031  0.0431 -0.1982
   92MOL   C37235134   6.951   6.161   3.683 -0.5480  0.1792  0.3615
   92MOL   C37335135   6.857   6.251   3.635  0.1216  0.2343  1.2580
   92MOL   H37435136   6.745   6.360   2.991 -2.1592  0.8124 -0.0917
   92MOL   H37535137   6.770   6.464   3.239 -2.1365  1.0434  0.9051
   92MOL   H37635138   6.581   6.227   3.315  1.3198 -0.0204  1.4988
   92MOL   H37735139   6.546   6.382   3.355 -1.3225 -0.0187 -2.2646
   92MOL   H37835140   6.796   6.108   3.327 -1.8414  2.0211  0.5829
   92MOL   H37935141   6.994   5.972   3.394  0.8148  0.2569 -0.8811
   92MOL   H38035142   7.075   5.993   3.639  1.4936  1.1150 -1.6418
   92MOL   H38135143   6.992   6.170   3.782  0.5267  0.3586 -0.0892
   92MOL   H38235144   6.816   6.337   3.687 -0.0888  0.5416  0.5976
   93MOL     C135145   7.043   5.183   2.364  1.0703  0.5842 -0.0678
   93MOL     C235146   7.011   5.061   2.441 -0.4320 -0.4476 -0.4780
   93MOL     O335147   7.011   5.061   2.297  0.7426 -0.2284 -0.6033
   93MOL     C435148   6.875   5.029   2.499  0.0935  0.1606  0.9083
   93MOL     O535149   6.822   5.148   2.571  0.0538 -0.4010  0.6947
   93MOL     C635150   6.873   5.190   2.688 -0.3534 -0.0165  0.6171
   93MOL     C735151   6.905   5.103   2.797  0.4525 -0.3285  0.5505
   93MOL     C835152   6.949   5.146   2.922  0.1129 -0.2595  0.1659
   93MOL     C935153   6.976   5.282   2.940 -0.5686 -0.9538  0.7583
   93MOL    C1035154   6.938   5.375   2.839  0.3682  0.6405 -0.6426
   93MOL    C1135155   6.885   5.329   2.714 -0.0534  0.6541  0.7256
   93MOL    H1235156   7.148   5.214   2.371  0.6960  2.1601 -1.2445
   93MOL    H1335157   7.099   5.026   2.494 -1.7509 -4.0907 -0.5900
   93MOL    H1435158   6.864   4.944   2.566 -2.3266 -0.1145  0.2029
   93MOL    H1535159   6.816   5.026   2.407  1.2970  0.7293  0.1085
   93MOL    H1635160   6.887   4.998   2.779  0.1260 -0.0901 -0.5618
   93MOL    H1735161   6.971   5.079   3.004 -1.2233 -0.5840  0.2683
   93MOL    H1835162   7.006   5.329   3.032 -0.0898 -1.1325  0.6948
   93MOL    H1935163   6.966   5.479   2.846  0.8583  0.4413  0.4940
   93MOL    H2035164   6.971   5.264   2.367  0.5881  0.1583 -0.0724
   93MOL    C2135165   6.868   5.417   2.596  0.2184 -0.1018  0.2863
   93MOL    C2235166   6.738   5.457   2.536  0.2421  0.2648 -0.0492
   93MOL    O2335167   6.800   5.538   2.639  0.4287  0.0961  0.1339
   93MOL    C2435168   6.605   5.407   2.579 -0.4587 -0.9872  0.8094
   93MOL    O2535169   6.501   5.460   2.495 -0.0336 -0.6816  0.1965
   93MOL    C2635170   6.468   5.596   2.510 -0.4871 -0.0059 -0.3206
   93MOL    C2735171   6.532   5.686   2.601  0.3229  0.9392  0.7358
   93MOL    C2835172   6.485   5.821   2.608 -0.0371  0.1946  0.3118
   93MOL    C2935173   6.390   5.868   2.516 -0.6405  0.2700 -0.0043
   93MOL    C3035174   6.328   5.778   2.429  0.3364 -0.1998 -0.0831
   93MOL    C3135175   6.370   5.644   2.423  0.0747  1.0803 -0.5577
   93MOL    H3235176   6.962   5.442   2.547  1.1841 -2.9244  0.5943
   93MOL    H3335177   6.749   5.505   2.439  0.8180  0.6732  0.2158
   93MOL    H3435178   6.585   5.431   2.684 -2.0508  0.3998  0.2138
   93MOL    H3535179   6.616   5.299   2.573 -0.2387 -0.9649  0.8246
   93MOL    H3635180   6.604   5.652   2.674 -1.0205 -1.4572  0.9993
   93MOL    H3735181   6.533   5.885   2.680  1.4317  1.3982 -1.6969
   93MOL    H3835182   6.371   5.974   2.507  0.7527  0.5004 -0.3709
   93MOL    H3935183   6.258   5.821   2.359  1.0876 -1.0109 -1.3640
   93MOL    C4035184   6.314   5.541   2.323 -0.8973 -0.6392 -0.2458
   93MOL    C4135185   6.179   5.478   2.333  0.1239  0.2379  0.1263
   93MOL    O4235186   6.196   5.595   2.254  0.1714  0.2820 -0.2375
   93MOL    C4335187   6.088   5.490   2.459 -0.2256 -0.7011  0.5068
   93MOL    O4435188   5.958   5.436   2.432 -0.2501 -0.0006 -0.1370
   93MOL    C4535189   5.868   5.517   2.373  0.0288 -0.1681 -0.2630
   93MOL    C4635190   5.901   5.642   2.314  0.1746 -0.5177  0.7037
   93MOL    C4735191   5.801   5.723   2.253  0.8845 -0.2547  0.3547
   93MOL    C4835192   5.665   5.682   2.236 -0.6721  0.0194  0.8080
   93MOL    C4935193   5.634   5.555   2.290  0.2805 -0.3934  0.7937
   93MOL    C5035194   5.730   5.474   2.364  0.3636  0.6467 -0.1219
   93MOL    H5135195   6.384   5.475   2.271 -2.5110 -2.5041 -0.1060
   93MOL    H5235196   6.165   5.387   2.274  0.1509 -0.0097  0.5016
   93MOL    H5335197   6.096   5.589   2.503 -0.4437  0.3544 -1.7460
   93MOL    H5435198   6.136   5.424   2.532  1.9503 -2.3094 -2.2818
   93MOL    H5535199   6.002   5.680   2.315 -0.3501  0.9347  2.5716
   93MOL    H5635200   5.836   5.815   2.210  0.4313 -1.2457 -2.2109
   93MOL    H5735201   5.597   5.731   2.168 -0.5843 -0.7866  0.1274
   93MOL    H5835202   5.533   5.520   2.274 -0.8456  2.8979  0.3745
   93MOL    C5935203   5.690   5.346   2.438 -0.5846 -0.8866 -0.0106
   93MOL    C6035204   5.656   5.336   2.588 -0.5403 -0.4463 -0.2760
   93MOL    O6135205   5.553   5.345   2.485 -0.4891  0.3174  0.2927
   93MOL    C6235206   5.658   5.449   2.687 -0.1179  0.1154 -0.6809
   93MOL    O6335207   5.564   5.435   2.800  0.2933  0.2615  0.4345
   93MOL    C6435208   5.430   5.445   2.772  0.4344  0.3199  0.4038
   93MOL    C6535209   5.360   5.324   2.781  0.3642  0.2609 -0.4090
   93MOL    C6635210   5.222   5.316   2.754  0.3738  0.3553 -0.1860
   93MOL    C6735211   5.156   5.434   2.719 -0.2688  0.0372 -0.0765
   93MOL    C6835212   5.219   5.559   2.722 -0.0444  0.4601 -0.1372
   93MOL    C6935213   5.355   5.567   2.761 -0.8105  0.1241  0.1575
   93MOL    H7035214   5.717   5.253   2.388 -2.1020 -1.7058  0.6735
   93MOL    H7135215   5.675   5.235   2.626  4.1683 -0.4447 -2.3522
   93MOL    H7235216   5.649   5.539   2.626  0.0863  1.1494  0.7900
   93MOL    H7335217   5.758   5.444   2.729 -0.6482 -0.1040  0.5791
   93MOL    H7435218   5.422   5.242   2.815 -0.1269 -0.1328 -0.4500
   93MOL    H7535219   5.177   5.218   2.759 -1.3284  1.1625  0.5639
   93MOL    H7635220   5.053   5.433   2.687 -0.3918 -2.3743  0.3231
   93MOL    H7735221   5.162   5.650   2.707  0.6544  0.6727 -1.5743
   93MOL    C7835222   5.420   5.703   2.761  0.8307 -0.2461  0.1842
   93MOL    C7935223   5.407   5.809   2.656 -0.3215  0.0935 -0.5438
   93MOL    O8035224   5.313   5.810   2.760  0.7502  0.1786 -0.8599
   93MOL    C8135225   5.359   5.778   2.511 -0.3516 -0.2485 -0.7812
   93MOL    O8235226   5.372   5.899   2.444  0.1308  0.3297 -0.2741
   93MOL    C8335227   5.347   5.895   2.308 -0.2517  0.0487 -0.2054
   93MOL    C8435228   5.309   5.786   2.230 -0.4558 -0.4780 -0.3102
   93MOL    C8535229   5.310   5.803   2.091  0.6351 -0.0242 -0.4531
   93MOL    C8635230   5.322   5.927   2.026  0.1353 -0.1089 -0.6104
   93MOL    C8735231   5.355   6.039   2.105 -0.0447  0.1282 -0.5958
   93MOL    C8835232   5.377   6.018   2.240 -0.4761 -0.2099 -0.3704
   93MOL    H8935233   5.498   5.711   2.837 -0.0745  0.4843  1.0475
   93MOL    H9035234   5.480   5.888   2.673  0.9864 -1.3537  0.6580
   93MOL    H9135235   5.259   5.735   2.500 -0.0981 -1.5543  1.7947
   93MOL    H9235236   5.435   5.708   2.474  0.8379 -0.2146  1.5412
   93MOL    H9335237   5.293   5.689   2.273  1.7945  0.0164  1.7697
   93MOL    H9435238   5.272   5.722   2.031  3.1015  0.0223 -2.1505
   93MOL    H9535239   5.314   5.942   1.919  1.4920  3.5358 -0.2569
   93MOL    H9635240   5.358   6.138   2.063  1.2167  1.2832  2.1201
   93MOL    C9735241   5.428   6.124   2.333  0.3315  0.1663  0.1923
   93MOL    C9835242   5.574   6.162   2.341  0.8342 -0.1713  0.2079
   93MOL    O9935243   5.476   6.239   2.270 -0.4508  0.1740  0.2892
   93MOL   C10035244   5.684   6.084   2.268 -0.3233  0.1386  0.0340
   93MOL   O10135245   5.785   6.173   2.222  0.0651  0.3277  0.3558
   93MOL   C10235246   5.766   6.271   2.125 -0.7038 -0.0147  0.1718
   93MOL   C10335247   5.660   6.281   2.035 -0.0372 -0.6964  0.5220
   93MOL   C10435248   5.648   6.384   1.943 -0.3149 -0.5714  0.5168
   93MOL   C10535249   5.753   6.480   1.931  0.1434 -0.0795  0.6777
   93MOL   C10635250   5.855   6.476   2.028  0.0454 -0.2585  0.2289
   93MOL   C10735251   5.868   6.370   2.122 -0.8531 -0.3570 -0.1494
   93MOL   H10835252   5.359   6.141   2.415  0.0905 -0.9415  0.2211
   93MOL   H10935253   5.613   6.211   2.430  0.2663 -0.2038  0.4733
   93MOL   H11035254   5.640   6.038   2.179 -2.3022  0.7872  0.6302
   93MOL   H11135255   5.723   5.996   2.318  0.1765 -0.7155 -1.8256
   93MOL   H11235256   5.574   6.216   2.037 -0.2265 -0.5812 -1.9303
   93MOL   H11335257   5.568   6.376   1.871 -0.2673 -1.5587  0.5770
   93MOL   H11435258   5.743   6.559   1.858 -0.4551  0.7703  1.6558
   93MOL   H11535259   5.925   6.558   2.027 -1.0638  0.7504  1.7656
   93MOL   C11635260   5.983   6.376   2.224 -0.0225  0.1075  0.2869
   93MOL   C11735261   6.128   6.397   2.188 -0.1159 -0.0072  0.0414
   93MOL   O11835262   6.041   6.506   2.228 -0.0853 -0.1943 -0.1888
   93MOL   C11935263   6.170   6.379   2.039 -0.2617 -0.0763  0.0609
   93MOL   O12035264   6.282   6.298   2.022  0.4098  0.3260  0.4543
   93MOL   C12135265   6.269   6.160   2.027 -0.2016 -0.1509 -0.8846
   93MOL   C12235266   6.155   6.088   2.065  0.1017 -0.4040  0.1482
   93MOL   C12335267   6.159   5.945   2.077 -0.3661 -0.2270 -0.0609
   93MOL   C12435268   6.265   5.869   2.037 -0.4166  0.2643 -0.5401
   93MOL   C12535269   6.381   5.942   2.006  0.2091 -0.1917 -0.2861
   93MOL   C12635270   6.388   6.084   2.003  0.9872 -0.0430  0.1193
   93MOL   H12735271   5.960   6.345   2.325  1.4002  3.0450  1.5764
   93MOL   H12835272   6.210   6.388   2.259  0.2528  1.7414 -0.1334
   93MOL   H12935273   6.191   6.478   1.999  0.9961 -0.9494 -1.5024
   93MOL   H13035274   6.096   6.333   1.974  1.8553  1.1396 -3.3683
   93MOL   H13135275   6.060   6.138   2.073 -0.3772 -1.2248 -0.2867
   93MOL   H13235276   6.075   5.891   2.120 -1.2118  0.9744 -0.1613
   93MOL   H13335277   6.271   5.762   2.056 -0.8464  0.8596  3.4545
   93MOL   H13435278   6.471   5.885   1.985 -0.5587 -1.2007 -0.8879
   93MOL   C13535279   6.512   6.155   1.957 -0.5908 -0.1003 -0.0894
   93MOL   C13635280   6.624   6.203   2.043  0.0255 -0.3912 -0.9299
   93MOL   O13735281   6.641   6.087   1.967 -0.2186 -0.4844  0.1694
   93MOL   C13835282   6.616   6.175   2.192 -0.1077 -0.0945  0.1298
   93MOL   O13935283   6.744   6.166   2.250 -0.3003 -0.5348  0.5668
   93MOL   C14035284   6.759   6.137   2.385  0.1760  0.4462  1.1751
   93MOL   C14135285   6.659   6.155   2.476  0.1571  0.1670  0.1840
   93MOL   C14235286   6.662   6.100   2.605 -0.7541  0.7765  0.2628
   93MOL   C14335287   6.778   6.038   2.652 -0.1926  0.5699 -0.0742
   93MOL   C14435288   6.882   6.015   2.559 -0.0014 -0.1192  0.4954
   93MOL   C14535289   6.874   6.063   2.424  0.2912 -0.1203 -1.0406
   93MOL   H14635290   6.504   6.209   1.863  0.5354 -3.3445 -2.1422
   93MOL   H14735291   6.691   6.283   2.011 -1.6026  2.1153  1.7184
   93MOL   H14835292   6.556   6.088   2.219  2.9510 -2.5120 -0.5910
   93MOL   H14935293   6.563   6.266   2.220 -0.2547 -0.4413  1.0108
   93MOL   H15035294   6.564   6.205   2.461 -0.2145 -0.2473  1.1281
   93MOL   H15135295   6.581   6.118   2.675  0.4894  0.2477  1.8633
   93MOL   H15235296   6.786   6.005   2.755 -1.5645 -0.5520 -0.3201
   93MOL   H15335297   6.974   5.967   2.589  0.3575 -0.4050 -1.0220
   93MOL   C15435298   6.986   6.041   2.324  0.4954 -0.0662 -0.3522
   93MOL   C15535299   7.103   6.139   2.316  0.2145  0.6434  0.2676
   93MOL   O15635300   7.114   6.003   2.372 -0.3810  0.5920 -0.2070
   93MOL   C15735301   7.136   6.259   2.407 -0.6141  0.9151  0.2681
   93MOL   O15835302   7.277   6.259   2.404 -0.5036  0.2501 -0.4804
   93MOL   C15935303   7.325   6.346   2.500  0.1621  0.0365  0.7473
   93MOL   C16035304   7.379   6.466   2.456 -0.1433  0.0934  0.2782
   93MOL   C16135305   7.436   6.557   2.551  0.0368  0.3365  0.2656
   93MOL   C16235306   7.441   6.518   2.685 -0.5800  0.1046  1.0040
   93MOL   C16335307   7.376   6.399   2.730  0.6357  0.4449 -0.6366
   93MOL   C16435308   7.328   6.307   2.638  0.2978  0.3903  0.6399
   93MOL   H16535309   6.953   6.010   2.225 -1.2580  1.7067 -0.3391
   93MOL   H16635310   7.150   6.139   2.218  1.8649 -2.7758  0.9577
   93MOL   H16735311   7.093   6.237   2.505  1.6766  1.4963  1.4326
   93MOL   H16835312   7.091   6.351   2.372  1.6187  2.0606  0.3067
   93MOL   H16935313   7.382   6.490   2.351 -1.4749  1.1936  0.4749
   93MOL   H17035314   7.478   6.648   2.512 -1.1948  0.4627 -0.8057
   93MOL   H17135315   7.487   6.580   2.759  2.0064  0.0648 -0.5148
   93MOL   H17235316   7.376   6.377   2.835  0.3970  1.5862 -0.3987
   93MOL   C17335317   7.267   6.177   2.681  0.1175 -0.1564 -0.2108
   93MOL   C17435318   7.313   6.037   2.641 -0.0801 -0.0837 -0.1474
   93MOL   O17535319   7.359   6.100   2.761 -0.3853 -0.0773  0.4483
   93MOL   C17635320   7.415   6.010   2.536 -0.1760  0.5866  0.6039
   93MOL   O17735321   7.443   5.869   2.545 -1.0534  0.1414 -0.4677
   93MOL   C17835322   7.500   5.809   2.433 -0.2555  0.7156  0.0538
   93MOL   C17935323   7.582   5.881   2.349  1.0609 -0.0056 -0.6875
   93MOL   C18035324   7.644   5.814   2.242  0.0157  0.2573  0.0552
   93MOL   C18135325   7.622   5.677   2.229  0.0519 -0.1713 -0.3752
   93MOL   C18235326   7.537   5.610   2.314 -0.0501 -0.7745 -0.1284
   93MOL   C18335327   7.473   5.673   2.420 -0.4043  0.3098 -0.5110
   93MOL   H18435328   7.165   6.188   2.718 -0.5770  0.8073 -2.3584
   93MOL   H18535329   7.226   5.972   2.650 -2.2313  2.8959  1.2997
   93MOL   H18635330   7.504   6.071   2.554 -1.3478  2.2326  0.9591
   93MOL   H18735331   7.366   6.031   2.441 -0.3170 -1.5840  0.1779
   93MOL   H18835332   7.590   5.989   2.357  1.0703 -0.0200 -0.5053
   93MOL   H18935333   7.712   5.865   2.174 -2.6047  1.4414 -1.7377
   93MOL   H19035334   7.661   5.634   2.138 -0.7852  1.4574 -1.5269
   93MOL   H19135335   7.525   5.506   2.288 -0.6733 -0.8444  0.4285
   93MOL   C19235336   7.383   5.593   2.517  0.9497  0.5697  0.6339
   93MOL   C19335337   7.236   5.580   2.488  0.1336 -0.0423  0.5042
   93MOL   O19435338   7.326   5.473   2.458  0.6783  0.4261  0.5822
   93MOL   C19535339   7.171   5.652   2.373 -0.1710 -0.8141 -1.1010
   93MOL   O19635340   7.047   5.589   2.352 -0.3579  0.2867 -0.7779
   93MOL   C19735341   6.972   5.666   2.266 -0.0872  0.6157  1.2300
   93MOL   C19835342   6.863   5.729   2.324  0.2389 -0.5440  0.0585
   93MOL   C19935343   6.758   5.779   2.238 -0.6740  0.8481  0.2188
   93MOL   C20035344   6.776   5.781   2.099  0.3156  0.3607  0.1568
   93MOL   C20135345   6.890   5.726   2.038  0.0582  0.0215  0.1202
   93MOL   C20235346   6.984   5.659   2.122  0.2493 -0.2493  0.6870
   93MOL   H20335347   7.414   5.574   2.619 -1.5359 -1.7425  1.0190
   93MOL   H20435348   7.169   5.570   2.573  0.4094  0.7037  0.8236
   93MOL   H20535349   7.237   5.640   2.286  1.8256  1.1963  0.0803
   93MOL   H20635350   7.172   5.755   2.408 -0.8585 -1.6261  1.3584
   93MOL   H20735351   6.854   5.738   2.431 -1.7659 -0.5193 -0.0797
   93MOL   H20835352   6.670   5.825   2.279  0.2439  2.9390 -0.0914
   93MOL   H20935353   6.712   5.841   2.036  2.2020  0.8414 -1.3569
   93MOL   H21035354   6.902   5.734   1.931 -1.7815  1.1510 -0.0217
   93MOL   C21135355   7.090   5.582   2.047  0.2805 -0.4717  0.2999
   93MOL   C21235356   7.083   5.437   2.009 -0.1189  0.4375  0.3098
   93MOL   O21335357   7.066   5.543   1.910  0.3109  0.2159 -0.1475
   93MOL   C21435358   6.959   5.352   2.033 -0.4798 -0.2615  0.2128
   93MOL   O21535359   6.950   5.247   1.937 -0.0379  0.3539  0.1102
   93MOL   C21635360   6.839   5.159   1.946  0.1479  0.4797 -0.2854
   93MOL   C21735361   6.757   5.157   2.063  0.2502 -0.2701  0.0216
   93MOL   C21835362   6.638   5.073   2.070 -0.5209 -0.1409  0.0168
   93MOL   C21935363   6.617   4.974   1.970  0.2180  0.0367 -0.3082
   93MOL   C22035364   6.700   4.970   1.856  0.3097  0.1291  0.3419
   93MOL   C22135365   6.809   5.062   1.848  0.2637  0.1748 -0.0960
   93MOL   H22235366   7.192   5.602   2.081  1.0200 -1.9411 -1.0057
   93MOL   H22335367   7.169   5.380   1.975 -0.1132 -0.3986  1.6672
   93MOL   H22435368   6.868   5.412   2.023  0.1337  0.6140 -0.1982
   93MOL   H22535369   6.963   5.312   2.134  0.1765  0.3640  0.4402
   93MOL   H22635370   6.774   5.221   2.148  0.7125 -0.8196  0.3464
   93MOL   H22735371   6.583   5.065   2.163 -2.1377  0.6677 -0.8559
   93MOL   H22835372   6.535   4.905   1.981 -0.8130  1.4288  0.9282
   93MOL   H22935373   6.675   4.902   1.776  1.4351  2.5505 -2.1296
   93MOL   C23035374   6.899   5.053   1.720  0.1367  0.1875 -0.0785
   93MOL   C23135375   7.041   5.006   1.729 -0.7539 -0.0928  0.3904
   93MOL   O23235376   6.936   4.921   1.694 -0.5714 -0.3898 -0.1555
   93MOL   C23335377   7.108   4.976   1.868  0.3646 -0.1459 -0.2832
   93MOL   O23435378   7.239   4.925   1.846  0.5302  0.0574  0.0530
   93MOL   C23535379   7.330   5.023   1.828  0.5315  0.5164 -0.2980
   93MOL   C23635380   7.298   5.159   1.802 -0.5425  0.4385  0.5914
   93MOL   C23735381   7.393   5.259   1.797 -0.4737  0.1723 -0.1525
   93MOL   C23835382   7.528   5.226   1.826 -0.8143  0.4262  0.1409
   93MOL   C23935383   7.564   5.090   1.856 -0.8386  0.5933 -0.1676
   93MOL   C24035384   7.466   4.988   1.850  0.5129 -0.7048 -0.2485
   93MOL   H24135385   6.861   5.112   1.637 -1.1547  0.5300  0.7309
   93MOL   H24235386   7.109   5.027   1.647 -1.5306  0.6194 -0.0938
   93MOL   H24335387   7.049   4.900   1.919  0.2617  0.4615  0.5032
   93MOL   H24435388   7.107   5.055   1.943 -2.2013  1.0085 -1.4364
   93MOL   H24535389   7.196   5.196   1.796 -1.1323 -1.1295  0.7512
   93MOL   H24635390   7.373   5.364   1.780 -0.0236  0.1523 -0.8016
   93MOL   H24735391   7.600   5.306   1.815  0.8781 -1.1096 -0.3165
   93MOL   H24835392   7.667   5.059   1.869 -1.0302  0.5082  1.2119
   93MOL   C24935393   7.509   4.848   1.884 -0.1945 -0.0243 -0.0815
   93MOL   C25035394   7.478   4.717   1.809  0.2519  0.0330 -0.2134
   93MOL   O25135395   7.595   4.793   1.795 -0.6581  0.0777  0.0758
   93MOL   C25235396   7.387   4.716   1.687 -0.5493 -0.0205  0.5723
   93MOL   O25335397   7.436   4.627   1.590  0.6729 -0.2219  0.1790
   93MOL   C25435398   7.406   4.496   1.600 -0.4199  0.5538 -0.0464
   93MOL   C25535399   7.339   4.435   1.711 -0.3029 -0.2071 -0.0590
   93MOL   C25635400   7.327   4.295   1.732  0.1784  0.5069 -0.5758
   93MOL   C25735401   7.388   4.215   1.637 -0.6404 -0.3066 -0.4059
   93MOL   C25835402   7.441   4.268   1.519 -0.4446  0.3714  0.0483
   93MOL   C25935403   7.449   4.405   1.496  0.7166 -0.3761  0.0276
   93MOL   H26035404   7.539   4.843   1.989  0.1031  0.2635 -0.1539
   93MOL   H26135405   7.488   4.625   1.866  1.1995  0.1987 -0.1179
   93MOL   H26235406   7.403   4.809   1.634 -0.2276  1.0576  2.5055
   93MOL   H26335407   7.282   4.710   1.716 -0.4954 -1.1175  0.5820
   93MOL   H26435408   7.287   4.502   1.778  0.0372 -0.8767  0.8931
   93MOL   H26535409   7.270   4.251   1.813 -0.9991  2.0912 -0.5307
   93MOL   H26635410   7.377   4.110   1.662  3.0601 -0.7958 -0.6363
   93MOL   H26735411   7.477   4.208   1.436 -2.8825  1.0823 -1.5894
   93MOL   C26835412   7.514   4.455   1.371 -0.7329 -0.3011  0.1382
   93MOL   C26935413   7.659   4.435   1.321  0.2073  0.3435  0.6967
   93MOL   O27035414   7.541   4.354   1.277 -0.5274  0.1514 -0.1622
   93MOL   C27135415   7.755   4.356   1.402 -0.1253  0.6112  0.3517
   93MOL   O27235416   7.847   4.315   1.297  0.3881 -0.2463 -0.0594
   93MOL   C27335417   7.934   4.216   1.331  0.2619  0.2470  0.5313
   93MOL   C27435418   8.060   4.250   1.385 -0.4755 -0.3573 -0.7832
   93MOL   C27535419   8.137   4.147   1.432 -0.4311  0.0290 -0.6287
   93MOL   C27635420   8.098   4.011   1.404  0.4071  0.3538 -0.1421
   93MOL   C27735421   7.973   3.981   1.341 -0.5686 -0.2189 -0.3506
   93MOL   C27835422   7.888   4.086   1.310 -0.7542  1.0077 -0.6442
   93MOL   H27935423   7.451   4.536   1.335 -0.3908 -1.0734 -2.2959
   93MOL   H28035424   7.703   4.492   1.240 -1.7873  1.3316  0.2770
   93MOL   H28135425   7.702   4.276   1.454  0.2590  0.1629  0.0625
   93MOL   H28235426   7.806   4.420   1.473  1.7193 -0.7683  0.3190
   93MOL   H28335427   8.091   4.353   1.396 -0.6286 -0.6185  2.3316
   93MOL   H28435428   0.063   4.166   1.479 -1.1281 -0.0091  0.8248
   93MOL   H28535429   8.164   3.933   1.441  0.3695 -0.7962 -2.4064
   93MOL   H28635430   7.951   3.876   1.337 -1.6916 -0.0364  0.6681
   93MOL   C28735431   7.746   4.057   1.274 -0.9222  0.5146 -0.7243
   93MOL   C28835432   7.695   4.051   1.137  0.1308  0.3769 -0.6730
   93MOL   O28935433   7.732   3.930   1.206  0.0122  0.7080 -0.5441
   93MOL   C29035434   7.778   4.080   1.017 -0.5618  0.0061  0.0014
   93MOL   O29135435   7.723   4.021   0.901 -0.2501  0.3282  0.4773
   93MOL   C29235436   7.748   4.083   0.781 -0.0455 -0.1963 -0.0182
   93MOL   C29335437   7.872   4.142   0.752  0.2109  0.4863  0.3691
   93MOL   C29435438   7.898   4.195   0.625  0.0828  0.1407 -1.0432
   93MOL   C29535439   7.799   4.180   0.524  0.8348 -0.3255 -0.0149
   93MOL   C29635440   7.676   4.128   0.550 -0.1723 -0.4345 -0.9456
   93MOL   C29735441   7.643   4.096   0.684  0.6326  0.3537  0.0398
   93MOL   H29835442   7.670   4.072   1.350  0.1113 -0.3072  0.4927
   93MOL   H29935443   7.588   4.062   1.121  0.1412  0.4141 -0.7173
   93MOL   H30035444   7.881   4.045   1.026  0.7723  3.7536  0.4467
   93MOL   H30135445   7.782   4.188   1.003  0.6383 -0.2177 -1.6063
   93MOL   H30235446   7.944   4.138   0.832  1.1630 -0.0407 -0.4902
   93MOL   H30335447   7.992   4.241   0.597  1.2944 -2.4835 -1.5113
   93MOL   H30435448   7.814   4.217   0.424 -2.5457 -0.2057 -0.5544
   93MOL   H30535449   7.599   4.129   0.473  2.7151  0.8240 -3.9683
   93MOL   C30635450   7.497   4.057   0.705 -0.0161 -0.2992 -0.8912
   93MOL   C30735451   7.401   4.156   0.776  0.1590 -0.0589 -0.1842
   93MOL   O30835452   7.409   4.147   0.636 -0.1781  0.1456 -0.3016
   93MOL   C30935453   7.452   4.283   0.829  0.5088 -0.1746  0.0560
   93MOL   O31035454   7.347   4.373   0.866  0.1085  0.4001 -0.3566
   93MOL   C31135455   7.378   4.493   0.927 -0.5542 -0.7739 -0.2803
   93MOL   C31235456   7.503   4.550   0.913  0.9914 -0.7729  0.7373
   93MOL   C31335457   7.522   4.682   0.962 -0.1484 -1.0397  0.0506
   93MOL   C31435458   7.419   4.751   1.027  0.2499  0.2977 -0.0300
   93MOL   C31535459   7.294   4.688   1.051  0.4221 -0.5590 -0.0577
   93MOL   C31635460   7.273   4.560   0.991 -0.3718 -0.1101  0.1472
   93MOL   H31735461   7.478   3.950   0.700  0.0193 -0.3313 -0.3415
   93MOL   H31835462   7.305   4.123   0.815 -0.1024  0.9177  0.0211
   93MOL   H31935463   7.511   4.323   0.746 -2.2959 -0.9759 -2.4290
   93MOL   H32035464   7.520   4.267   0.913 -0.1030  1.2295  0.8337
   93MOL   H32135465   7.587   4.503   0.865  1.9939  0.9960  0.6970
   93MOL   H32235466   7.618   4.730   0.943  0.6451 -2.2408  0.9590
   93MOL   H32335467   7.430   4.854   1.057  1.4493  0.9397 -2.5361
   93MOL   H32435468   7.211   4.742   1.094 -0.8393 -1.0791 -1.7546
   93MOL   C32535469   7.139   4.502   0.987  0.4704 -0.3452  0.1147
   93MOL   C32635470   7.073   4.404   1.082  0.2433  0.0389  0.4614
   93MOL   O32735471   7.041   4.550   1.083 -0.3088  0.5273 -0.0190
   93MOL   C32835472   7.151   4.344   1.198 -0.1684 -0.0346 -0.2203
   93MOL   O32935473   7.066   4.318   1.308 -0.0305 -0.0418  0.0346
   93MOL   C33035474   7.056   4.407   1.415  0.2391 -0.2540  0.0241
   93MOL   C33135475   7.121   4.534   1.428  0.2953  0.3435  0.1832
   93MOL   C33235476   7.088   4.622   1.534 -0.0544  0.4784  0.0686
   93MOL   C33335477   6.997   4.583   1.640  0.3812 -0.2358  0.0733
   93MOL   C33435478   6.937   4.458   1.626 -0.3807  0.5162  0.3345
   93MOL   C33535479   6.970   4.370   1.518 -0.2076  0.2782 -1.3998
   93MOL   H33635480   7.095   4.504   0.887 -1.2966  0.6168  0.8861
   93MOL   H33735481   6.993   4.335   1.055  1.1907 -0.7351 -0.3881
   93MOL   H33835482   7.248   4.389   1.223 -0.7943  1.3525 -0.2309
   93MOL   H33935483   7.182   4.248   1.158 -1.7873 -0.7171  0.1535
   93MOL   H34035484   7.192   4.570   1.355 -0.0761  0.2914 -0.2012
   93MOL   H34135485   7.140   4.716   1.542  0.8789  0.0532 -0.8261
   93MOL   H34235486   6.972   4.658   1.714  2.0347  0.3618  0.0505
   93MOL   H34335487   6.856   4.429   1.692 -1.1827 -0.3392 -0.9964
   93MOL   C34435488   6.900   4.237   1.515  0.0838 -0.6557  0.4858
   93MOL   C34535489   6.936   4.111   1.593  0.2926 -0.3774  0.1352
   93MOL   O34635490   6.841   4.208   1.641  0.4885  0.1189  0.3750
   93MOL   C34735491   7.048   4.106   1.683 -0.0674  0.1917 -0.3623
   93MOL   O34835492   7.026   4.028   1.799  0.1561 -0.0617  0.3474
   93MOL   C34935493   7.085   3.907   1.816  0.0641 -0.1844  0.2487
   93MOL   C35035494   7.100   3.823   1.703  0.8029  0.3211  0.2932
   93MOL   C35135495   7.161   3.700   1.722 -0.3218  0.3066  0.0086
   93MOL   C35235496   7.198   3.658   1.848  0.3191 -0.2241 -0.5439
   93MOL   C35335497   7.166   3.739   1.958 -0.4230  0.0909 -0.6352
   93MOL   C35435498   7.103   3.864   1.950 -0.1066 -0.4053  0.0068
   93MOL   H35535499   6.830   4.236   1.432  0.9916 -0.0886 -0.2985
   93MOL   H35635500   6.881   4.023   1.560 -0.8513  0.7504 -0.9893
   93MOL   H35735501   7.087   4.204   1.711  1.2519 -0.1872 -0.8500
   93MOL   H35835502   7.137   4.066   1.634 -0.9304 -1.3158 -0.7083
   93MOL   H35935503   7.064   3.845   1.604  1.6648 -2.0232 -0.5702
   93MOL   H36035504   7.165   3.630   1.639 -1.1094  1.0905 -0.7091
   93MOL   H36135505   7.251   3.567   1.872  0.9740  0.5199  0.9036
   93MOL   H36235506   7.193   3.703   2.056 -0.0479 -1.7644 -1.4061
   93MOL   C36335507   7.069   3.949   2.064 -0.0245  0.1087 -0.1374
   93MOL   C36435508   6.959   3.904   2.161 -0.1806 -0.4076 -0.2649
   93MOL   O36535509   7.097   3.886   2.189 -0.5281 -0.0072 -0.5163
   93MOL   C36635510   6.881   3.777   2.158 -0.0870 -0.2345  0.2316
   93MOL   O36735511   6.802   3.775   2.275  0.3240  0.0341 -0.8085
   93MOL   C36835512   6.699   3.686   2.279 -0.5058 -0.5567 -0.7420
   93MOL   C36935513   6.600   3.703   2.383 -0.1436  0.2936  0.3839
   93MOL   C37035514   6.482   3.629   2.378  0.2403 -0.2767  0.1511
   93MOL   C37135515   6.468   3.528   2.283 -0.3201  0.4244  0.1918
   93MOL   C37235516   6.575   3.484   2.202 -0.3250 -0.4548  0.1750
   93MOL   C37335517   6.692   3.571   2.197 -0.4042  0.7622 -0.0678
   93MOL   H37435518   7.094   4.055   2.055  0.8356 -0.2739 -2.9141
   93MOL   H37535519   6.928   3.978   2.234 -1.9247 -1.6292  0.2667
   93MOL   H37635520   6.946   3.689   2.158  0.3532  0.0676 -1.8436
   93MOL   H37735521   6.809   3.773   2.076 -1.9350  1.3793  1.7387
   93MOL   H37835522   6.609   3.785   2.452  2.4772  1.1940 -0.9699
   93MOL   H37935523   6.404   3.654   2.449  0.5027  0.9603  0.0100
   93MOL   H38035524   6.372   3.483   2.263 -0.0025 -0.8724  1.4875
   93MOL   H38135525   6.558   3.402   2.133 -1.6692  0.0051 -0.0475
   93MOL   H38235526   6.761   3.545   2.118 -2.5069  0.8908 -1.9858
   94MOL     C135527   2.395   2.611   2.519 -0.4885  0.1265  0.8471
   94MOL     C235528   2.458   2.526   2.625  0.0306 -0.1009  0.3408
   94MOL     O335529   2.536   2.579   2.520  0.5348 -0.2850 -0.6851
   94MOL     C435530   2.445   2.375   2.617  0.3071 -0.2764 -0.1220
   94MOL     O535531   2.563   2.328   2.676  0.0588  0.5953  0.2841
   94MOL     C635532   2.571   2.297   2.810 -0.0149  0.3862  0.0296
   94MOL     C735533   2.456   2.295   2.895  0.3871  0.7696  0.1418
   94MOL     C835534   2.470   2.255   3.028 -0.1413  0.0250  0.0993
   94MOL     C935535   2.598   2.225   3.078  1.0380  0.3265  0.5487
   94MOL    C1035536   2.714   2.220   2.992  0.4568  0.3777  0.0026
   94MOL    C1135537   2.698   2.261   2.858 -0.5085 -0.1064  0.5595
   94MOL    H1235538   2.373   2.714   2.542 -0.0530  0.0837  1.4514
   94MOL    H1335539   2.464   2.574   2.723  1.3649  0.7372 -0.1449
   94MOL    H1435540   2.445   2.333   2.516  0.0748 -0.2321 -0.1407
   94MOL    H1535541   2.355   2.343   2.669  0.7249 -2.2461 -0.5471
   94MOL    H1635542   2.357   2.327   2.866 -0.5298 -0.8772  1.4016
   94MOL    H1735543   2.386   2.263   3.095 -1.3812  0.5747 -1.4762
   94MOL    H1835544   2.596   2.190   3.180 -1.3607  1.1913  0.8434
   94MOL    H1935545   2.810   2.180   3.022  1.1445  1.4447 -0.7531
   94MOL    H2035546   2.323   2.565   2.451 -0.4955  0.2469  0.7739
   94MOL    C2135547   2.816   2.246   2.759 -0.0106  0.1885  0.2205
   94MOL    C2235548   2.890   2.356   2.701  0.2100 -0.6136 -0.2710
   94MOL    O2335549   2.945   2.284   2.811  0.1995 -0.6620  0.5528
   94MOL    C2435550   2.838   2.499   2.721 -0.7013 -0.0787  0.1535
   94MOL    O2535551   2.931   2.606   2.703 -0.1418  1.2364  0.3013
   94MOL    C2635552   3.029   2.621   2.798 -0.7176  0.0704 -0.2262
   94MOL    C2735553   3.037   2.553   2.921  0.2971  0.7881  0.3080
   94MOL    C2835554   3.143   2.577   3.014 -0.1885  0.2043  0.1274
   94MOL    C2935555   3.241   2.669   2.976 -0.2349 -0.2378  0.5370
   94MOL    C3035556   3.231   2.739   2.854 -0.0125  0.2858 -0.3724
   94MOL    C3135557   3.120   2.726   2.773  0.3943 -0.3953 -0.2005
   94MOL    H3235558   2.815   2.153   2.702 -2.2332  1.0412 -1.1609
   94MOL    H3335559   2.929   2.329   2.603  0.5277  0.1298 -0.3492
   94MOL    H3435560   2.774   2.516   2.808 -0.0336 -0.1530  0.6664
   94MOL    H3535561   2.773   2.517   2.635 -1.3374 -0.1441  0.6148
   94MOL    H3635562   2.965   2.480   2.955 -0.2701  1.6999  1.0747
   94MOL    H3735563   3.147   2.527   3.110 -1.4215 -0.7480 -0.3124
   94MOL    H3835564   3.327   2.676   3.042  0.6893 -2.0637 -0.4257
   94MOL    H3935565   3.316   2.804   2.839  1.2536 -0.4994  3.0345
   94MOL    C4035566   3.112   2.808   2.648 -0.5909 -1.3864  0.5013
   94MOL    C4135567   3.078   2.955   2.652 -0.3020  0.8448  0.2478
   94MOL    O4235568   3.214   2.911   2.649 -0.3208  0.1673  0.0662
   94MOL    C4335569   3.042   3.028   2.781  0.4343 -0.5054  0.0187
   94MOL    O4435570   2.955   3.146   2.760  0.3608 -0.1197  0.0542
   94MOL    C4535571   2.833   3.125   2.702 -0.0823 -0.0743  0.1957
   94MOL    C4635572   2.754   3.009   2.727  0.5807 -0.4478  0.8645
   94MOL    C4735573   2.627   2.989   2.662 -0.1949  0.0801  0.3687
   94MOL    C4835574   2.577   3.086   2.577 -0.1014  0.1604  0.0741
   94MOL    C4935575   2.661   3.199   2.547 -0.7073 -0.5347  0.0351
   94MOL    C5035576   2.784   3.222   2.611  0.0552  0.4256 -0.4893
   94MOL    H5135577   3.091   2.759   2.554 -0.8831  0.7617 -0.5724
   94MOL    H5235578   3.045   3.001   2.559 -1.0928 -1.7360 -0.8034
   94MOL    H5335579   3.128   3.054   2.843  1.1287 -0.3561 -1.0005
   94MOL    H5435580   2.998   2.965   2.859 -2.8756  0.1345 -1.2923
   94MOL    H5535581   2.796   2.934   2.793 -1.9022 -0.0403  3.0027
   94MOL    H5635582   2.579   2.893   2.676  1.9678 -1.2510 -0.9876
   94MOL    H5735583   2.486   3.065   2.524 -0.3929 -0.2889  0.7516
   94MOL    H5835584   2.626   3.269   2.473  0.6648 -0.6889 -0.7789
   94MOL    C5935585   2.860   3.350   2.578  0.5348  0.2562  0.0223
   94MOL    C6035586   2.903   3.385   2.437 -0.1623  0.3563  0.0503
   94MOL    O6135587   2.798   3.454   2.504 -0.4632 -0.2624 -0.3860
   94MOL    C6235588   2.875   3.295   2.318  0.3451  0.4420  0.6034
   94MOL    O6335589   2.971   3.316   2.219 -0.3561 -0.3894  0.4922
   94MOL    C6435590   2.954   3.388   2.101  0.5038 -0.7509  0.3310
   94MOL    C6535591   2.830   3.444   2.058  0.0460  0.1085  0.5893
   94MOL    C6635592   2.829   3.512   1.935 -0.8991 -0.4858  0.3754
   94MOL    C6735593   2.948   3.522   1.861 -0.2540  0.0998  0.3582
   94MOL    C6835594   3.067   3.464   1.903  1.0611  0.2163  0.7776
   94MOL    C6935595   3.071   3.398   2.026  0.1766 -0.7235 -0.0220
   94MOL    H7035596   2.916   3.389   2.663  3.3709 -2.0012 -0.7072
   94MOL    H7135597   2.993   3.445   2.426  1.2978 -1.8581 -0.7030
   94MOL    H7235598   2.769   3.303   2.292  0.7398 -0.3948 -1.3240
   94MOL    H7335599   2.892   3.190   2.342 -0.5919  0.2029  0.2511
   94MOL    H7435600   2.739   3.413   2.107 -1.0419  1.1199 -0.7894
   94MOL    H7535601   2.739   3.548   1.887  0.2199 -0.8180 -2.0234
   94MOL    H7635602   2.945   3.559   1.760 -0.1282 -0.0627  0.2969
   94MOL    H7735603   3.160   3.470   1.848  0.6191 -4.2629 -0.6910
   94MOL    C7835604   3.193   3.326   2.074 -0.4352  0.2372  0.4196
   94MOL    C7935605   3.233   3.185   2.014  0.5456  0.3321 -1.1464
   94MOL    O8035606   3.286   3.305   1.964 -0.3115 -0.7581  0.6336
   94MOL    C8135607   3.147   3.099   1.924  0.3103  0.4450  0.2822
   94MOL    O8235608   3.019   3.081   1.977  0.1454  0.2032  0.1315
   94MOL    C8335609   2.999   2.985   2.076  0.0478 -0.5379 -0.6369
   94MOL    C8435610   3.096   2.895   2.127 -0.1126 -0.8384  0.5801
   94MOL    C8535611   3.067   2.810   2.232  0.9512 -0.3630 -0.3134
   94MOL    C8635612   2.939   2.806   2.289 -0.5050 -0.5710 -0.3895
   94MOL    C8735613   2.839   2.886   2.234 -0.0408  0.3288  0.3588
   94MOL    C8835614   2.869   2.978   2.131  0.0954 -0.3422 -0.6250
   94MOL    H8935615   3.228   3.340   2.176  1.5777  0.2945 -0.2480
   94MOL    H9035616   3.304   3.130   2.076  1.0072  1.5768 -0.5504
   94MOL    H9135617   3.187   3.001   1.898  1.6947  1.1108 -0.1946
   94MOL    H9235618   3.138   3.141   1.824 -1.5452  1.1669  0.7333
   94MOL    H9335619   3.195   2.915   2.089  0.2899  1.0617  2.5558
   94MOL    H9435620   3.143   2.745   2.273 -0.9892 -1.3424  1.8354
   94MOL    H9535621   2.911   2.734   2.364 -1.8273  1.3189  0.9646
   94MOL    H9635622   2.740   2.875   2.275 -0.4778 -1.2475 -1.0670
   94MOL    C9735623   2.772   3.070   2.067 -0.1241 -0.3552  0.4483
   94MOL    C9835624   2.671   3.022   1.963 -0.2589 -0.4746 -0.0899
   94MOL    O9935625   2.634   3.034   2.100  0.4527 -0.1241 -0.7046
   94MOL   C10035626   2.692   2.886   1.909 -0.6688  0.7126 -0.2880
   94MOL   O10135627   2.574   2.855   1.841  0.1607 -0.0793  0.8225
   94MOL   C10235628   2.535   2.927   1.728 -0.2651  0.1085  0.1727
   94MOL   C10335629   2.622   3.001   1.642  0.4213 -0.2823 -0.3016
   94MOL   C10435630   2.579   3.077   1.537  0.0618 -0.3661 -0.5365
   94MOL   C10535631   2.443   3.080   1.503 -0.0516  0.1531 -0.4350
   94MOL   C10635632   2.356   3.006   1.584 -0.7354  0.8469 -0.4011
   94MOL   C10735633   2.399   2.938   1.696 -0.0640  0.3145  0.3459
   94MOL   H10835634   2.795   3.176   2.073 -3.1118  0.2716  1.4386
   94MOL   H10935635   2.643   3.103   1.895 -0.0346  0.5878  1.0604
   94MOL   H11035636   2.712   2.808   1.983  1.4506  0.5818 -0.9648
   94MOL   H11135637   2.775   2.884   1.839  0.9554  1.2346  1.5671
   94MOL   H11235638   2.728   3.011   1.661  0.4225  1.1101 -1.0277
   94MOL   H11335639   2.648   3.131   1.474  0.0739 -1.4079 -1.4469
   94MOL   H11435640   2.409   3.131   1.414 -0.0470 -1.5441 -1.4396
   94MOL   H11535641   2.253   3.003   1.554 -0.1832  1.0831 -2.4284
   94MOL   C11635642   2.293   2.886   1.793 -0.1639 -0.0983  1.1950
   94MOL   C11735643   2.207   2.982   1.872 -0.5823 -0.3205 -0.0505
   94MOL   O11835644   2.159   2.917   1.757 -0.2201  0.0028  0.0177
   94MOL   C11935645   2.224   3.126   1.875  0.3478 -0.1655 -0.5690
   94MOL   O12035646   2.140   3.178   1.978  0.1177 -0.5259  0.2721
   94MOL   C12135647   2.199   3.197   2.099 -0.0288  0.2516  0.5226
   94MOL   C12235648   2.329   3.168   2.131 -0.1036  0.3729 -0.5101
   94MOL   C12335649   2.374   3.191   2.265 -0.2538 -0.7046 -0.1113
   94MOL   C12435650   2.289   3.251   2.362 -0.1195  0.2368 -0.1969
   94MOL   C12535651   2.158   3.281   2.327 -0.3029 -1.0794  0.0096
   94MOL   C12635652   2.110   3.251   2.195 -0.6904 -0.3336  0.0062
   94MOL   H12735653   2.310   2.792   1.845  2.5550 -0.2591  0.1076
   94MOL   H12835654   2.157   2.945   1.961 -0.5996 -0.9462 -0.3201
   94MOL   H12935655   2.180   3.178   1.790 -1.0394 -0.6925 -0.1822
   94MOL   H13035656   2.332   3.140   1.873  0.2337  1.3185  2.0985
   94MOL   H13135657   2.402   3.122   2.066 -0.1717 -1.3144  0.5747
   94MOL   H13235658   2.478   3.168   2.287 -0.2415 -0.4250  0.1239
   94MOL   H13335659   2.323   3.278   2.461  1.0758 -0.0683 -0.5235
   94MOL   H13435660   2.085   3.319   2.397 -0.9538 -0.6521 -0.8864
   94MOL   C13535661   1.968   3.300   2.153 -0.0010 -0.5264 -0.3315
   94MOL   C13635662   1.864   3.193   2.142  0.0505  0.5435  0.0008
   94MOL   O13735663   1.871   3.275   2.257 -0.5864 -0.7281 -0.1754
   94MOL   C13835664   1.880   3.054   2.186 -0.3941 -0.5824  0.6518
   94MOL   O13935665   1.767   2.975   2.149 -0.3017 -0.0989  0.6893
   94MOL   C14035666   1.742   2.950   2.018 -0.0314  0.5668  0.3005
   94MOL   C14135667   1.827   2.975   1.915 -0.9570 -0.6320 -0.2292
   94MOL   C14235668   1.793   2.958   1.779 -0.2067 -0.0591 -0.3021
   94MOL   C14335669   1.668   2.895   1.752  0.3504 -0.7616 -0.0208
   94MOL   C14435670   1.590   2.848   1.859  0.2549 -0.3255  0.1798
   94MOL   C14535671   1.619   2.887   1.990  0.1381 -0.3147  0.4869
   94MOL   H14635672   1.964   3.405   2.125 -3.0061 -0.1859  1.2377
   94MOL   H14735673   1.777   3.219   2.082 -0.4993  0.9242  0.9597
   94MOL   H14835674   1.895   3.053   2.294 -1.6243  1.4911  0.8658
   94MOL   H14935675   1.971   3.014   2.141  0.2745  0.7973  0.7516
   94MOL   H15035676   1.923   3.020   1.935 -0.7995  0.0082 -2.2814
   94MOL   H15135677   1.852   2.994   1.696  0.0640  1.5257  0.5569
   94MOL   H15235678   1.647   2.879   1.647  0.9855  1.6200 -0.5451
   94MOL   H15335679   1.500   2.800   1.822 -0.2419 -0.8337  1.9964
   94MOL   C15435680   1.512   2.869   2.089 -0.1043  0.0435  0.2672
   94MOL   C15535681   1.435   2.985   2.145 -0.1549  0.0333 -0.2496
   94MOL   O15635682   1.385   2.916   2.031  0.5784 -0.2177 -0.1414
   94MOL   C15735683   1.459   3.132   2.118 -0.3239 -0.3666  0.2108
   94MOL   O15835684   1.367   3.222   2.165  0.2787  0.1860  0.0652
   94MOL   C15935685   1.245   3.227   2.099  0.0423 -0.3388  0.1785
   94MOL   C16035686   1.222   3.187   1.967 -0.2920 -0.1096  1.1082
   94MOL   C16135687   1.095   3.208   1.899  0.3553 -0.6795 -0.1117
   94MOL   C16235688   0.993   3.269   1.981 -0.3207  0.6500  0.1439
   94MOL   C16335689   1.016   3.298   2.115  0.2424  0.0132 -0.5262
   94MOL   C16435690   1.141   3.287   2.177  0.4747 -0.0766 -0.1335
   94MOL   H16535691   1.519   2.780   2.151 -0.7600 -0.5640 -0.5123
   94MOL   H16635692   1.379   2.962   2.235 -0.7378  0.9163 -0.3878
   94MOL   H16735693   1.477   3.147   2.011 -0.4976 -0.6876  0.1360
   94MOL   H16835694   1.553   3.163   2.163  0.4550 -3.1370  0.5571
   94MOL   H16935695   1.300   3.145   1.904 -0.1714  1.7046  0.0040
   94MOL   H17035696   1.082   3.190   1.793  0.5095  0.4897 -0.3372
   94MOL   H17135697   0.896   3.289   1.937 -0.7627 -1.8420 -0.0872
   94MOL   H17235698   0.938   3.338   2.178  2.8108 -0.0181  2.7827
   94MOL   C17335699   1.149   3.347   2.316  0.1910  0.2758 -0.0724
   94MOL   C17435700   1.211   3.477   2.360  0.1340  0.0259 -0.5410
   94MOL   O17535701   1.072   3.470   2.330  0.1241 -0.6636 -0.1524
   94MOL   C17635702   1.281   3.590   2.278 -0.4177 -0.4047 -0.0171
   94MOL   O17735703   1.339   3.692   2.358 -0.1217 -0.7167 -0.2374
   94MOL   C17835704   1.392   3.807   2.293  0.0112  0.1873 -0.3519
   94MOL   C17935705   1.382   3.833   2.156  0.0296  0.2695  0.0907
   94MOL   C18035706   1.447   3.941   2.098 -0.6349 -0.1947  0.1099
   94MOL   C18135707   1.526   4.027   2.175 -0.3015 -0.4430 -0.2425
   94MOL   C18235708   1.541   3.999   2.308 -0.5304 -0.3684  1.2890
   94MOL   C18335709   1.468   3.898   2.368  0.2780  0.2002 -0.2487
   94MOL   H18435710   1.138   3.273   2.395 -1.5980 -0.8901 -1.3892
   94MOL   H18535711   1.235   3.470   2.466  0.9148  1.2133 -0.6328
   94MOL   H18635712   1.206   3.636   2.213  0.8622  1.0536 -0.5075
   94MOL   H18735713   1.363   3.546   2.221  0.0558  2.2293 -1.4279
   94MOL   H18835714   1.334   3.768   2.084 -0.8477  0.1359  0.7767
   94MOL   H18935715   1.445   3.957   1.991 -1.9372  0.1578  0.1850
   94MOL   H19035716   1.587   4.107   2.136  0.5883 -0.6092  0.7674
   94MOL   H19135717   1.611   4.060   2.363 -0.0053  0.1739  0.0305
   94MOL   C19235718   1.470   3.873   2.520 -0.5107 -0.0774 -0.7745
   94MOL   C19335719   1.588   3.813   2.598 -0.1304 -0.1314  0.8978
   94MOL   O19435720   1.575   3.955   2.574  0.1018 -0.0188 -0.4256
   94MOL   C19535721   1.707   3.760   2.528 -0.3549 -0.0233  0.0919
   94MOL   O19635722   1.813   3.713   2.607 -0.0867  1.1364  0.2145
   94MOL   C19735723   1.888   3.790   2.693 -0.5783  0.3899  0.4380
   94MOL   C19835724   1.859   3.924   2.726  0.6887  0.6078  0.7862
   94MOL   C19935725   1.936   3.996   2.818 -0.5015  0.2472  0.4461
   94MOL   C20035726   2.051   3.940   2.874 -0.5732 -0.5621 -0.4330
   94MOL   C20135727   2.081   3.810   2.848 -0.8131  0.3500  0.8651
   94MOL   C20235728   1.999   3.729   2.759  0.8285 -0.1756 -0.0259
   94MOL   H20335729   1.374   3.888   2.569  0.5138  2.2377  0.6210
   94MOL   H20435730   1.555   3.770   2.692 -1.2950 -2.0104 -0.3416
   94MOL   H20535731   1.756   3.827   2.457 -1.6551 -0.6322 -1.4395
   94MOL   H20635732   1.681   3.670   2.473 -1.1752 -0.1260  0.6405
   94MOL   H20735733   1.773   3.974   2.683 -0.3415 -1.2106  0.6691
   94MOL   H20835734   1.905   4.098   2.837  1.3253  0.9034  0.0311
   94MOL   H20935735   2.100   4.000   2.949 -1.9660  0.2408 -0.1339
   94MOL   H21035736   2.156   3.762   2.909  1.3381  0.8377 -1.3414
   94MOL   C21135737   2.030   3.584   2.742 -0.2214 -0.3150 -0.2015
   94MOL   C21235738   2.021   3.483   2.854 -0.1447 -0.2272 -0.0824
   94MOL   O21335739   1.911   3.509   2.767  0.2131 -0.1201  0.0609
   94MOL   C21435740   1.995   3.515   3.001  0.1791  0.2868 -0.8331
   94MOL   O21535741   1.900   3.420   3.057  0.2468 -0.2816 -0.4814
   94MOL   C21635742   1.813   3.486   3.143 -0.5241  0.2385 -0.1631
   94MOL   C21735743   1.847   3.563   3.256 -0.0635  0.2834  0.1710
   94MOL   C21835744   1.748   3.637   3.318 -0.1161 -0.8614 -0.5880
   94MOL   C21935745   1.612   3.626   3.276  0.6323  0.5857 -0.5377
   94MOL   C22035746   1.574   3.532   3.179  0.0204 -0.3799 -0.1887
   94MOL   C22135747   1.676   3.466   3.108  0.6016 -0.6402  0.4404
   94MOL   H22235748   2.073   3.557   2.646 -1.2250 -1.9274 -0.2219
   94MOL   H22335749   2.076   3.392   2.833 -0.9661 -1.4603  2.8977
   94MOL   H22435750   1.955   3.616   3.005  0.9416  0.6010 -1.1267
   94MOL   H22535751   2.088   3.519   3.058  0.0138  0.8155 -0.5973
   94MOL   H22635752   1.946   3.562   3.300  0.0567  2.3674  0.0076
   94MOL   H22735753   1.785   3.701   3.397  2.4352 -0.7942 -1.8015
   94MOL   H22835754   1.530   3.675   3.325  0.7077  2.1779 -1.9495
   94MOL   H22935755   1.471   3.530   3.144  0.3009  1.1297 -1.1762
   94MOL   C23035756   1.638   3.395   2.990  0.1128 -0.3858  0.6570
   94MOL   C23135757   1.653   3.247   2.963 -0.6392  1.0436  0.2986
   94MOL   O23235758   1.532   3.303   3.016 -0.2137 -0.5791 -0.1363
   94MOL   C23335759   1.705   3.140   3.057  0.2569  0.6624  0.5129
   94MOL   O23435760   1.636   3.015   3.023 -0.3709  0.3740  0.1587
   94MOL   C23535761   1.579   2.954   3.130  0.3065  0.3908 -0.3688
   94MOL   C23635762   1.648   2.907   3.245 -0.4504  0.0477 -0.3061
   94MOL   C23735763   1.575   2.854   3.354 -0.4184 -0.0575  0.1566
   94MOL   C23835764   1.435   2.834   3.348  0.4776 -0.3207  0.0741
   94MOL   C23935765   1.368   2.875   3.228  0.8376  0.9825 -0.2802
   94MOL   C24035766   1.438   2.943   3.123  0.3875  0.0680 -1.1587
   94MOL   H24135767   1.625   3.450   2.897 -0.4078  1.9677  2.0713
   94MOL   H24235768   1.657   3.237   2.855  2.9626  0.0365  0.4628
   94MOL   H24335769   1.700   3.169   3.162  1.7812  1.0437  0.5016
   94MOL   H24435770   1.810   3.132   3.027  0.0408 -1.6526  0.2751
   94MOL   H24535771   1.756   2.906   3.243 -0.4289 -2.4925 -0.6957
   94MOL   H24635772   1.620   2.808   3.441 -0.8612  0.6025  0.7387
   94MOL   H24735773   1.388   2.786   3.432 -0.4222  0.7699  0.2078
   94MOL   H24835774   1.266   2.850   3.204  0.4593  4.2301 -2.4148
   94MOL   C24935775   1.365   2.976   2.990 -0.4059  0.3880  0.1775
   94MOL   C25035776   1.297   2.874   2.907 -0.3450 -0.7044  0.5344
   94MOL   O25135777   1.225   2.960   2.994  0.3858 -0.3122 -0.1734
   94MOL   C25235778   1.291   2.728   2.936 -0.3718 -0.0744  0.0337
   94MOL   O25335779   1.324   2.657   2.821 -0.1881 -0.5429 -0.5570
   94MOL   C25435780   1.455   2.632   2.801  0.4148  0.0713  0.6426
   94MOL   C25535781   1.534   2.587   2.907 -0.0938 -0.1550  0.3296
   94MOL   C25635782   1.674   2.559   2.885 -0.3751  0.1083 -0.2146
   94MOL   C25735783   1.727   2.553   2.751  0.9889 -0.1052  0.1240
   94MOL   C25835784   1.638   2.592   2.649 -0.3136 -1.0049  0.0801
   94MOL   C25935785   1.512   2.638   2.675  0.9685  0.8064 -0.2875
   94MOL   H26035786   1.395   3.073   2.949 -0.3121  0.6358  0.8161
   94MOL   H26135787   1.274   2.897   2.803  0.4989  0.0159  0.4996
   94MOL   H26235788   1.189   2.699   2.961 -0.8905  0.4661 -1.4041
   94MOL   H26335789   1.346   2.708   3.028 -0.5316 -0.2837  0.0842
   94MOL   H26435790   1.504   2.583   3.010  0.7167 -1.1839  0.5383
   94MOL   H26535791   1.733   2.526   2.969 -1.0164 -2.1377 -0.6311
   94MOL   H26635792   1.824   2.512   2.731  0.6334 -1.2609  0.7046
   94MOL   H26735793   1.671   2.584   2.546  0.1950 -1.8018  0.2987
   94MOL   C26835794   1.417   2.687   2.561  1.1994 -0.6236  0.4714
   94MOL   C26935795   1.435   2.820   2.501  0.6116 -0.1550 -0.8692
   94MOL   O27035796   1.488   2.707   2.438  0.2298 -0.2126 -0.1062
   94MOL   C27135797   1.528   2.927   2.553 -0.5409  0.3003 -0.3518
   94MOL   O27235798   1.454   3.019   2.618 -0.1051  0.6057  0.4883
   94MOL   C27335799   1.482   3.152   2.611 -0.0809  0.4097 -0.1927
   94MOL   C27435800   1.606   3.205   2.562 -0.0397  0.3289 -0.2388
   94MOL   C27535801   1.637   3.341   2.573  0.6710 -0.0780  0.0354
   94MOL   C27635802   1.541   3.428   2.634  0.0164  0.0321 -0.2921
   94MOL   C27735803   1.421   3.381   2.684  0.2290 -0.1998 -0.5089
   94MOL   C27835804   1.387   3.240   2.674  0.2506 -0.5870 -0.4560
   94MOL   H27935805   1.327   2.628   2.543  0.4937  0.5641  0.0747
   94MOL   H28035806   1.352   2.870   2.451  1.5824  2.6289  0.2040
   94MOL   H28135807   1.564   2.955   2.454 -1.4122 -1.7280 -1.2726
   94MOL   H28235808   1.593   2.883   2.628 -0.4886  1.5425  0.3391
   94MOL   H28335809   1.684   3.140   2.523 -0.6177 -0.5457  0.0408
   94MOL   H28435810   1.728   3.380   2.529  1.1394 -0.2611  0.8240
   94MOL   H28535811   1.552   3.536   2.635  2.6277 -0.1934  2.6180
   94MOL   H28635812   1.352   3.458   2.715  0.6870 -0.6290  1.6344
   94MOL   C28735813   1.248   3.198   2.715 -0.4601  0.8514  0.2148
   94MOL   C28835814   1.158   3.248   2.825 -0.4494  0.3622  0.0339
   94MOL   O28935815   1.145   3.292   2.696  0.5927  0.4381  0.2009
   94MOL   C29035816   1.185   3.345   2.936 -0.4750 -0.2185  0.6476
   94MOL   O29135817   1.062   3.364   3.015 -0.7288 -0.2099  0.4530
   94MOL   C29235818   1.025   3.259   3.099 -0.3453 -0.3924  0.3682
   94MOL   C29335819   1.119   3.177   3.162  0.1087 -0.3108  0.1962
   94MOL   C29435820   1.078   3.067   3.236  0.7850 -0.1063 -0.2114
   94MOL   C29535821   0.942   3.044   3.255  0.6110  0.7864 -0.3295
   94MOL   C29635822   0.844   3.119   3.190  0.1783 -0.5025 -0.3620
   94MOL   C29735823   0.885   3.233   3.115 -0.0069  0.1420  0.5807
   94MOL   H29835824   1.227   3.092   2.701 -1.1144  1.3632 -3.3185
   94MOL   H29935825   1.092   3.164   2.843 -0.2916  0.1478 -0.4009
   94MOL   H30035826   1.223   3.441   2.899 -1.9829  0.0030 -0.3905
   94MOL   H30135827   1.273   3.315   2.993 -0.2773 -0.6554  0.1276
   94MOL   H30235828   1.222   3.197   3.136 -0.7394  1.4361 -2.0437
   94MOL   H30335829   1.153   3.003   3.279 -0.3284 -1.0738  0.3198
   94MOL   H30435830   0.922   2.953   3.310  0.9949 -0.3415 -2.0081
   94MOL   H30535831   0.742   3.096   3.217 -0.1114  0.1974 -0.8423
   94MOL   C30635832   0.777   3.316   3.049  0.5593 -0.2171 -0.0427
   94MOL   C30735833   0.737   3.292   2.904 -0.4539  0.3186 -0.5286
   94MOL   O30835834   0.661   3.237   3.019  0.7548 -0.4200  0.1370
   94MOL   C30935835   0.800   3.187   2.810  0.1556 -0.2296  0.6169
   94MOL   O31035836   0.725   3.139   2.701 -0.4651  0.1263  0.2495
   94MOL   C31135837   0.698   3.220   2.592  0.1900  0.1441  0.0350
   94MOL   C31235838   0.763   3.335   2.541 -0.9843 -0.0636  0.5074
   94MOL   C31335839   0.719   3.406   2.429 -0.7352  0.2795 -0.5646
   94MOL   C31435840   0.604   3.372   2.372  0.1820  0.2460 -0.2599
   94MOL   C31535841   0.535   3.259   2.418 -0.8675 -0.3285  0.6754
   94MOL   C31635842   0.582   3.184   2.525 -0.7636 -0.0882  1.2006
   94MOL   H31735843   0.756   3.410   3.099  2.4259 -0.2737  0.8941
   94MOL   H31835844   0.688   3.377   2.856 -0.8929  1.0718  1.2421
   94MOL   H31935845   0.821   3.105   2.878  0.8139  0.5945  1.4331
   94MOL   H32035846   0.891   3.232   2.770 -0.6805 -0.3765 -1.4992
   94MOL   H32135847   0.852   3.367   2.593  0.4190 -2.4045 -0.4061
   94MOL   H32235848   0.784   3.486   2.397 -0.6812  1.3768  2.1182
   94MOL   H32335849   0.556   3.420   2.288  0.5404  1.7539  0.3967
   94MOL   H32435850   0.442   3.228   2.373 -0.4793 -0.5247 -0.0032
   94MOL   C32535851   0.499   3.063   2.559 -0.3726  0.5480  1.5654
   94MOL   C32635852   0.395   3.060   2.669 -0.0178 -0.9556  0.4886
   94MOL   O32735853   0.366   3.073   2.525 -0.4960 -0.0239 -0.1002
   94MOL   C32835854   0.361   3.177   2.752  0.5633 -0.1779  0.2072
   94MOL   O32935855   0.258   3.151   2.839  0.2581 -0.5972 -0.1210
   94MOL   C33035856   0.129   3.176   2.801 -0.4175  0.0198 -0.1294
   94MOL   C33135857   0.082   3.148   2.667 -0.8168 -0.3371 -0.0487
   94MOL   C33235858   8.117   3.168   2.633  0.2093  0.0667 -0.3051
   94MOL   C33335859   8.028   3.225   2.726 -0.1703  0.7768 -0.5857
   94MOL   C33435860   8.073   3.254   2.857  0.4909  0.3708  0.0208
   94MOL   C33535861   0.034   3.229   2.895 -0.0296  0.8165  0.1404
   94MOL   H33635862   0.535   2.965   2.526 -3.7557  0.5230 -2.5078
   94MOL   H33735863   0.378   2.960   2.710  1.7175 -1.5708 -0.2721
   94MOL   H33835864   0.339   3.263   2.688 -0.3946  0.0912  0.8942
   94MOL   H33935865   0.441   3.200   2.822 -0.2466  2.3081  0.3317
   94MOL   H34035866   0.154   3.108   2.597  2.2407  2.9445  1.0978
   94MOL   H34135867   8.081   3.140   2.535  0.6596 -0.5400 -0.2998
   94MOL   H34235868   7.923   3.247   2.709 -1.1950 -2.4150  1.1533
   94MOL   H34335869   8.011   3.303   2.930  0.1739  0.5918 -0.3943
   94MOL   C34435870   0.081   3.246   3.040 -0.4984 -0.1190  0.0351
   94MOL   C34535871   0.172   3.362   3.087  0.7608  0.1993 -0.3776
   94MOL   O34635872   0.029   3.357   3.113 -0.4562  0.5950 -0.0505
   94MOL   C34735873   0.216   3.483   3.015 -0.5230  0.1887  0.6546
   94MOL   O34835874   0.267   3.587   3.097  0.9398 -0.5024 -0.2324
   94MOL   C34935875   0.278   3.720   3.049  0.5679  0.2708 -0.4019
   94MOL   C35035876   0.191   3.775   2.952 -0.5326 -0.6439  0.2230
   94MOL   C35135877   0.207   3.911   2.919  0.7103 -0.3910  0.1082
   94MOL   C35235878   0.298   3.989   2.983  0.1491 -0.1100 -0.4171
   94MOL   C35335879   0.392   3.933   3.073  0.5900  0.3839  0.3353
   94MOL   C35435880   0.383   3.797   3.104 -0.1796 -0.2922  0.0627
   94MOL   H35535881   0.091   3.154   3.098 -1.8100 -0.5487 -0.3894
   94MOL   H35635882   0.221   3.350   3.183  0.3866 -2.3176 -0.4874
   94MOL   H35735883   0.134   3.524   2.956 -0.1498 -0.8198 -0.5661
   94MOL   H35835884   0.300   3.449   2.955 -0.6471 -1.4855  1.3924
   94MOL   H35935885   0.103   3.726   2.913  0.2640 -1.2009 -0.9119
   94MOL   H36035886   0.133   3.947   2.848  0.3353 -0.8691  0.2559
   94MOL   H36135887   0.297   4.096   2.968  0.1918  0.1747  1.4542
   94MOL   H36235888   0.477   3.987   3.113  0.4942 -0.4995  1.7763
   94MOL   C36335889   0.478   3.727   3.185  0.4132  0.8069  0.4950
   94MOL   C36435890   0.600   3.657   3.118  0.2841  0.0479  0.2562
   94MOL   O36535891   0.609   3.785   3.183  0.0369  0.5358  0.5512
   94MOL   C36635892   0.629   3.664   2.969  0.1690 -0.8168  0.0328
   94MOL   O36735893   0.766   3.628   2.948 -0.1423 -0.7930  0.3551
   94MOL   C36835894   0.812   3.646   2.820  0.1112  0.3347  0.0002
   94MOL   C36935895   0.945   3.610   2.789  0.6154  0.0445 -0.2628
   94MOL   C37035896   1.008   3.624   2.667  0.4602  0.5106 -0.4630
   94MOL   C37135897   0.932   3.679   2.564  0.0507 -0.2421 -1.0633
   94MOL   C37235898   0.796   3.722   2.587 -0.8760 -0.5162  0.5487
   94MOL   C37335899   0.741   3.699   2.713  0.5915 -0.3859 -0.4008
   94MOL   H37435900   0.442   3.686   3.279 -0.8842  0.8488  0.0242
   94MOL   H37535901   0.636   3.568   3.169  1.1266 -0.3670 -1.0185
   94MOL   H37635902   0.597   3.762   2.934  0.5269 -0.5199  0.5445
   94MOL   H37735903   0.561   3.582   2.943 -2.6326  1.3507  0.2401
   94MOL   H37835904   1.005   3.567   2.867  0.5808 -0.5561 -0.5624
   94MOL   H37935905   1.100   3.572   2.647 -0.1252 -0.4282 -0.8090
   94MOL   H38035906   0.985   3.690   2.470  1.1841  1.9495 -0.1991
   94MOL   H38135907   0.737   3.763   2.507 -1.5137  1.0946  1.8238
   94MOL   H38235908   0.638   3.728   2.732  0.2975 -2.4646  1.3915
   95MOL     C135909   5.694   3.722   7.774 -1.0214 -0.4786  0.1738
   95MOL     C235910   5.557   3.773   7.736  0.7554 -0.4528 -0.5187
   95MOL     O335911   5.670   3.793   7.648  0.6191  0.5634  0.0237
   95MOL     C435912   5.497   3.898   7.805 -0.2205 -0.2124  0.6757
   95MOL     O535913   5.424   3.974   7.710  0.0666  0.2482  0.4849
   95MOL     C635914   5.496   4.075   7.643  0.0596  0.1189  0.6029
   95MOL     C735915   5.635   4.098   7.663 -0.4660 -0.4488 -0.5329
   95MOL     C835916   5.703   4.202   7.590  0.2726 -0.6315 -0.6471
   95MOL     C935917   5.633   4.282   7.494  0.6707  0.3412  0.1818
   95MOL    C1035918   5.500   4.250   7.479 -0.6110 -0.0199  0.1150
   95MOL    C1135919   5.425   4.158   7.551 -0.1763 -0.0193  0.2065
   95MOL    H1235920   5.717   3.616   7.761  0.0275 -0.1557 -0.7285
   95MOL    H1335921   5.477   3.704   7.713 -0.6329  0.4228  1.5019
   95MOL    H1435922   5.564   3.959   7.865 -0.3888  0.1175  0.5256
   95MOL    H1535923   5.429   3.844   7.871 -1.1241  0.1988  0.0931
   95MOL    H1635924   5.687   4.047   7.742  0.2650  0.0471 -0.6838
   95MOL    H1735925   5.811   4.205   7.586  0.2148  2.8618 -0.9457
   95MOL    H1835926   5.685   4.357   7.438  2.6254 -0.9475  0.2298
   95MOL    H1935927   5.459   4.306   7.396 -2.4629  2.5967  2.6892
   95MOL    H2035928   5.758   3.778   7.842 -0.0684 -0.4931 -0.6944
   95MOL    C2135929   5.281   4.137   7.508 -0.5367 -0.2272  0.6993
   95MOL    C2235930   5.170   4.235   7.501 -0.8443 -0.2479  0.2900
   95MOL    O2335931   5.249   4.197   7.391 -0.4103 -0.4455  0.0634
   95MOL    C2435932   5.176   4.382   7.540  0.2746 -0.3109 -0.2590
   95MOL    O2535933   5.059   4.453   7.492 -0.3652  0.5934 -0.1072
   95MOL    C2635934   4.936   4.442   7.552 -0.0685 -1.0341 -0.2979
   95MOL    C2735935   4.917   4.362   7.665 -1.6040 -0.1967 -0.5564
   95MOL    C2835936   4.794   4.354   7.734  0.1002  0.7794  0.4584
   95MOL    C2935937   4.686   4.430   7.681 -0.1336  0.4824  0.6921
   95MOL    C3035938   4.707   4.521   7.574 -0.3946 -0.4267 -0.3313
   95MOL    C3135939   4.827   4.521   7.503 -0.4237 -0.4284 -0.7096
   95MOL    H3235940   5.251   4.034   7.524 -1.6943  0.0624  0.4205
   95MOL    H3335941   5.069   4.196   7.494 -0.3931 -1.5471  0.9395
   95MOL    H3435942   5.263   4.418   7.484 -0.0889  0.0903 -0.5744
   95MOL    H3535943   5.199   4.384   7.646  0.9303 -1.2834 -0.3821
   95MOL    H3635944   4.998   4.300   7.700 -0.5279  1.3572 -0.2159
   95MOL    H3735945   4.794   4.300   7.827  1.7196  0.8505  0.5133
   95MOL    H3835946   4.592   4.424   7.734 -0.4140  1.6144  0.3395
   95MOL    H3935947   4.625   4.586   7.545  1.8378  2.0472 -1.2600
   95MOL    C4035948   4.849   4.607   7.394 -0.0264  0.1448 -0.1560
   95MOL    C4135949   4.831   4.571   7.248  0.6156  0.6405 -0.4925
   95MOL    O4235950   4.723   4.628   7.327 -0.2077 -0.1927  0.0007
   95MOL    C4335951   4.802   4.431   7.191 -0.2646 -0.2136 -0.0172
   95MOL    O4435952   4.727   4.419   7.070  0.0563 -0.2144 -0.4578
   95MOL    C4535953   4.597   4.448   7.071  0.2732  0.1798 -0.5640
   95MOL    C4635954   4.512   4.454   7.189  0.2364 -0.4854  0.0820
   95MOL    C4735955   4.373   4.487   7.177 -0.4767  0.7541 -0.3527
   95MOL    C4835956   4.325   4.503   7.049  0.3945  0.6786  0.0107
   95MOL    C4935957   4.406   4.492   6.928 -0.2969  0.9847  0.2319
   95MOL    C5035958   4.542   4.458   6.944  0.0869 -0.5454 -1.1432
   95MOL    H5135959   4.895   4.700   7.428 -0.7212  0.0404  1.0736
   95MOL    H5235960   4.861   4.636   7.167 -0.0471 -0.3562 -1.5479
   95MOL    H5335961   4.772   4.360   7.269  0.0532  1.9646  2.1362
   95MOL    H5435962   4.901   4.394   7.163 -0.7780 -1.4935 -0.1706
   95MOL    H5535963   4.555   4.432   7.285  0.7056 -0.6888 -0.1707
   95MOL    H5635964   4.311   4.481   7.266  0.3422 -1.3450  0.1017
   95MOL    H5735965   4.220   4.526   7.044 -0.4975 -2.2037  3.2768
   95MOL    H5835966   4.369   4.506   6.828  0.2435  0.8282  0.0090
   95MOL    C5935967   4.632   4.448   6.824  0.0270 -0.4482  0.2265
   95MOL    C6035968   4.658   4.324   6.752  0.2275 -0.0761 -0.5412
   95MOL    O6135969   4.565   4.422   6.703  0.0995 -0.0555 -0.5143
   95MOL    C6235970   4.611   4.191   6.807 -0.4360  0.3753  0.3479
   95MOL    O6335971   4.622   4.093   6.702 -0.0683  0.7546 -0.5028
   95MOL    C6435972   4.741   4.011   6.697  0.3482 -0.0963  0.1525
   95MOL    C6535973   4.853   4.026   6.781 -0.2086  0.5723  0.0768
   95MOL    C6635974   4.953   3.931   6.777  0.1694  0.2639  0.0500
   95MOL    C6735975   4.944   3.818   6.695 -0.2411  0.4023  0.1495
   95MOL    C6835976   4.840   3.807   6.603  0.4487 -0.3635  0.5412
   95MOL    C6935977   4.733   3.899   6.610  0.1131  0.1867  0.0044
   95MOL    H7035978   4.719   4.513   6.824  1.0930 -1.8515 -0.7558
   95MOL    H7135979   4.759   4.320   6.713  0.6518 -3.1438  0.7729
   95MOL    H7235980   4.505   4.194   6.833 -0.4227 -0.1826  0.4822
   95MOL    H7335981   4.662   4.168   6.901  1.1702  2.9841  0.1672
   95MOL    H7435982   4.872   4.108   6.849 -2.9528  1.2231  0.1106
   95MOL    H7535983   5.031   3.927   6.852 -0.1803  2.8349  0.5652
   95MOL    H7635984   5.032   3.755   6.695 -0.4121  0.1611 -0.5695
   95MOL    H7735985   4.834   3.723   6.535 -0.8205  1.5652 -1.7912
   95MOL    C7835986   4.606   3.877   6.535 -0.6126 -0.0805 -0.2439
   95MOL    C7935987   4.562   3.943   6.404 -0.4454  0.6207  0.1446
   95MOL    O8035988   4.638   3.819   6.408  0.2257 -0.0892 -0.3783
   95MOL    C8135989   4.628   4.064   6.346  0.0701 -0.2081 -0.3748
   95MOL    O8235990   4.564   4.127   6.235 -0.0807 -0.1053 -0.0985
   95MOL    C8335991   4.575   4.068   6.107 -0.4428  0.1811  0.0938
   95MOL    C8435992   4.623   3.939   6.093  0.3064  0.4643 -0.4196
   95MOL    C8535993   4.626   3.878   5.968 -0.2784 -0.1536 -0.5881
   95MOL    C8635994   4.578   3.952   5.857  0.1685 -0.1540  0.4245
   95MOL    C8735995   4.538   4.089   5.869  0.7822 -0.3847 -0.2154
   95MOL    C8835996   4.536   4.146   5.996 -0.5128 -0.1031  0.6768
   95MOL    H8935997   4.534   3.820   6.595 -0.0785  1.6475  2.1076
   95MOL    H9035998   4.458   3.938   6.373  0.1965 -1.7009 -1.8168
   95MOL    H9135999   4.732   4.045   6.320  0.2582 -0.0720  0.2905
   95MOL    H9236000   4.626   4.138   6.426 -0.1280 -1.3323  0.6566
   95MOL    H9336001   4.661   3.877   6.172 -2.4029 -1.9452 -0.9117
   95MOL    H9436002   4.663   3.780   5.941  1.6140 -0.1436  1.7190
   95MOL    H9536003   4.570   3.889   5.770 -2.2274  0.0876  0.4300
   95MOL    H9636004   4.508   4.145   5.781  0.7768 -0.1375 -0.0583
   95MOL    C9736005   4.499   4.295   6.019  0.4435 -0.2802 -0.6285
   95MOL    C9836006   4.531   4.409   5.931  0.6483  0.0185 -0.1686
   95MOL    O9936007   4.409   4.339   5.908 -0.0053 -0.2474  0.1177
   95MOL   C10036008   4.651   4.396   5.838  0.9788  0.4854  0.0296
   95MOL   O10136009   4.655   4.508   5.754 -0.3913 -0.1216  0.0037
   95MOL   C10236010   4.736   4.609   5.796  0.4289  0.0054 -0.3010
   95MOL   C10336011   4.807   4.620   5.923 -0.1337  0.4867 -0.5524
   95MOL   C10436012   4.878   4.732   5.954  0.1192 -0.5776 -0.3091
   95MOL   C10536013   4.873   4.847   5.876 -0.2577  0.0137  0.7639
   95MOL   C10636014   4.799   4.842   5.755  0.1436 -0.2897 -0.0332
   95MOL   C10736015   4.727   4.725   5.717  0.4609  0.0489 -0.2357
   95MOL   H10836016   4.459   4.316   6.119  2.6545 -3.0292  0.8819
   95MOL   H10936017   4.525   4.509   5.971 -1.6892 -0.2873  0.2918
   95MOL   H11036018   4.620   4.320   5.766 -0.3620  0.7707  0.2925
   95MOL   H11136019   4.740   4.371   5.895  0.7684 -1.4176 -0.4324
   95MOL   H11236020   4.804   4.543   5.999  0.3439  1.5082  0.5098
   95MOL   H11336021   4.919   4.740   6.054 -1.8539  1.7156  0.3534
   95MOL   H11436022   4.914   4.943   5.904 -1.0519  1.0065 -1.4056
   95MOL   H11536023   4.792   4.931   5.694 -0.5912 -1.4274 -1.6168
   95MOL   C11636024   4.647   4.725   5.592 -0.0963  0.3967 -0.3522
   95MOL   C11736025   4.497   4.713   5.577  0.3190  0.7088  0.3841
   95MOL   O11836026   4.561   4.837   5.578  0.2681 -0.6925  0.2460
   95MOL   C11936027   4.403   4.687   5.693 -0.2399 -0.6149  0.2466
   95MOL   O12036028   4.436   4.778   5.798 -0.3957 -0.1082  0.2141
   95MOL   C12136029   4.376   4.763   5.923  0.8228 -0.3803  0.2903
   95MOL   C12236030   4.255   4.686   5.943  0.2705  0.7228 -0.1232
   95MOL   C12336031   4.214   4.662   6.078  0.2842 -0.4613 -0.2364
   95MOL   C12436032   4.273   4.730   6.181  0.6486  0.2331 -0.1268
   95MOL   C12536033   4.390   4.811   6.156  0.1945  0.1380 -0.4377
   95MOL   C12636034   4.438   4.828   6.027  0.1808  0.1299  0.2765
   95MOL   H12736035   4.701   4.706   5.499  0.2144  1.0962 -0.3181
   95MOL   H12836036   4.469   4.674   5.479  1.6494  0.1466  0.2114
   95MOL   H12936037   4.398   4.581   5.720  0.3966  0.2618  4.1416
   95MOL   H13036038   4.300   4.715   5.670  0.1256  0.2776 -0.2982
   95MOL   H13136039   4.212   4.639   5.856  2.3531 -1.5331  0.0221
   95MOL   H13236040   4.127   4.600   6.096  0.3031 -0.3642  0.1940
   95MOL   H13336041   4.236   4.717   6.281  0.5854  1.9349  0.0853
   95MOL   H13436042   4.441   4.868   6.232 -2.4496  2.6806 -0.4822
   95MOL   C13536043   4.568   4.903   6.007 -0.2857 -0.4096 -0.1433
   95MOL   C13636044   4.580   5.044   5.956 -0.6311 -0.0637 -0.9830
   95MOL   O13736045   4.595   5.009   6.099  0.3265 -0.1825 -0.1215
   95MOL   C13836046   4.458   5.118   5.910 -1.2889  0.9345  0.2604
   95MOL   O13936047   4.492   5.252   5.875 -0.3261  0.3796  0.6914
   95MOL   C14036048   4.549   5.337   5.969 -0.7894 -0.3086 -0.3019
   95MOL   C14136049   4.562   5.308   6.105 -1.5416  0.0143  0.1744
   95MOL   C14236050   4.624   5.393   6.190 -0.0345  0.5895  0.4462
   95MOL   C14336051   4.672   5.523   6.150 -0.5002 -0.4923  0.4676
   95MOL   C14436052   4.658   5.557   6.012  0.9859 -0.2395 -0.1095
   95MOL   C14536053   4.597   5.464   5.924 -0.9340  0.5962  0.9909
   95MOL   H14636054   4.638   4.829   5.968 -1.9816 -1.3081 -1.5394
   95MOL   H14736055   4.677   5.066   5.913 -0.8506 -0.0793 -1.4985
   95MOL   H14836056   4.381   5.122   5.988 -1.0807  0.1480  0.5051
   95MOL   H14936057   4.427   5.072   5.816  2.2778  0.6693 -0.8451
   95MOL   H15036058   4.516   5.220   6.147 -0.8944 -0.1136  0.6174
   95MOL   H15136059   4.634   5.370   6.295 -2.2218 -0.0502  0.5285
   95MOL   H15236060   4.731   5.586   6.216 -1.2621  1.4592 -0.6838
   95MOL   H15336061   4.707   5.645   5.975  1.0639 -1.0183 -1.9322
   95MOL   C15436062   4.585   5.496   5.776  0.3063  0.7721  0.4362
   95MOL   C15536063   4.502   5.598   5.704 -0.1111  0.4356 -0.0033
   95MOL   O15636064   4.639   5.623   5.730  0.4691  0.3646 -0.0804
   95MOL   C15736065   4.414   5.693   5.783 -0.0761  0.0034  0.3801
   95MOL   O15836066   4.297   5.631   5.818 -0.0272 -0.0379  0.5779
   95MOL   C15936067   4.206   5.586   5.725 -0.0365 -1.1945  0.0943
   95MOL   C16036068   4.215   5.616   5.583  0.6143 -0.6361 -0.7294
   95MOL   C16136069   4.126   5.556   5.487 -0.4541 -0.1278  0.2833
   95MOL   C16236070   4.028   5.474   5.536 -0.0012  0.1065 -0.5387
   95MOL   C16336071   4.004   5.458   5.675 -0.1081 -0.3094  0.1195
   95MOL   C16436072   4.095   5.511   5.767 -0.8625 -0.4813 -0.4830
   95MOL   H16536073   4.619   5.411   5.717  0.5713 -0.3869  2.2024
   95MOL   H16636074   4.478   5.593   5.598 -2.1373  0.6550  0.4264
   95MOL   H16736075   4.399   5.789   5.733  1.3507  0.4393  0.7463
   95MOL   H16836076   4.461   5.727   5.875 -1.1843  0.8777  0.6385
   95MOL   H16936077   4.285   5.690   5.545 -2.7531  2.7357 -0.5911
   95MOL   H17036078   4.141   5.570   5.381  0.9304  0.4942  0.5469
   95MOL   H17136079   3.971   5.419   5.462 -0.9426  1.3116 -0.7268
   95MOL   H17236080   3.921   5.392   5.693 -0.6006  0.3322  0.2202
   95MOL   C17336081   4.083   5.489   5.913  0.5315  0.1941  0.1250
   95MOL   C17436082   3.977   5.567   5.997 -0.5511 -0.2473  0.5317
   95MOL   O17536083   3.958   5.436   5.950  0.4281  0.9441 -0.7462
   95MOL   C17636084   3.874   5.665   5.941 -0.6678  0.2153  0.0761
   95MOL   O17736085   3.761   5.676   6.026 -0.4334  0.4137  0.0397
   95MOL   C17836086   3.747   5.780   6.119 -0.1299  0.0718 -0.1306
   95MOL   C17936087   3.860   5.862   6.165  0.4449 -0.5582  0.3623
   95MOL   C18036088   3.843   5.957   6.273 -0.6331 -0.6036  0.0350
   95MOL   C18136089   3.717   5.969   6.332  0.0584  0.4991 -0.3046
   95MOL   C18236090   3.608   5.891   6.287 -0.1759 -0.6661  0.4179
   95MOL   C18336091   3.621   5.795   6.183 -0.2572  0.3001 -0.4052
   95MOL   H18436092   4.175   5.449   5.955  0.8803  1.4447  0.5649
   95MOL   H18536093   4.001   5.561   6.103  1.5472 -0.3874  0.0813
   95MOL   H18636094   3.850   5.628   5.841  0.7393  0.2937 -0.2989
   95MOL   H18736095   3.925   5.757   5.916  0.6851 -0.1804  1.2813
   95MOL   H18836096   3.956   5.857   6.117  0.8445  3.3324  0.5773
   95MOL   H18936097   3.930   6.002   6.319 -0.6671 -1.6309  1.1066
   95MOL   H19036098   3.709   6.035   6.417 -1.4926  2.9734 -2.2978
   95MOL   H19136099   3.510   5.906   6.330 -0.4421 -0.9812 -0.0718
   95MOL   C19236100   3.506   5.705   6.146 -0.3362  0.6407 -0.1701
   95MOL   C19336101   3.514   5.552   6.134  0.4196 -0.1025 -0.1305
   95MOL   O19436102   3.460   5.624   6.247 -0.1310  0.0146 -0.0234
   95MOL   C19536103   3.630   5.458   6.166  0.1887  0.1048 -0.1693
   95MOL   O19636104   3.578   5.347   6.237  0.2254 -0.0151 -0.2972
   95MOL   C19736105   3.609   5.346   6.374 -0.1804  0.8209  0.1954
   95MOL   C19836106   3.630   5.458   6.457  0.4319  0.0417  0.0293
   95MOL   C19936107   3.650   5.448   6.592  0.3621  0.3911 -1.0181
   95MOL   C20036108   3.651   5.315   6.649 -0.8478  0.4461 -0.4896
   95MOL   C20136109   3.627   5.201   6.574  0.1213  0.3620 -0.0604
   95MOL   C20236110   3.604   5.216   6.436  0.3619 -0.0971  0.7398
   95MOL   H20336111   3.420   5.756   6.104 -1.3010 -0.3672  0.5457
   95MOL   H20436112   3.446   5.510   6.061  0.1809 -1.2470  0.7344
   95MOL   H20536113   3.717   5.504   6.212 -0.9717  2.4419 -0.2727
   95MOL   H20636114   3.673   5.422   6.072 -1.7665 -0.7457 -0.7693
   95MOL   H20736115   3.627   5.558   6.416 -0.0210 -0.7312 -1.8791
   95MOL   H20836116   3.661   5.540   6.648  0.3335  0.3751 -0.9869
   95MOL   H20936117   3.671   5.306   6.755  1.9037  2.7657 -0.7484
   95MOL   H21036118   3.635   5.105   6.621  4.7957  0.5142 -0.3322
   95MOL   C21136119   3.571   5.094   6.352  0.1360  0.9842 -0.0776
   95MOL   C21236120   3.667   5.032   6.263  0.2453  0.0293  0.0998
   95MOL   O21336121   3.642   4.974   6.393 -0.2956 -0.0083  0.0636
   95MOL   C21436122   3.800   5.097   6.238 -0.1979  0.1540  0.2015
   95MOL   O21536123   3.890   5.002   6.193  0.1255  0.1417 -0.3971
   95MOL   C21636124   3.978   4.953   6.293  0.4220  0.4674 -0.6496
   95MOL   C21736125   3.940   4.852   6.382  0.6918  0.0595  0.4055
   95MOL   C21836126   4.021   4.807   6.485 -0.6084  0.3899 -0.4817
   95MOL   C21936127   4.146   4.872   6.496 -0.3145  0.4306 -0.0858
   95MOL   C22036128   4.190   4.970   6.406  0.4117  0.7070  1.2198
   95MOL   C22136129   4.112   5.007   6.293  0.4500 -0.5908 -0.2106
   95MOL   H22236130   3.470   5.072   6.319 -0.4571 -0.8325  2.7619
   95MOL   H22336131   3.643   4.961   6.184 -0.7298  1.2632 -0.7464
   95MOL   H22436132   3.844   5.152   6.321 -1.8663  1.4728  0.2196
   95MOL   H22536133   3.786   5.174   6.163 -1.5139  2.4805  2.7493
   95MOL   H22636134   3.839   4.816   6.370  0.1910  1.3367  0.6441
   95MOL   H22736135   3.978   4.732   6.550  1.0739 -0.2103 -0.0169
   95MOL   H22836136   4.211   4.839   6.575 -0.9061 -2.0965 -0.5961
   95MOL   H22936137   4.289   5.008   6.427  1.4102  0.0321 -2.0335
   95MOL   C23036138   4.175   5.096   6.188 -0.3114 -0.0064 -0.9812
   95MOL   C23136139   4.183   5.250   6.194  0.5706  0.0682  0.0781
   95MOL   O23236140   4.291   5.159   6.234  0.1527 -0.0014 -0.3031
   95MOL   C23336141   4.120   5.332   6.306 -0.2596  0.1585 -0.0433
   95MOL   O23436142   4.207   5.444   6.323  0.4698  0.5890  0.1881
   95MOL   C23536143   4.161   5.543   6.407  0.2977 -0.1764 -0.1220
   95MOL   C23636144   4.048   5.523   6.493  0.0795 -0.9564  0.1560
   95MOL   C23736145   4.007   5.631   6.572  0.5497  0.0735  0.6795
   95MOL   C23836146   4.069   5.756   6.564 -0.1533  0.4021 -0.4255
   95MOL   C23936147   4.183   5.773   6.485  0.1458  0.0075  0.1442
   95MOL   C24036148   4.224   5.668   6.403  0.3296  0.4741 -0.7131
   95MOL   H24136149   4.178   5.041   6.094 -2.4715 -1.4883 -0.2327
   95MOL   H24236150   4.210   5.308   6.106  1.7314  2.1865  1.8033
   95MOL   H24336151   4.123   5.283   6.403  1.3070 -0.0456 -0.1853
   95MOL   H24436152   4.017   5.360   6.283 -0.2292 -0.1208 -0.5456
   95MOL   H24536153   3.996   5.429   6.503  1.7695 -2.0508 -1.0048
   95MOL   H24636154   3.924   5.612   6.638  0.0699 -0.8101 -0.1570
   95MOL   H24736155   4.035   5.830   6.635 -1.7652 -0.1282 -0.6418
   95MOL   H24836156   4.236   5.866   6.471  0.2328 -0.1264 -0.4257
   95MOL   C24936157   4.339   5.673   6.309  0.4799  0.1821 -0.4439
   95MOL   C25036158   4.338   5.767   6.192 -0.3265  0.4606  0.2414
   95MOL   O25136159   4.403   5.796   6.316 -0.4575 -0.1457  0.3586
   95MOL   C25236160   4.217   5.851   6.163 -0.3529  0.0037 -0.0333
   95MOL   O25336161   4.251   5.918   6.041 -0.9980  0.2299  0.7222
   95MOL   C25436162   4.308   6.042   6.050  0.3344  0.2028 -0.3135
   95MOL   C25536163   4.369   6.100   6.170 -0.5074 -0.4907 -0.4448
   95MOL   C25636164   4.435   6.223   6.172 -0.3785  0.4449  0.1051
   95MOL   C25736165   4.457   6.285   6.051 -0.1937 -0.0835  0.4330
   95MOL   C25836166   4.408   6.232   5.934  0.3440  0.8805 -0.0693
   95MOL   C25936167   4.334   6.110   5.929 -0.6754 -0.1792 -0.1816
   95MOL   H26036168   4.400   5.584   6.318  1.3222  0.5726 -2.2294
   95MOL   H26136169   4.401   5.741   6.107  1.2925 -1.8387  2.0775
   95MOL   H26236170   4.183   5.903   6.252 -1.9984 -1.4872  0.2504
   95MOL   H26336171   4.148   5.771   6.135  0.9674 -0.7504 -1.2268
   95MOL   H26436172   4.368   6.045   6.262  3.1953  2.6251  1.6093
   95MOL   H26536173   4.461   6.259   6.270 -0.1919  1.4791 -0.3161
   95MOL   H26636174   4.514   6.377   6.047 -0.3929  0.0161 -0.1537
   95MOL   H26736175   4.436   6.283   5.843  0.2525  0.2599 -0.4514
   95MOL   C26836176   4.274   6.071   5.795  0.2737 -0.3056  0.7370
   95MOL   C26936177   4.130   6.069   5.770  0.1728  1.0934 -0.5032
   95MOL   O27036178   4.210   6.178   5.728 -0.9112  0.1533  0.3675
   95MOL   C27136179   4.022   6.110   5.871 -1.0326 -0.1854  0.2782
   95MOL   O27236180   3.897   6.107   5.800 -0.0905 -0.2029  0.0735
   95MOL   C27336181   3.777   6.120   5.862  0.3690 -0.1120 -0.7556
   95MOL   C27436182   3.760   6.164   5.994 -0.3209  0.2119 -0.0160
   95MOL   C27536183   3.629   6.167   6.057 -0.1778 -0.5794  0.0671
   95MOL   C27636184   3.517   6.111   5.987 -0.1644  0.4310 -0.5426
   95MOL   C27736185   3.531   6.082   5.849  0.0164  0.1243 -0.7229
   95MOL   C27836186   3.663   6.089   5.784  0.2348  0.1233 -1.0457
   95MOL   H27936187   4.331   6.003   5.732 -1.1256 -0.6018 -0.2153
   95MOL   H28036188   4.100   5.998   5.693  0.9328  1.1319 -0.8355
   95MOL   H28136189   4.042   6.216   5.884 -2.6033  0.3072 -1.0174
   95MOL   H28236190   4.022   6.069   5.972 -3.8455  0.2072  0.4961
   95MOL   H28336191   3.842   6.202   6.053  0.8603  1.2402 -2.2720
   95MOL   H28436192   3.608   6.217   6.150 -0.2636 -0.0707 -0.2256
   95MOL   H28536193   3.417   6.115   6.029 -0.4979  1.7418 -1.4236
   95MOL   H28636194   3.451   6.046   5.785  0.7087 -1.8396 -0.5025
   95MOL   C28736195   3.672   6.059   5.640 -0.0747 -0.4032 -0.5158
   95MOL   C28836196   3.684   5.918   5.583 -0.0435  0.0774 -0.1364
   95MOL   O28936197   3.559   5.989   5.589 -0.4321 -0.2331 -0.4494
   95MOL   C29036198   3.712   5.806   5.676  0.0749  0.0589  0.3132
   95MOL   O29136199   3.679   5.668   5.631  0.5553 -0.7774  0.5008
   95MOL   C29236200   3.548   5.630   5.642 -0.0504  0.1675  0.4985
   95MOL   C29336201   3.438   5.715   5.675 -0.0955 -0.0566  0.0136
   95MOL   C29436202   3.308   5.661   5.698  0.0877 -0.0194  1.0518
   95MOL   C29536203   3.286   5.529   5.663  0.8812 -0.3717  0.1835
   95MOL   C29636204   3.395   5.442   5.634  0.3966 -0.4912 -0.5325
   95MOL   C29736205   3.528   5.492   5.626  0.8241  0.1149 -0.0080
   95MOL   H29836206   3.693   6.147   5.580  2.2525 -1.1404 -0.8322
   95MOL   H29936207   3.709   5.908   5.478  0.6320 -0.3852  0.0638
   95MOL   H30036208   3.649   5.817   5.765 -3.8798 -0.6803 -2.2650
   95MOL   H30136209   3.812   5.803   5.719  0.1837 -1.6971 -0.0139
   95MOL   H30236210   3.451   5.821   5.693 -0.4814 -0.4889  3.2312
   95MOL   H30336211   3.221   5.717   5.728 -1.0898 -3.1245  3.7964
   95MOL   H30436212   3.185   5.492   5.661  0.7135  0.1280 -0.5718
   95MOL   H30536213   3.372   5.342   5.601 -0.3830  0.4622 -3.0745
   95MOL   C30636214   3.643   5.400   5.606 -0.1944  0.0476  0.1072
   95MOL   C30736215   3.674   5.272   5.693 -0.2597 -0.0128 -0.1012
   95MOL   O30836216   3.602   5.261   5.570 -0.3343  0.4148  0.4057
   95MOL   C30936217   3.596   5.233   5.815  0.2002  0.3479  0.3871
   95MOL   O31036218   3.627   5.099   5.858  0.5048 -0.1379 -0.0348
   95MOL   C31136219   3.522   5.014   5.900 -0.0809 -0.9788  0.0114
   95MOL   C31236220   3.403   5.062   5.967  0.1451 -0.6347 -0.5465
   95MOL   C31336221   3.305   4.976   6.013  0.9769 -0.5674 -0.4258
   95MOL   C31436222   3.316   4.841   5.986  0.4769 -0.2947 -0.9075
   95MOL   C31536223   3.431   4.794   5.922 -0.3748  0.0161  0.2696
   95MOL   C31636224   3.537   4.875   5.880  0.1224 -0.0070  0.1760
   95MOL   H31736225   3.710   5.432   5.526  1.3329  0.3889  1.4946
   95MOL   H31836226   3.776   5.236   5.685  0.1881  1.4622 -1.2519
   95MOL   H31936227   3.492   5.234   5.783  0.6691 -1.7596 -1.3079
   95MOL   H32036228   3.609   5.307   5.894 -0.7575  0.4295  0.4702
   95MOL   H32136229   3.402   5.168   5.985  0.4071 -0.4419 -1.6040
   95MOL   H32236230   3.223   5.014   6.072  0.6438 -1.9196 -0.0014
   95MOL   H32336231   3.230   4.779   6.008  0.4115  0.5913  1.4916
   95MOL   H32436232   3.430   4.691   5.891  1.9489 -0.1291  0.5963
   95MOL   C32536233   3.652   4.818   5.814  0.2179  0.0899  0.1695
   95MOL   C32636234   3.751   4.722   5.876  0.0481 -0.1487  0.1616
   95MOL   O32736235   3.649   4.677   5.790 -0.3338  0.2709 -0.1167
   95MOL   C32836236   3.747   4.673   6.021 -0.3522 -0.3194  0.0923
   95MOL   O32936237   3.837   4.564   6.039  0.7082  0.3252  0.4340
   95MOL   C33036238   3.844   4.515   6.171  0.2706  0.1761 -0.7096
   95MOL   C33136239   3.761   4.564   6.277 -0.0117  0.4555  1.1947
   95MOL   C33236240   3.790   4.518   6.409 -0.1339  0.0025  0.1506
   95MOL   C33336241   3.888   4.421   6.438 -0.1633  0.2136  0.9132
   95MOL   C33436242   3.959   4.361   6.332 -0.1645  0.3833 -0.0833
   95MOL   C33536243   3.936   4.406   6.199  0.4976 -0.1414 -0.2239
   95MOL   H33636244   3.678   4.878   5.727  1.3554  0.5902  0.8429
   95MOL   H33736245   3.847   4.709   5.828 -0.6305 -1.5003 -0.8653
   95MOL   H33836246   3.643   4.648   6.043 -0.0255  0.4354  2.6856
   95MOL   H33936247   3.789   4.754   6.081 -0.7028 -0.9592  1.2251
   95MOL   H34036248   3.686   4.640   6.262  0.3223  0.6733  0.6246
   95MOL   H34136249   3.745   4.571   6.492 -0.7887  1.2450 -0.9596
   95MOL   H34236250   3.910   4.400   6.542 -0.9228 -1.8693  0.6883
   95MOL   H34336251   4.028   4.279   6.348  1.1143  1.2916 -0.8574
   95MOL   C34436252   4.011   4.323   6.105 -0.1836  0.6510  0.4100
   95MOL   C34536253   3.952   4.198   6.037  0.0443  0.2785 -0.1375
   95MOL   O34636254   3.969   4.326   5.972  0.3630  0.5016 -0.2858
   95MOL   C34736255   3.809   4.157   6.061 -0.6415 -0.1036  0.5458
   95MOL   O34836256   3.760   4.048   5.975  0.3883 -0.2519 -0.2460
   95MOL   C34936257   3.764   3.921   6.029 -0.4468 -1.1281  0.2021
   95MOL   C35036258   3.848   3.882   6.135 -0.9067 -0.4960  0.9534
   95MOL   C35136259   3.852   3.752   6.177 -0.2262  0.6690  0.4516
   95MOL   C35236260   3.761   3.658   6.136 -0.2243 -0.0914  0.1694
   95MOL   C35336261   3.677   3.693   6.025  0.4882  0.1780  0.7759
   95MOL   C35436262   3.684   3.822   5.964 -0.0214  0.2881  0.4577
   95MOL   H35536263   4.117   4.341   6.117 -0.0541 -0.7873  1.5709
   95MOL   H35636264   4.024   4.117   6.027 -0.9387 -0.5878 -0.1942
   95MOL   H35736265   3.750   4.241   6.023  1.6297  1.8677  1.3013
   95MOL   H35836266   3.790   4.151   6.168  0.8657 -0.2447  0.8121
   95MOL   H35936267   3.929   3.944   6.170 -0.8410 -0.4526  0.7276
   95MOL   H36036268   3.925   3.723   6.251 -0.0445 -1.2884 -0.4480
   95MOL   H36136269   3.761   3.556   6.172 -0.6019 -0.8352 -1.8672
   95MOL   H36236270   3.612   3.616   5.986 -0.9792  2.1209 -0.7515
   95MOL   C36336271   3.610   3.853   5.840 -0.3514  0.2457 -0.3275
   95MOL   C36436272   3.700   3.871   5.713  0.5612  0.0015  0.0890
   95MOL   O36536273   3.619   3.751   5.740 -0.4210 -0.3529 -0.1022
   95MOL   C36636274   3.852   3.845   5.714  0.1877 -1.1388 -0.1567
   95MOL   O36736275   3.908   3.863   5.588 -0.1878  0.1131 -0.3947
   95MOL   C36836276   4.045   3.900   5.584 -0.1738  0.2439  0.9987
   95MOL   C36936277   4.107   3.954   5.474  0.2277  0.2763 -0.4027
   95MOL   C37036278   4.238   4.008   5.475 -0.1918  0.1065  0.6227
   95MOL   C37136279   4.318   3.993   5.585 -0.5585 -0.0773  0.1195
   95MOL   C37236280   4.263   3.928   5.693 -0.5635  0.0837 -0.5173
   95MOL   C37336281   4.130   3.881   5.693  0.1060  0.2245 -0.0940
   95MOL   H37436282   3.520   3.913   5.848 -1.3419 -1.0447 -1.4737
   95MOL   H37536283   3.661   3.948   5.646 -2.1477  0.3361  1.9408
   95MOL   H37636284   3.877   3.745   5.750  2.9105  0.3636  2.3811
   95MOL   H37736285   3.900   3.920   5.776 -2.4296  0.1511  0.3589
   95MOL   H37836286   4.037   3.964   5.392 -0.0264 -0.4654 -0.2799
   95MOL   H37936287   4.279   4.068   5.395  0.3277 -2.8248 -1.4109
   95MOL   H38036288   4.420   4.031   5.583 -0.2829 -0.7571  0.7484
   95MOL   H38136289   4.325   3.913   5.781  2.1302  1.4877 -2.1099
   95MOL   H38236290   4.098   3.842   5.788 -0.2197  4.2524  1.5570
   96MOL     C136291   0.066   5.690   3.152  0.5078 -0.1155 -0.4609
   96MOL     C236292   8.158   5.637   3.031 -0.0132  0.0481 -0.8470
   96MOL     O336293   0.119   5.689   3.022 -0.0225  0.6210  0.1534
   96MOL     C436294   8.053   5.717   2.952 -0.1470 -0.3975 -0.4384
   96MOL     O536295   8.060   5.677   2.816 -0.2181  0.0353  0.0757
   96MOL     C636296   7.992   5.765   2.728 -1.2197  0.3426 -0.4623
   96MOL     C736297   7.959   5.899   2.750  0.4348 -0.0838 -0.2983
   96MOL     C836298   7.892   5.980   2.658  0.0005 -0.4224  0.4858
   96MOL     C936299   7.863   5.929   2.536  0.5844  0.3119  0.1001
   96MOL    C1036300   7.901   5.799   2.504 -0.2599  0.3613 -0.5509
   96MOL    C1136301   7.966   5.716   2.599 -0.5264  0.2925  0.1807
   96MOL    H1236302   0.111   5.629   3.230 -1.6099  0.7593  1.4946
   96MOL    H1336303   8.163   5.530   3.012  1.1455 -0.3140  1.3208
   96MOL    H1436304   8.089   5.816   2.978  0.4545 -0.3677 -1.3660
   96MOL    H1536305   7.950   5.708   2.986  0.2298 -2.4682  0.2332
   96MOL    H1636306   7.979   5.954   2.841 -1.0381 -0.0499  0.0228
   96MOL    H1736307   7.854   6.077   2.686 -0.6272 -0.0167 -1.6927
   96MOL    H1836308   7.812   5.982   2.456  1.4713  2.0416  0.6397
   96MOL    H1936309   7.865   5.760   2.410 -1.5829 -1.9056  0.8442
   96MOL    H2036310   0.041   5.787   3.194  0.6397  0.5647 -1.9279
   96MOL    C2136311   8.015   5.584   2.559 -0.3649  0.3167 -0.1002
   96MOL    C2236312   7.954   5.455   2.600 -0.0496 -0.0284  0.3727
   96MOL    O2336313   7.925   5.513   2.473 -0.1979  0.2899  0.0882
   96MOL    C2436314   7.837   5.457   2.695  0.1226  0.0049 -0.8437
   96MOL    O2536315   7.800   5.317   2.735  0.2012 -0.2357  0.0123
   96MOL    C2636316   7.886   5.242   2.815 -0.2456  0.2892  0.1779
   96MOL    C2736317   7.992   5.289   2.895  0.2714  1.2020  0.0810
   96MOL    C2836318   8.075   5.196   2.965  0.1281  0.7316  0.2792
   96MOL    C2936319   8.050   5.057   2.948  0.4233 -0.1466  0.5469
   96MOL    C3036320   7.944   5.007   2.876 -1.1822  0.0312 -0.8526
   96MOL    C3136321   7.865   5.103   2.810 -0.1540 -0.5659 -1.1834
   96MOL    H3236322   8.115   5.589   2.516 -0.2247  0.4675  0.2454
   96MOL    H3336323   8.003   5.358   2.593 -0.2955 -0.0932 -0.4753
   96MOL    H3436324   7.744   5.498   2.657 -0.2236  1.5125  1.5403
   96MOL    H3536325   7.865   5.521   2.778 -1.0192  1.0131 -1.2252
   96MOL    H3636326   8.020   5.393   2.899  1.2443  0.9194  1.0720
   96MOL    H3736327   8.157   5.221   3.032  0.2661  1.5405 -0.1891
   96MOL    H3836328   8.123   4.986   2.984 -1.1019 -1.5977  0.8455
   96MOL    H3936329   7.941   4.900   2.856 -0.0816 -0.2481  0.4491
   96MOL    C4036330   7.740   5.050   2.735 -0.2012  0.2919 -0.3867
   96MOL    C4136331   7.712   5.066   2.587 -0.3011 -0.6259  0.2233
   96MOL    O4236332   7.764   4.944   2.637 -0.1694 -0.0834 -0.5321
   96MOL    C4336333   7.807   5.132   2.494  0.1386  0.3271  0.8173
   96MOL    O4436334   7.786   5.084   2.358 -0.0235 -0.1456  0.3290
   96MOL    C4536335   7.664   5.122   2.303  0.6032  0.3767 -0.1873
   96MOL    C4636336   7.554   5.035   2.319 -0.1402 -0.3543  0.7356
   96MOL    C4736337   7.428   5.063   2.262  0.1942 -0.5166 -0.0987
   96MOL    C4836338   7.416   5.184   2.183 -0.8514 -0.4449 -0.0759
   96MOL    C4936339   7.529   5.267   2.158 -0.2498  0.4406 -0.5950
   96MOL    C5036340   7.650   5.239   2.221  0.9969  0.3314  1.1891
   96MOL    H5136341   7.666   5.010   2.804 -0.1150  1.9353  0.6677
   96MOL    H5236342   7.605   5.058   2.567 -0.2297 -0.1738 -0.3349
   96MOL    H5336343   7.911   5.120   2.524  0.1617 -0.8128  0.3039
   96MOL    H5436344   7.794   5.240   2.493  2.2628  0.5954  1.6936
   96MOL    H5536345   7.559   4.948   2.382  2.9780 -0.1259  0.8734
   96MOL    H5636346   7.334   5.011   2.264 -0.1568  0.0729 -1.0138
   96MOL    H5736347   7.320   5.198   2.136 -1.1392  1.6880  1.1003
   96MOL    H5836348   7.514   5.361   2.107  1.8261  0.3671 -1.3976
   96MOL    C5936349   7.767   5.329   2.208 -0.2996 -0.2717  0.1996
   96MOL    C6036350   7.882   5.300   2.119 -0.0047 -0.2274  0.4072
   96MOL    O6136351   7.780   5.396   2.080 -0.6404  1.0907  0.6340
   96MOL    C6236352   7.883   5.171   2.033 -0.3234 -0.8212  0.6877
   96MOL    O6336353   8.016   5.143   1.986  0.3678 -0.0571 -0.0231
   96MOL    C6436354   8.088   5.047   2.047 -0.0212  0.6307 -0.0779
   96MOL    C6536355   8.074   5.014   2.182  0.3363  0.6849 -0.0031
   96MOL    C6636356   8.158   4.913   2.233 -0.4939 -0.1407  0.0120
   96MOL    C6736357   0.086   4.852   2.151  0.6545 -0.1546  0.1092
   96MOL    C6836358   0.100   4.895   2.021  0.2074  0.7845  0.4005
   96MOL    C6936359   0.023   4.998   1.964  0.0341 -0.0764 -0.6189
   96MOL    H7036360   7.775   5.388   2.300  0.4912 -1.7840  1.1293
   96MOL    H7136361   7.981   5.338   2.143 -0.2997  2.1076 -1.7776
   96MOL    H7236362   7.815   5.181   1.949  0.2239  0.1883  0.3618
   96MOL    H7336363   7.846   5.084   2.087 -0.5903 -1.0889  0.0687
   96MOL    H7436364   8.014   5.068   2.254 -1.4822 -1.9844  0.5531
   96MOL    H7536365   8.154   4.879   2.335  0.1098  3.2139  1.1868
   96MOL    H7636366   0.149   4.770   2.183  0.3651 -0.3184  0.2692
   96MOL    H7736367   0.171   4.847   1.955  0.0000  0.9289  0.0678
   96MOL    C7836368   0.025   5.030   1.818 -0.2097  0.8324  0.1721
   96MOL    C7936369   0.135   5.105   1.745 -0.0618  0.6167  0.5952
   96MOL    O8036370   0.129   4.963   1.745  0.4769 -0.2353 -0.5605
   96MOL    C8136371   0.251   5.171   1.814 -0.2454  0.4961  0.2991
   96MOL    O8236372   0.248   5.307   1.787  0.1576 -0.5698 -0.3597
   96MOL    C8336373   0.296   5.360   1.668  0.3559 -0.2085 -0.2557
   96MOL    C8436374   0.345   5.285   1.564  0.2457 -0.4895  0.7690
   96MOL    C8536375   0.395   5.345   1.445 -0.0108  0.3372  0.7112
   96MOL    C8636376   0.389   5.485   1.432 -0.3147 -0.2904 -0.0189
   96MOL    C8736377   0.332   5.558   1.536  0.7758 -0.6592 -0.2068
   96MOL    C8836378   0.296   5.499   1.658 -0.6179 -0.1460 -0.2116
   96MOL    H8936379   8.097   5.023   1.770  0.3234 -0.2063 -0.7737
   96MOL    H9036380   0.106   5.144   1.648  1.2005  0.5748  0.1943
   96MOL    H9136381   0.346   5.124   1.789  0.0032  1.2618 -0.1871
   96MOL    H9236382   0.252   5.155   1.922  2.1670 -0.1521  0.2064
   96MOL    H9336383   0.340   5.177   1.573 -1.1318 -0.4312  0.8399
   96MOL    H9436384   0.438   5.287   1.365  0.0238 -1.5890  2.0634
   96MOL    H9536385   0.428   5.541   1.348  3.3341  1.5408  2.7296
   96MOL    H9636386   0.332   5.666   1.529  0.6980 -0.5715  1.0914
   96MOL    C9736387   0.240   5.582   1.767 -0.1505 -0.1962  0.1307
   96MOL    C9836388   0.320   5.637   1.880 -0.5542  0.8027 -0.0073
   96MOL    O9936389   0.296   5.717   1.765  0.2413 -0.3264 -0.0864
   96MOL   C10036390   0.464   5.601   1.893  0.4380 -0.0084 -0.1440
   96MOL   O10136391   0.484   5.482   1.969 -0.6047  0.6375 -0.5840
   96MOL   C10236392   0.450   5.486   2.105  0.3929 -0.2229  0.0702
   96MOL   C10336393   0.430   5.608   2.178  0.0447  0.3706 -0.0921
   96MOL   C10436394   0.387   5.595   2.310 -0.6300  0.1515  0.2743
   96MOL   C10536395   0.374   5.468   2.367  0.0891  0.7580  0.8907
   96MOL   C10636396   0.399   5.350   2.295 -0.4364  0.0390 -0.6491
   96MOL   C10736397   0.449   5.359   2.168  0.2545 -0.3966  0.3850
   96MOL   H10836398   0.132   5.579   1.780 -0.3214 -2.0200 -1.5156
   96MOL   H10936399   0.273   5.684   1.966  0.0529 -0.5970  1.1165
   96MOL   H11036400   0.526   5.681   1.935 -0.0586  2.3783 -3.7467
   96MOL   H11136401   0.499   5.578   1.793  2.6216 -1.6141  0.9413
   96MOL   H11236402   0.441   5.705   2.132 -0.7858  1.4049  1.8265
   96MOL   H11336403   0.371   5.681   2.374  0.3073  0.3986  0.1847
   96MOL   H11436404   0.357   5.456   2.473  2.6068 -2.3571  1.0206
   96MOL   H11536405   0.380   5.255   2.343 -0.2420  0.2494 -0.1535
   96MOL   C11636406   0.486   5.235   2.088  0.2075 -0.1881 -0.2925
   96MOL   C11736407   0.569   5.120   2.139 -0.8335 -0.1944  0.0699
   96MOL   O11836408   0.426   5.124   2.135  0.5597 -0.0192 -0.4036
   96MOL   C11936409   0.638   5.112   2.272 -0.0835  0.2513 -0.2756
   96MOL   O12036410   0.590   4.997   2.356 -0.4515  0.5133  0.1936
   96MOL   C12136411   0.655   4.970   2.472  0.5364  0.3899  0.0680
   96MOL   C12236412   0.790   4.999   2.495  0.2912 -0.3906 -0.2207
   96MOL   C12336413   0.845   4.971   2.624 -0.0584 -0.5254  0.0018
   96MOL   C12436414   0.769   4.909   2.719  0.4049  0.5796 -0.7180
   96MOL   C12536415   0.637   4.867   2.702 -0.4146  0.3193 -0.7603
   96MOL   C12636416   0.580   4.894   2.569  0.0181 -0.2805 -0.0705
   96MOL   H12736417   0.470   5.237   1.980  0.9339  1.2150 -0.3796
   96MOL   H12836418   0.610   5.051   2.065 -0.1283 -0.4786  0.7202
   96MOL   H12936419   0.614   5.197   2.336  1.8701  0.8060 -0.2484
   96MOL   H13036420   0.746   5.109   2.260 -0.1254 -0.3181 -0.5000
   96MOL   H13136421   0.846   5.049   2.419 -1.3015  0.0650 -1.1168
   96MOL   H13236422   0.948   4.999   2.645 -0.3141 -1.6668  3.0486
   96MOL   H13336423   0.828   4.878   2.804 -0.7691 -2.6677 -1.0188
   96MOL   H13436424   0.587   4.811   2.779  0.0773 -0.0819 -0.7312
   96MOL   C13536425   0.442   4.852   2.529 -0.4970 -0.0907  0.1471
   96MOL   C13636426   0.414   4.745   2.422 -0.3765  0.4039 -0.5338
   96MOL   O13736427   0.400   4.717   2.567 -0.0587 -0.9447  0.2581
   96MOL   C13836428   0.529   4.668   2.352 -0.2251  0.2404  0.2353
   96MOL   O13936429   0.473   4.566   2.265  0.8841 -0.0661  0.2601
   96MOL   C14036430   0.548   4.483   2.189  0.0808  0.3589  0.8116
   96MOL   C14136431   0.685   4.499   2.161  0.7376 -0.3037  0.3709
   96MOL   C14236432   0.761   4.403   2.088 -0.5082  0.1566 -0.1582
   96MOL   C14336433   0.694   4.299   2.025 -0.1376 -0.4650 -0.4698
   96MOL   C14436434   0.558   4.284   2.042 -0.6974  0.1141 -0.0449
   96MOL   C14536435   0.487   4.372   2.126  0.3032 -0.0902 -0.0570
   96MOL   H14636436   0.379   4.938   2.550 -0.8418 -0.5707  1.0927
   96MOL   H14736437   0.316   4.752   2.375 -2.3125 -0.5338  3.0852
   96MOL   H14836438   0.602   4.621   2.418  0.3117  0.2066 -0.3700
   96MOL   H14936439   0.568   4.740   2.280 -1.1227 -1.0252 -1.5565
   96MOL   H15036440   0.739   4.581   2.206  0.4131  1.4219 -2.2874
   96MOL   H15136441   0.868   4.400   2.092 -0.5033 -0.8209 -0.8288
   96MOL   H15236442   0.762   4.236   1.970  0.3968  0.0625 -0.4260
   96MOL   H15336443   0.505   4.200   2.000  0.9752 -1.7900  1.5275
   96MOL   C15436444   0.343   4.342   2.158  0.5658  0.0067  0.4118
   96MOL   C15536445   0.227   4.401   2.085  0.0665  0.0588  0.6337
   96MOL   O15636446   0.272   4.266   2.061  0.0684 -0.4501 -0.2793
   96MOL   C15736447   0.247   4.494   1.970 -0.1601  0.1524 -0.4576
   96MOL   O15836448   0.131   4.538   1.900 -0.3994 -0.4943  0.4549
   96MOL   C15936449   0.056   4.436   1.850  0.4132  0.1561 -0.7027
   96MOL   C16036450   0.107   4.303   1.821  0.7693 -0.5596  0.8387
   96MOL   C16136451   0.021   4.200   1.785 -0.2855  0.2112 -0.0238
   96MOL   C16236452   8.057   4.229   1.766  0.1998 -0.0173 -0.7484
   96MOL   C16336453   8.007   4.349   1.802  0.2238  0.5407 -0.3492
   96MOL   C16436454   8.085   4.449   1.853  0.1253  0.0411  0.1045
   96MOL   H16536455   0.328   4.298   2.256 -1.4562 -1.0362 -0.3512
   96MOL   H16636456   0.139   4.411   2.149 -0.4572  1.6304 -0.2929
   96MOL   H16736457   0.329   4.460   1.907  0.5682  0.0782  0.5169
   96MOL   H16836458   0.295   4.579   2.018  1.6217 -0.4142 -1.1999
   96MOL   H16936459   0.213   4.283   1.815  1.1852  1.6603  0.6436
   96MOL   H17036460   0.061   4.104   1.757  3.3771  0.9719  2.2770
   96MOL   H17136461   7.993   4.155   1.719  1.8489 -0.2408 -2.7245
   96MOL   H17236462   7.900   4.363   1.797  0.1188  0.0008  0.2884
   96MOL   C17336463   8.020   4.581   1.893 -0.1840  1.4047  0.4419
   96MOL   C17436464   8.016   4.701   1.798 -0.6606 -0.2733  0.0182
   96MOL   O17536465   7.896   4.623   1.828  0.2717 -0.2385 -0.5488
   96MOL   C17636466   8.071   4.690   1.656  0.2034  0.1520 -0.5970
   96MOL   O17736467   7.977   4.767   1.576  0.0312  0.3652 -0.3022
   96MOL   C17836468   7.969   4.753   1.440  0.6872  0.2353 -0.4819
   96MOL   C17936469   8.072   4.689   1.368  0.7074 -0.8838 -0.5112
   96MOL   C18036470   8.057   4.651   1.235 -0.4139  0.0559 -0.5891
   96MOL   C18136471   7.940   4.685   1.173 -0.3411 -0.1260 -0.0148
   96MOL   C18236472   7.834   4.749   1.237 -0.0159  0.1376  0.1332
   96MOL   C18336473   7.844   4.771   1.376  0.9044 -0.6628 -0.1494
   96MOL   H18436474   8.025   4.584   2.002  2.1395 -0.3970  0.4044
   96MOL   H18536475   8.032   4.795   1.851 -1.1571 -0.5541  0.6732
   96MOL   H18636476   8.070   4.589   1.615  2.0983  0.5667 -1.7066
   96MOL   H18736477   0.005   4.723   1.659 -0.2384  1.4455  1.8420
   96MOL   H18836478   8.165   4.659   1.415 -0.1126  0.6715  2.1776
   96MOL   H18936479   8.145   4.612   1.187  1.8461  1.0274  2.6497
   96MOL   H19036480   7.930   4.671   1.067 -0.4475 -0.9047  0.0945
   96MOL   H19136481   7.743   4.760   1.182 -0.0885 -0.3216  0.1627
   96MOL   C19236482   7.721   4.823   1.457 -0.1047 -0.2091 -0.8496
   96MOL   C19336483   7.722   4.943   1.543  0.6909 -0.4015 -0.3505
   96MOL   O19436484   7.663   4.938   1.407 -0.2706 -0.5220 -0.2306
   96MOL   C19536485   7.824   5.051   1.571 -0.0444  0.4064  0.1749
   96MOL   O19636486   7.752   5.166   1.599  0.2170  0.2368  0.0041
   96MOL   C19736487   7.806   5.286   1.553  0.0096  0.3216  0.1762
   96MOL   C19836488   7.897   5.357   1.638  0.7107 -0.6597  0.4649
   96MOL   C19936489   7.959   5.477   1.596 -0.1198 -0.0047  0.3876
   96MOL   C20036490   7.927   5.531   1.467  0.0825  0.0467 -0.4397
   96MOL   C20136491   7.850   5.452   1.376  0.4358  0.8807 -0.1084
   96MOL   C20236492   7.790   5.332   1.419  0.0930 -0.6256  0.2516
   96MOL   H20336493   7.652   4.750   1.500 -0.1160  0.8627  1.0379
   96MOL   H20436494   7.645   4.954   1.620 -1.6593  0.3585 -2.7242
   96MOL   H20536495   7.889   5.062   1.483  1.8462 -3.3260  0.9861
   96MOL   H20636496   7.891   5.028   1.654 -0.1221 -1.9285 -0.3696
   96MOL   H20736497   7.926   5.317   1.734  2.3923 -0.6213 -0.0193
   96MOL   H20836498   8.025   5.530   1.662 -0.4974  0.3367  0.4962
   96MOL   H20936499   7.970   5.624   1.434  0.7968  0.3139  1.1681
   96MOL   H21036500   7.838   5.477   1.271 -0.6218 -1.9945 -0.7150
   96MOL   C21136501   7.703   5.247   1.329 -1.0187 -0.3466  0.3725
   96MOL   C21236502   7.557   5.264   1.318 -0.4392  0.6208 -0.1563
   96MOL   O21336503   7.638   5.321   1.220  0.0898  0.0421 -0.5871
   96MOL   C21436504   7.485   5.363   1.406 -0.4788  0.2435 -0.7903
   96MOL   O21536505   7.348   5.342   1.429 -0.0963  0.5743  0.1544
   96MOL   C21636506   7.258   5.371   1.327 -0.3922 -0.0952 -0.9020
   96MOL   C21736507   7.290   5.428   1.209 -0.3294  0.2976 -0.0970
   96MOL   C21836508   7.198   5.449   1.108  0.1719  0.5868  0.7514
   96MOL   C21936509   7.059   5.411   1.124 -0.2374  0.6926  0.3220
   96MOL   C22036510   7.025   5.351   1.247 -0.0601 -0.3613 -0.2666
   96MOL   C22136511   7.124   5.335   1.350  0.0955 -0.1485 -0.5839
   96MOL   H22236512   7.752   5.156   1.294 -0.0773  0.8795 -1.5947
   96MOL   H22336513   7.498   5.185   1.273 -0.1415  1.0803 -1.3627
   96MOL   H22436514   7.501   5.463   1.365 -0.6685 -0.1498 -1.8291
   96MOL   H22536515   7.537   5.353   1.501 -1.6247 -1.2567 -0.3160
   96MOL   H22636516   7.393   5.449   1.183  0.5245  0.1179  2.9734
   96MOL   H22736517   7.232   5.494   1.016  0.8163 -3.0365 -0.8411
   96MOL   H22836518   6.989   5.417   1.041  1.4948  1.7469 -1.1016
   96MOL   H22936519   6.924   5.317   1.261  0.0529 -0.0881  1.3281
   96MOL   C23036520   7.090   5.300   1.494  0.2088  0.0777  0.4414
   96MOL   C23136521   7.016   5.386   1.587  0.3599  0.2762 -0.8502
   96MOL   O23236522   6.954   5.281   1.511 -1.0369 -0.2498 -0.4750
   96MOL   C23336523   6.988   5.527   1.539  0.2412 -0.4059  0.1120
   96MOL   O23436524   6.889   5.591   1.615 -0.0321  0.4563 -0.0917
   96MOL   C23536525   6.758   5.597   1.563  0.0799  0.6011 -0.0835
   96MOL   C23636526   6.702   5.486   1.489 -0.2136 -0.4679 -0.2423
   96MOL   C23736527   6.575   5.494   1.437 -0.3272 -0.3067  0.1288
   96MOL   C23836528   6.499   5.603   1.461 -0.6312  0.5387 -0.3325
   96MOL   C23936529   6.553   5.716   1.525 -0.0152  0.8898 -0.3012
   96MOL   C24036530   6.680   5.713   1.585 -0.4626  0.3764 -0.3086
   96MOL   H24136531   7.154   5.221   1.532  0.4490  1.5928  3.3276
   96MOL   H24236532   7.048   5.370   1.689 -1.2964  1.5959 -0.0835
   96MOL   H24336533   6.968   5.528   1.432  1.7364 -0.6056 -0.1702
   96MOL   H24436534   7.087   5.570   1.555  0.7997 -2.1704  1.5434
   96MOL   H24536535   6.767   5.400   1.480 -0.6465 -1.1714  2.8507
   96MOL   H24636536   6.543   5.418   1.368  2.7111 -0.3492 -1.3248
   96MOL   H24736537   6.406   5.615   1.407 -2.0144  3.2067  2.4731
   96MOL   H24836538   6.491   5.805   1.525  2.0932  2.3807 -1.0045
   96MOL   C24936539   6.735   5.827   1.672 -0.5502 -0.5006 -0.3701
   96MOL   C25036540   6.844   5.922   1.632  0.2875  0.6067  0.9498
   96MOL   O25136541   6.705   5.957   1.616 -0.2332  0.6809  0.0749
   96MOL   C25236542   6.928   5.883   1.513  0.2111 -0.5218 -0.1250
   96MOL   O25336543   7.013   5.991   1.471  0.3319  0.0918 -0.4456
   96MOL   C25436544   7.095   5.961   1.366 -1.4746 -0.6474  0.0842
   96MOL   C25536545   7.093   5.835   1.296 -0.2527  0.4403 -1.2899
   96MOL   C25636546   7.166   5.810   1.178  0.6729 -0.0288 -0.5891
   96MOL   C25736547   7.255   5.914   1.141  0.8602  0.4832  0.1265
   96MOL   C25836548   7.274   6.033   1.217  0.1146  0.0547 -0.2833
   96MOL   C25936549   7.188   6.061   1.325 -0.4807 -0.2463 -1.0977
   96MOL   H26036550   6.697   5.814   1.773  1.6732 -2.3407  0.2820
   96MOL   H26136551   6.896   5.966   1.717  0.9841 -1.4030  1.5996
   96MOL   H26236552   6.864   5.841   1.435  0.7496 -0.1114 -0.7894
   96MOL   H26336553   6.993   5.803   1.549  0.8399 -0.8978 -2.0940
   96MOL   H26436554   7.027   5.755   1.327  2.9710 -1.7266  0.2834
   96MOL   H26536555   7.162   5.714   1.130 -1.7322 -0.2064 -0.0705
   96MOL   H26636556   7.313   5.904   1.051  0.6492  0.9079 -0.0563
   96MOL   H26736557   7.352   6.104   1.192  0.2213 -0.0666 -0.2940
   96MOL   C26836558   7.197   6.184   1.415  0.0820  0.2444 -0.1406
   96MOL   C26936559   7.288   6.174   1.537  0.0232  0.1038 -0.9303
   96MOL   O27036560   7.329   6.244   1.418  0.1392  0.6825  0.0505
   96MOL   C27136561   7.369   6.052   1.564  0.0741 -0.4304  0.0679
   96MOL   O27236562   7.426   6.051   1.702  0.2262 -0.0248  0.3629
   96MOL   C27336563   7.351   6.019   1.807 -0.2984 -0.3918  0.0396
   96MOL   C27436564   7.214   5.989   1.806  0.0071  0.2320  0.9144
   96MOL   C27536565   7.147   5.945   1.919 -0.5599 -0.3255 -0.4783
   96MOL   C27636566   7.214   5.932   2.042  0.2431  0.1135  0.6412
   96MOL   C27736567   7.348   5.959   2.041  0.0563 -0.6348  0.4874
   96MOL   C27836568   7.415   6.010   1.930  0.5431 -0.3213 -0.6868
   96MOL   H27936569   7.107   6.244   1.418 -0.3499 -0.4736  1.3407
   96MOL   H28036570   7.272   6.241   1.622  1.3881 -0.2338 -0.3980
   96MOL   H28136571   7.453   6.029   1.498  0.4519  2.9216 -0.6825
   96MOL   H28236572   7.306   5.963   1.559 -2.0787  0.9548  1.9210
   96MOL   H28336573   7.155   5.992   1.716 -0.6703 -1.7784  1.2520
   96MOL   H28436574   7.044   5.914   1.915 -1.1163  1.3602  0.4577
   96MOL   H28536575   7.170   5.886   2.130  0.9841 -0.6430  0.6243
   96MOL   H28636576   7.401   5.927   2.130 -0.4720 -2.3080  0.2041
   96MOL   C28736577   7.561   6.046   1.936  0.7789  0.0958 -0.4459
   96MOL   C28836578   7.605   6.184   1.964 -0.0313 -0.3970 -0.0827
   96MOL   O28936579   7.606   6.086   2.068  0.5137 -0.2191  0.4432
   96MOL   C29036580   7.514   6.301   1.989 -0.3842  0.2229 -0.0849
   96MOL   O29136581   7.593   6.417   2.003 -0.1552 -0.0429 -0.7535
   96MOL   C29236582   7.644   6.456   2.125 -0.3180 -0.0364  0.6586
   96MOL   C29336583   7.646   6.370   2.241 -0.1744 -0.3661  0.0580
   96MOL   C29436584   7.705   6.417   2.362  0.2175 -0.0623 -0.2934
   96MOL   C29536585   7.768   6.540   2.368 -0.9082 -0.0493  0.8426
   96MOL   C29636586   7.758   6.625   2.254  0.2667 -0.0294 -0.4823
   96MOL   C29736587   7.699   6.585   2.134 -0.0007 -0.8677 -0.4383
   96MOL   H29836588   7.629   5.979   1.882  1.3977  1.3825 -1.2760
   96MOL   H29936589   7.703   6.202   1.920 -1.6171  0.8917 -3.2583
   96MOL   H30036590   7.448   6.283   2.074  2.6149 -2.1007  1.8501
   96MOL   H30136591   7.456   6.317   1.898 -0.9304  1.1965  0.4219
   96MOL   H30236592   7.593   6.277   2.228 -1.4927  0.2536  0.9723
   96MOL   H30336593   7.706   6.358   2.452  0.0164  0.7862  0.2666
   96MOL   H30436594   7.806   6.586   2.457 -0.1070  0.3823  0.2783
   96MOL   H30536595   7.800   6.724   2.258 -0.2116  0.1472  0.4140
   96MOL   C30636596   7.704   6.670   2.017  0.4438  0.2139 -0.4381
   96MOL   C30736597   7.585   6.759   1.975 -0.6594 -0.6927  0.1067
   96MOL   O30836598   7.698   6.810   2.046 -0.1610 -0.2711  0.7011
   96MOL   C30936599   7.452   6.758   2.054 -0.6666 -0.0523  0.0566
   96MOL   O31036600   7.378   6.866   1.994  0.8465 -0.0072  0.1466
   96MOL   C31136601   7.272   6.922   2.060  1.0236  0.2487 -0.2419
   96MOL   C31236602   7.223   6.870   2.180 -0.2497  0.4838 -0.8471
   96MOL   C31336603   7.103   6.930   2.232 -0.3182 -0.4150  0.1190
   96MOL   C31436604   7.058   7.058   2.193  1.3969 -0.1997  0.5506
   96MOL   C31536605   7.120   7.119   2.080 -0.4859 -0.1696 -0.6390
   96MOL   C31636606   7.219   7.043   2.006 -0.2135 -0.0447 -0.2257
   96MOL   H31736607   7.775   6.643   1.939  0.2263  1.9900 -1.2876
   96MOL   H31836608   7.584   6.769   1.867  1.5433 -0.4597  0.0923
   96MOL   H31936609   7.485   6.780   2.155  0.1264 -2.3275  0.3085
   96MOL   H32036610   7.397   6.664   2.045  1.7273 -1.4059 -1.0176
   96MOL   H32136611   7.255   6.774   2.218 -3.5813 -0.7969 -1.1234
   96MOL   H32236612   7.055   6.888   2.319  0.0987 -0.4741  0.3257
   96MOL   H32336613   6.976   7.104   2.246  0.1862 -2.2165  0.4674
   96MOL   H32436614   7.076   7.206   2.033  0.1228 -0.2117 -1.2862
   96MOL   C32536615   7.276   7.089   1.876 -0.0461 -0.0591  0.6470
   96MOL   C32636616   7.219   7.062   1.739  0.1491  0.3532  0.7292
   96MOL   O32736617   7.195   7.187   1.815 -0.2761 -0.2422 -0.0034
   96MOL   C32836618   7.090   6.989   1.708  0.3958  0.4873  0.8628
   96MOL   O32936619   7.107   6.902   1.593 -0.0907  0.2113 -1.0700
   96MOL   C33036620   7.127   6.952   1.470  0.3469 -0.2936  0.6862
   96MOL   C33136621   7.129   7.085   1.433 -0.6128  0.0836  0.2684
   96MOL   C33236622   7.149   7.131   1.299  0.0137 -0.1564 -0.2841
   96MOL   C33336623   7.170   7.039   1.202 -0.6357  0.0874  0.1385
   96MOL   C33436624   7.162   6.902   1.237  0.1838  0.1692 -0.6047
   96MOL   C33536625   7.145   6.855   1.371 -0.3908  0.4854 -0.0932
   96MOL   H33636626   7.382   7.108   1.884  0.1815 -1.2964  0.6058
   96MOL   H33736627   7.279   7.076   1.649  0.1678  0.9446  0.8356
   96MOL   H33836628   7.003   7.054   1.696  0.8000  0.6027 -1.9701
   96MOL   H33936629   7.059   6.930   1.794 -0.1368  2.6216  2.1742
   96MOL   H34036630   7.116   7.160   1.510  0.6585  0.8541 -0.2451
   96MOL   H34136631   7.166   7.230   1.259 -0.0503  0.6284  1.6115
   96MOL   H34236632   7.189   7.059   1.098 -1.6531  1.6214  0.2306
   96MOL   H34336633   7.167   6.831   1.156 -2.1193  0.5293 -1.1113
   96MOL   C34436634   7.142   6.706   1.396  0.2069  0.4801  0.1661
   96MOL   C34536635   7.006   6.630   1.401 -0.4186 -0.4769 -0.3743
   96MOL   O34636636   7.091   6.625   1.286 -0.4660  0.1456 -0.0700
   96MOL   C34736637   6.878   6.699   1.369 -0.0331 -0.3936 -0.3671
   96MOL   O34836638   6.764   6.634   1.424  0.8592  0.0684  0.1906
   96MOL   C34936639   6.746   6.653   1.563  0.0224  0.3690 -0.1363
   96MOL   C35036640   6.772   6.773   1.636 -0.1035 -0.9092 -0.6175
   96MOL   C35136641   6.754   6.789   1.771 -0.5358 -0.0131  0.7246
   96MOL   C35236642   6.708   6.675   1.846 -0.6761 -0.1722 -0.2118
   96MOL   C35336643   6.676   6.553   1.774 -0.3355 -0.1883  0.6258
   96MOL   C35436644   6.696   6.537   1.634  0.7968 -0.2107  0.2321
   96MOL   H35536645   7.215   6.665   1.465  1.7488  0.4151 -1.4865
   96MOL   H35636646   7.006   6.530   1.445  0.3644 -1.3228 -2.2475
   96MOL   H35736647   6.863   6.697   1.261 -1.1022 -0.0516 -0.2328
   96MOL   H35836648   6.878   6.806   1.388  0.1326 -0.7091  1.5074
   96MOL   H35936649   6.812   6.864   1.594 -1.5713 -0.3708 -0.8585
   96MOL   H36036650   6.777   6.873   1.835 -2.5975  0.4829  0.8770
   96MOL   H36136651   6.709   6.693   1.952  2.2369  2.6754 -0.6307
   96MOL   H36236652   6.635   6.477   1.839 -1.3012 -0.9140 -0.7976
   96MOL   C36336653   6.666   6.402   1.560  0.4909  0.0507  0.1388
   96MOL   C36436654   6.758   6.287   1.565 -0.1818  0.2271 -0.3539
   96MOL   O36536655   6.643   6.292   1.646  0.4040  0.0237 -0.2408
   96MOL   C36636656   6.887   6.272   1.647 -1.6166 -0.2063  0.2334
   96MOL   O36736657   6.960   6.397   1.646  0.1601 -0.2372 -0.4097
   96MOL   C36836658   7.033   6.419   1.755  0.9037  0.0633  0.2018
   96MOL   C36936659   7.089   6.322   1.839  0.0605 -0.2993 -0.3783
   96MOL   C37036660   7.149   6.359   1.959  0.0120 -0.3056  0.8909
   96MOL   C37136661   7.159   6.495   1.992  0.2825  0.1863 -0.2258
   96MOL   C37236662   7.109   6.595   1.906  0.0960 -0.0203 -0.3484
   96MOL   C37336663   7.054   6.556   1.782  0.2172  0.4063  0.6628
   96MOL   H37436664   6.596   6.406   1.477  0.4914 -1.5258  0.0507
   96MOL   H37536665   6.748   6.215   1.484  1.9893  0.2943 -0.6964
   96MOL   H37636666   6.948   6.192   1.604  0.8293  1.3049  0.7759
   96MOL   H37736667   6.865   6.240   1.748 -0.2926  1.6769  1.1560
   96MOL   H37836668   7.084   6.220   1.806  0.7209 -0.2434 -0.6616
   96MOL   H37936669   7.181   6.280   2.025 -0.0748 -0.7846  0.3630
   96MOL   H38036670   7.200   6.516   2.090  0.2916  1.8369 -0.5682
   96MOL   H38136671   7.132   6.699   1.925 -2.1795  0.3687  0.4739
   96MOL   H38236672   7.003   6.623   1.714 -1.7039 -1.9308 -0.2509
   97MOL     C136673   0.626   7.243   0.137  0.7634  0.3907 -1.0480
   97MOL     C236674   0.600   7.167   0.015 -0.6837 -0.5545 -0.4455
   97MOL     O336675   0.712   7.131   0.100  0.5484 -0.5191 -0.0642
   97MOL     C436676   0.636   7.219   8.043 -0.3822  0.0777  0.0972
   97MOL     O536677   0.673   7.119   7.942 -0.0336 -0.1453  0.2913
   97MOL     C636678   0.795   7.058   7.936 -0.6953 -0.0811  0.2464
   97MOL     C736679   0.908   7.103   8.009 -0.5510 -0.2893  0.0385
   97MOL     C836680   1.031   7.044   7.991  0.3328 -0.4959 -1.1825
   97MOL     C936681   1.032   6.924   7.922  0.0227  0.5805  0.0683
   97MOL    C1036682   0.918   6.874   7.859 -0.7960  0.0235 -0.4400
   97MOL    C1136683   0.796   6.940   7.860 -0.1881  0.6152  0.3135
   97MOL    H1236684   0.549   7.235   0.213  1.7430  0.2609 -0.0641
   97MOL    H1336685   0.518   7.096   0.005 -0.1409 -0.8002 -3.6374
   97MOL    H1436686   0.707   7.301   8.047 -0.4282  0.1836 -0.9695
   97MOL    H1536687   0.545   7.262   8.002 -0.1576  1.2356  0.8097
   97MOL    H1636688   0.900   7.195   8.064  0.6340  0.1829 -0.5445
   97MOL    H1736689   1.121   7.064   8.046  1.2668 -2.5402 -1.9122
   97MOL    H1836690   1.121   6.863   7.933 -0.1693  0.3162  0.1515
   97MOL    H1936691   0.927   6.778   7.809 -0.1077 -1.0946  1.7907
   97MOL    H2036692   0.676   7.339   0.127 -1.1126  2.0554  3.9418
   97MOL    C2136693   0.675   6.884   7.785 -0.7640  0.5115 -0.0983
   97MOL    C2236694   0.635   6.959   7.660 -0.3595 -0.2243 -0.4513
   97MOL    O2336695   0.715   6.840   7.654  0.1730 -0.5250  0.3443
   97MOL    C2436696   0.699   7.085   7.603 -0.0965  0.4379 -0.0123
   97MOL    O2536697   0.633   7.125   7.484 -0.0003 -0.5540 -0.2740
   97MOL    C2636698   0.678   7.247   7.432  0.3687  0.4120  0.0454
   97MOL    C2736699   0.740   7.348   7.506  0.3058 -0.7639 -0.5577
   97MOL    C2836700   0.775   7.473   7.447 -0.3273 -0.6618  0.2993
   97MOL    C2936701   0.745   7.495   7.313  1.0711 -0.1289  0.3315
   97MOL    C3036702   0.682   7.395   7.234  0.0814 -0.5352  0.0542
   97MOL    C3136703   0.642   7.273   7.298  0.1487 -0.4727 -0.1054
   97MOL    H3236704   0.608   6.819   7.841 -1.6816  2.5605  1.2757
   97MOL    H3336705   0.532   6.942   7.628 -1.2854 -0.4842  2.4515
   97MOL    H3436706   0.808   7.083   7.598 -0.0019  1.3986  1.3621
   97MOL    H3536707   0.677   7.165   7.674  0.4688  2.0051 -1.5742
   97MOL    H3636708   0.759   7.330   7.611  1.2591  0.0875 -0.5652
   97MOL    H3736709   0.825   7.550   7.505 -0.9289 -0.2886  0.3264
   97MOL    H3836710   0.774   7.588   7.266  3.3658  0.1057  2.1372
   97MOL    H3936711   0.659   7.415   7.130 -2.6272  0.6571  0.8516
   97MOL    C4036712   0.568   7.164   7.221  0.8728 -0.7187 -0.4604
   97MOL    C4136713   0.423   7.134   7.263 -0.2719  0.4783 -0.6678
   97MOL    O4236714   0.453   7.209   7.147  0.3651  0.5402  0.1777
   97MOL    C4336715   0.338   7.209   7.367 -0.0562 -0.2752  0.2838
   97MOL    O4436716   0.204   7.165   7.373 -0.1707 -0.9986 -0.2609
   97MOL    C4536717   0.176   7.044   7.424 -0.8299  0.1973 -0.2871
   97MOL    C4636718   0.256   6.978   7.526  0.2489 -0.1392 -0.0081
   97MOL    C4736719   0.219   6.854   7.579  0.0335  0.2819 -0.0727
   97MOL    C4836720   0.107   6.783   7.526  0.6146  0.3490  0.6605
   97MOL    C4936721   0.030   6.853   7.428  0.2748  0.1209 -0.0572
   97MOL    C5036722   0.058   6.977   7.377 -0.9627 -0.9134 -0.0194
   97MOL    H5136723   0.625   7.083   7.177  1.2207 -0.3986 -0.5950
   97MOL    H5236724   0.384   7.040   7.227  0.9071 -0.0734 -0.5251
   97MOL    H5336725   0.349   7.315   7.343 -0.5861 -0.1085  0.7679
   97MOL    H5436726   0.387   7.188   7.463  2.8654  1.0020 -0.8799
   97MOL    H5536727   0.336   7.024   7.581 -1.2575  0.1498  1.9981
   97MOL    H5636728   0.270   6.799   7.656 -1.2734 -2.0943 -0.8737
   97MOL    H5736729   0.074   6.683   7.549 -3.4783  1.5580  0.4429
   97MOL    H5836730   8.107   6.808   7.395  0.5054 -0.1665 -0.3262
   97MOL    C5936731   8.125   7.048   7.294 -0.1539 -0.6942 -0.1833
   97MOL    C6036732   8.137   7.068   7.144 -0.1135 -0.4121  0.8440
   97MOL    O6136733   8.061   6.959   7.204  0.0455  0.0703  0.7356
   97MOL    C6236734   0.091   7.045   7.074 -0.1409 -0.2379  0.0864
   97MOL    O6336735   0.059   7.012   6.948  0.1028  0.0957 -0.4393
   97MOL    C6436736   0.055   6.878   6.910 -0.8161 -0.2155 -0.3351
   97MOL    C6536737   0.070   6.765   6.989 -0.5247  0.5811 -0.3518
   97MOL    C6636738   0.065   6.629   6.942  0.5760  0.2972 -0.9675
   97MOL    C6736739   0.038   6.609   6.808 -0.7516  1.0532 -0.1924
   97MOL    C6836740   0.033   6.722   6.727  0.7008 -0.5707 -0.3083
   97MOL    C6936741   0.048   6.855   6.770  0.1233 -0.3887  0.3477
   97MOL    H7036742   8.066   7.118   7.353  3.2191  2.6941 -0.6885
   97MOL    H7136743   8.075   7.145   7.098 -0.2470 -1.0993 -0.1249
   97MOL    H7236744   0.153   6.968   7.120  0.8784 -0.5926 -1.8312
   97MOL    H7336745   0.156   7.132   7.076 -0.9641  0.4212 -1.2880
   97MOL    H7436746   0.095   6.773   7.094 -2.9156 -1.4853  0.4497
   97MOL    H7536747   0.088   6.548   7.009 -1.1691  0.3939 -0.2313
   97MOL    H7636748   0.042   6.515   6.757 -0.6907  1.7213 -1.4468
   97MOL    H7736749   0.021   6.714   6.620 -1.3144 -0.4841 -0.1124
   97MOL    C7836750   0.040   6.971   6.680 -0.2029 -0.0781  0.0239
   97MOL    C7936751   0.159   7.050   6.634 -0.1474  0.1496  0.5017
   97MOL    O8036752   0.100   6.948   6.548  0.0858 -0.3551 -0.0773
   97MOL    C8136753   0.303   7.032   6.684  1.0348  0.3694  0.1817
   97MOL    O8236754   0.409   7.095   6.611 -0.3002 -0.0190 -0.1481
   97MOL    C8336755   0.485   7.193   6.673  0.1113  0.2961 -0.5609
   97MOL    C8436756   0.545   7.177   6.805  0.1766 -0.4492 -0.8467
   97MOL    C8536757   0.627   7.273   6.859  0.1781 -0.5125 -0.5600
   97MOL    C8636758   0.669   7.379   6.785 -0.4274 -0.3598  0.3160
   97MOL    C8736759   0.622   7.390   6.651 -0.0548 -0.5527 -0.2443
   97MOL    C8836760   0.537   7.299   6.599 -0.2744  0.2951 -0.2854
   97MOL    H8936761   8.109   7.006   6.659  0.3914  1.3628 -0.4644
   97MOL    H9036762   0.132   7.151   6.604  2.2479  1.3264  2.1459
   97MOL    H9136763   0.320   6.925   6.690 -1.2939  0.0353  1.3234
   97MOL    H9236764   0.307   7.064   6.788  1.3754  0.5207  0.1235
   97MOL    H9336765   0.507   7.095   6.863 -0.6423  0.4133 -0.1465
   97MOL    H9436766   0.661   7.273   6.962  0.1916 -2.0451 -0.5518
   97MOL    H9536767   0.738   7.451   6.825 -2.0079  1.3974 -0.0389
   97MOL    H9636768   0.655   7.479   6.600 -1.3399  0.2298  0.2419
   97MOL    C9736769   0.507   7.307   6.454  0.5166 -0.1012 -0.1340
   97MOL    C9836770   0.388   7.385   6.402 -0.8602 -0.0049  0.4881
   97MOL    O9936771   0.524   7.442   6.404  0.2797  0.1939  0.0632
   97MOL   C10036772   0.281   7.466   6.488 -0.1135  0.1651  0.6207
   97MOL   O10136773   0.244   7.580   6.410  0.3607  0.4182 -0.5563
   97MOL   C10236774   0.316   7.701   6.417  0.0731 -0.1099  0.4851
   97MOL   C10336775   0.429   7.715   6.502 -0.1068  0.4495 -0.1279
   97MOL   C10436776   0.477   7.843   6.516  0.4204  0.1491 -0.4491
   97MOL   C10536777   0.427   7.954   6.447  0.1238 -0.5712  0.6130
   97MOL   C10636778   0.337   7.930   6.341 -0.1573 -0.4767 -0.5235
   97MOL   C10736779   0.272   7.808   6.330 -0.1812 -0.1591 -0.1805
   97MOL   H10836780   0.552   7.229   6.394 -2.2983 -1.1503 -0.9400
   97MOL   H10936781   0.347   7.348   6.308 -1.3500 -0.8156  1.0146
   97MOL   H11036782   0.319   7.496   6.585 -1.1506 -0.0244  1.0912
   97MOL   H11136783   0.189   7.415   6.516  0.3786 -0.8948  0.3328
   97MOL   H11236784   0.470   7.638   6.567  1.2783  0.0119 -1.4840
   97MOL   H11336785   0.553   7.863   6.591 -0.1148  3.9515 -0.7994
   97MOL   H11436786   0.475   8.047   6.473  0.9373 -0.4994 -1.1203
   97MOL   H11536787   0.304   8.019   6.289  0.6076  0.0423 -0.1386
   97MOL   C11636788   0.153   7.805   6.239  0.8498 -0.2466 -0.4698
   97MOL   C11736789   0.009   7.793   6.285 -0.0734  0.4396  0.5948
   97MOL   O11836790   0.065   7.918   6.244 -0.3627  0.0662  0.1403
   97MOL   C11936791   8.144   7.790   6.425  0.0790  0.2562  0.5251
   97MOL   O12036792   8.002   7.777   6.422  0.4144  0.2426  0.4318
   97MOL   C12136793   7.941   7.817   6.535 -0.1008  0.4235 -0.0960
   97MOL   C12236794   8.002   7.811   6.663 -0.2580 -0.6702 -0.0758
   97MOL   C12336795   7.932   7.853   6.777 -0.9098  0.2054  0.7682
   97MOL   C12436796   7.810   7.921   6.763  0.2149  0.2913  0.5645
   97MOL   C12536797   7.751   7.936   6.637 -0.1234  0.1701 -0.9548
   97MOL   C12636798   7.819   7.884   6.522  0.1545 -0.2951 -0.3403
   97MOL   H12736799   0.168   7.768   6.138 -2.1404  2.0292 -1.8089
   97MOL   H12836800   8.111   7.734   6.224 -1.4787 -1.0234  3.4929
   97MOL   H12936801   0.003   7.874   6.487 -3.7659 -0.2856  3.2009
   97MOL   H13036802   0.014   7.695   6.461  0.4198  0.2764  0.2063
   97MOL   H13136803   8.100   7.768   6.669  0.1995  0.6019  1.7851
   97MOL   H13236804   7.975   7.835   6.874 -0.5623  2.2966  1.0278
   97MOL   H13336805   7.755   7.956   6.849 -3.6918 -1.5696 -1.0479
   97MOL   H13436806   7.657   7.988   6.625  0.1039  0.3968 -1.7440
   97MOL   C13536807   7.754   7.901   6.395  0.1705  0.6655 -0.0269
   97MOL   C13636808   7.685   7.784   6.329  0.0857 -0.4175  0.3589
   97MOL   O13736809   7.612   7.887   6.404  0.4744  0.1766 -0.4291
   97MOL   C13836810   7.679   7.647   6.393 -0.9446 -0.3986  0.1663
   97MOL   O13936811   7.586   7.559   6.333  0.0082  0.4691 -0.0944
   97MOL   C14036812   7.459   7.568   6.375 -0.1622 -0.2400  0.3422
   97MOL   C14136813   7.403   7.661   6.463  0.1910 -0.0690  0.4126
   97MOL   C14236814   7.261   7.667   6.478 -0.1252  0.1416 -0.6552
   97MOL   C14336815   7.180   7.575   6.414  1.0189  0.4766 -0.4665
   97MOL   C14436816   7.232   7.476   6.328 -0.1176  0.4700 -0.2004
   97MOL   C14536817   7.372   7.471   6.315 -0.4301  0.8226 -1.2151
   97MOL   H14636818   7.795   7.990   6.347  1.8714  1.1579  2.1865
   97MOL   H14736819   7.687   7.780   6.220 -3.5011 -1.1353  0.2634
   97MOL   H14836820   7.674   7.650   6.502 -2.9629  0.9937  0.0744
   97MOL   H14936821   7.774   7.597   6.374  0.3682  1.5272  1.4512
   97MOL   H15036822   7.472   7.728   6.514 -0.1766 -0.5037  1.4912
   97MOL   H15136823   7.228   7.746   6.543 -0.7323 -1.1967  0.7056
   97MOL   H15236824   7.072   7.577   6.416  0.9268 -1.6091 -1.6322
   97MOL   H15336825   7.172   7.406   6.271  0.3026 -0.8135  0.8991
   97MOL   C15436826   7.422   7.362   6.232  0.1005  1.0949  0.4255
   97MOL   C15536827   7.502   7.248   6.303  0.0217 -0.2952 -0.0466
   97MOL   O15636828   7.365   7.240   6.265  0.7436 -0.4911  0.3578
   97MOL   C15736829   7.542   7.231   6.450 -0.1698 -0.5192 -0.5339
   97MOL   O15836830   7.557   7.094   6.476  0.0339  0.0529  0.0514
   97MOL   C15936831   7.664   7.017   6.442 -0.3616  0.3265 -0.1129
   97MOL   C16036832   7.776   7.068   6.374  0.1333 -0.4581 -0.1565
   97MOL   C16136833   7.885   6.985   6.346  0.2283  0.3521  0.2408
   97MOL   C16236834   7.870   6.845   6.364 -0.2023 -0.4699  0.4387
   97MOL   C16336835   7.756   6.793   6.425 -0.0272 -0.1516  0.0779
   97MOL   C16436836   7.654   6.875   6.466 -0.2770  0.4766 -0.1582
   97MOL   H16536837   7.420   7.385   6.126 -3.0252 -0.6634  0.0441
   97MOL   H16636838   7.572   7.211   6.229  0.7562  1.4404 -0.2434
   97MOL   H16736839   7.465   7.260   6.521  0.2072  0.0806 -0.3693
   97MOL   H16836840   7.634   7.283   6.476 -0.6529  2.2061 -3.9659
   97MOL   H16936841   7.770   7.175   6.358 -0.3385 -0.4285  0.2137
   97MOL   H17036842   7.971   7.026   6.294 -0.3789 -0.4879 -1.4631
   97MOL   H17136843   7.954   6.784   6.332  1.2119  1.0508  1.1567
   97MOL   H17236844   7.754   6.689   6.455 -0.2885 -0.8522 -2.2961
   97MOL   C17336845   7.533   6.818   6.544 -0.8250 -0.6254 -0.0480
   97MOL   C17436846   7.430   6.728   6.481 -0.5537 -0.1947 -0.3285
   97MOL   O17536847   7.542   6.679   6.553  0.1531 -0.3756  0.5947
   97MOL   C17636848   7.431   6.690   6.337 -0.2940  0.2511  0.1119
   97MOL   O17736849   7.359   6.578   6.316 -0.1100 -0.3862  0.6703
   97MOL   C17836850   7.238   6.593   6.243  0.5370 -0.3643  1.6346
   97MOL   C17936851   7.148   6.701   6.257 -0.1891  0.3221  0.0599
   97MOL   C18036852   7.035   6.712   6.178  0.1629 -0.1398  0.1668
   97MOL   C18136853   7.005   6.610   6.085 -0.3038 -0.1406  0.1477
   97MOL   C18236854   7.095   6.502   6.074 -0.0977  0.1012  0.6342
   97MOL   C18336855   7.210   6.495   6.149  0.2903  0.4123 -0.2971
   97MOL   H18436856   7.516   6.865   6.640  0.2850 -1.2809  0.4823
   97MOL   H18536857   7.337   6.743   6.536 -0.6914 -0.0926 -0.5898
   97MOL   H18636858   7.533   6.670   6.305 -0.9763 -0.1861 -1.8883
   97MOL   H18736859   7.387   6.777   6.287 -1.5834 -0.6190 -0.3013
   97MOL   H18836860   7.173   6.775   6.332  0.0988  0.8716 -0.5676
   97MOL   H18936861   6.977   6.803   6.179  0.5100  0.0958 -0.6583
   97MOL   H19036862   6.917   6.614   6.022  0.1033 -0.7859 -0.4753
   97MOL   H19136863   7.071   6.429   5.998  1.8665 -0.3778  0.4527
   97MOL   C19236864   7.307   6.382   6.138 -1.0625  0.4827  0.1524
   97MOL   C19336865   7.288   6.240   6.200  0.1700  0.5126 -0.0547
   97MOL   O19436866   7.245   6.269   6.065  0.4460 -0.2572 -0.6172
   97MOL   C19536867   7.175   6.215   6.299  0.1314 -0.5446  0.2015
   97MOL   O19636868   7.098   6.096   6.276 -0.7332 -0.1622  0.5408
   97MOL   C19736869   7.127   5.970   6.332  0.1842 -0.5899  0.3281
   97MOL   C19836870   7.226   5.955   6.432 -0.3180 -0.2307  0.0163
   97MOL   C19936871   7.237   5.828   6.489 -0.2172 -0.0940  0.0489
   97MOL   C20036872   7.165   5.717   6.449  0.1943 -0.4537 -0.4132
   97MOL   C20136873   7.067   5.735   6.351  0.1320 -0.0687  0.3535
   97MOL   C20236874   7.046   5.863   6.297  0.0280  0.5997  0.5055
   97MOL   H20336875   7.404   6.407   6.095 -1.7557 -0.1700 -1.8429
   97MOL   H20436876   7.375   6.175   6.197 -0.7916 -0.9219  2.1595
   97MOL   H20536877   7.101   6.294   6.290  2.2045  1.2835 -1.3761
   97MOL   H20636878   7.212   6.222   6.401  0.5593 -0.9553  0.0747
   97MOL   H20736879   7.294   6.032   6.466  1.7263 -1.5713 -0.9566
   97MOL   H20836880   7.310   5.815   6.568 -2.2163  0.5634  2.0317
   97MOL   H20936881   7.179   5.619   6.493  2.7873 -0.4832 -1.1745
   97MOL   H21036882   6.995   5.658   6.329 -0.2251 -0.2653  2.1190
   97MOL   C21136883   6.930   5.894   6.201 -0.1842 -0.1007  0.0032
   97MOL   C21236884   6.939   5.941   6.056 -0.2335  0.1370 -0.2569
   97MOL   O21336885   6.910   5.806   6.090  0.0786 -0.4279  0.6088
   97MOL   C21436886   7.075   5.972   5.990 -0.0775  0.2525 -1.0248
   97MOL   O21536887   7.051   5.991   5.853  0.3406  0.1556  0.2322
   97MOL   C21636888   7.165   6.011   5.777 -0.1051  0.2266  0.6786
   97MOL   C21736889   7.292   6.027   5.834  0.3980 -0.0602  0.0419
   97MOL   C21836890   7.399   6.058   5.753 -0.0152  0.2002 -0.0209
   97MOL   C21936891   7.385   6.076   5.613  0.5167 -0.7661  0.3283
   97MOL   C22036892   7.258   6.054   5.556 -0.1626 -0.2095 -0.4120
   97MOL   C22136893   7.143   6.031   5.639  0.4237  0.2289 -0.1476
   97MOL   H22236894   6.839   5.919   6.256  0.0596  1.1945 -0.1586
   97MOL   H22336895   6.853   5.988   6.007 -0.0790  0.3950 -0.2839
   97MOL   H22436896   7.149   5.893   6.006  1.7554  2.4551  1.7006
   97MOL   H22536897   7.108   6.071   6.021  1.9578 -0.9341  0.7179
   97MOL   H22636898   7.311   6.012   5.940  0.9703  0.4583  0.0171
   97MOL   H22736899   7.501   6.073   5.783  0.0060 -0.8322  0.4505
   97MOL   H22836900   7.472   6.096   5.552  0.5529  0.5046  0.7681
   97MOL   H22936901   7.249   6.068   5.449 -0.7391 -0.0106 -0.3415
   97MOL   C23036902   7.006   6.025   5.580 -0.4529 -0.2514 -0.4652
   97MOL   C23136903   6.931   6.141   5.519  1.0080  0.3318  0.0438
   97MOL   O23236904   7.015   6.059   5.443  0.4901 -0.2273  0.6393
   97MOL   C23336905   6.970   6.282   5.512  0.4812  0.0088 -0.3638
   97MOL   O23436906   6.856   6.361   5.506 -0.1954 -0.0140  0.3412
   97MOL   C23536907   6.869   6.497   5.516  0.8214 -0.4511  0.3690
   97MOL   C23636908   6.990   6.562   5.479  0.5747 -0.2276  0.1835
   97MOL   C23736909   7.001   6.705   5.498  0.2514 -0.4111  0.2354
   97MOL   C23836910   6.886   6.777   5.546  0.0271  0.1663  0.3070
   97MOL   C23936911   6.774   6.708   5.581 -0.2016  0.0192 -0.0637
   97MOL   C24036912   6.761   6.570   5.566  0.1669 -0.8752  0.2480
   97MOL   H24136913   6.962   5.928   5.602 -0.7327 -0.2845 -1.1734
   97MOL   H24236914   6.826   6.118   5.503  1.7478 -1.5013 -2.2775
   97MOL   H24336915   7.018   6.291   5.414 -4.2851  0.0221 -2.8625
   97MOL   H24436916   7.051   6.296   5.583  0.8287  0.6429 -0.8681
   97MOL   H24536917   7.076   6.511   5.438 -0.3210 -2.0623  0.5548
   97MOL   H24636918   7.089   6.759   5.465  1.1089 -0.2207  2.7183
   97MOL   H24736919   6.897   6.883   5.561 -0.0378  0.4016 -1.2116
   97MOL   H24836920   6.689   6.760   5.623  1.3622  2.4781  0.1077
   97MOL   C24936921   6.635   6.506   5.613 -0.0337  0.3537  0.6288
   97MOL   C25036922   6.632   6.420   5.732 -0.0995 -0.4731  0.5129
   97MOL   O25136923   6.587   6.559   5.741  0.0192 -0.0182  0.6318
   97MOL   C25236924   6.754   6.389   5.827 -0.1383 -0.2035 -0.1500
   97MOL   O25336925   6.729   6.374   5.968  0.3660  0.1328  1.0029
   97MOL   C25436926   6.684   6.263   6.030  0.4963  0.8181 -0.3822
   97MOL   C25536927   6.607   6.161   5.969  0.6551  0.8052  0.4779
   97MOL   C25636928   6.569   6.052   6.042  0.7833 -0.0790 -0.6031
   97MOL   C25736929   6.602   6.037   6.181  0.4109 -0.2092  0.1978
   97MOL   C25836930   6.672   6.139   6.249 -0.2785 -0.2615  0.2463
   97MOL   C25936931   6.711   6.255   6.172  0.3837  0.0176 -0.0077
   97MOL   H26036932   6.559   6.504   5.535  0.7154  2.0505 -0.1535
   97MOL   H26136933   6.551   6.348   5.738  1.1115 -2.0788 -1.4771
   97MOL   H26236934   6.835   6.459   5.808 -1.3411  0.9719 -1.0689
   97MOL   H26336935   6.797   6.294   5.798 -0.5371 -0.8499  1.3447
   97MOL   H26436936   6.573   6.161   5.867 -0.1560  0.0246  0.7382
   97MOL   H26536937   6.523   5.981   5.975 -1.4400 -1.4593  2.2785
   97MOL   H26636938   6.577   5.952   6.243 -0.9622 -0.6215 -0.8996
   97MOL   H26736939   6.688   6.134   6.356 -2.0409 -0.8418  0.5102
   97MOL   C26836940   6.794   6.357   6.243 -0.1780 -0.6617  0.6446
   97MOL   C26936941   6.741   6.503   6.265  0.0509 -0.0984 -0.3168
   97MOL   O27036942   6.715   6.395   6.352  0.4559  0.1123  0.4009
   97MOL   C27136943   6.619   6.569   6.195  0.7559 -0.1831  0.5515
   97MOL   O27236944   6.568   6.668   6.285 -0.3459  0.0994 -0.0475
   97MOL   C27336945   6.450   6.731   6.245  0.4323 -0.3828  0.7223
   97MOL   C27436946   6.388   6.710   6.120 -0.0236  0.1654  0.0258
   97MOL   C27536947   6.257   6.770   6.096 -0.5312 -0.1897  0.6000
   97MOL   C27636948   6.207   6.862   6.187 -0.0715 -0.2152  0.1849
   97MOL   C27736949   6.277   6.883   6.307 -0.3818 -0.0020 -0.0515
   97MOL   C27836950   6.391   6.820   6.340 -0.3923  1.3860 -0.5729
   97MOL   H27936951   6.895   6.327   6.271 -0.5542 -0.4869  2.2454
   97MOL   H28036952   6.813   6.576   6.302  0.5891 -1.6518  1.7816
   97MOL   H28136953   6.548   6.492   6.164  1.1818 -0.5972  0.5975
   97MOL   H28236954   6.667   6.613   6.107  0.3625 -2.3736 -0.8115
   97MOL   H28336955   6.430   6.644   6.046  0.1221  0.2372  0.0445
   97MOL   H28436956   6.207   6.762   6.001 -0.0449 -1.6277  0.4521
   97MOL   H28536957   6.113   6.914   6.172 -0.0742 -0.6327 -1.2981
   97MOL   H28636958   6.235   6.952   6.379  1.5193  0.2708  0.8230
   97MOL   C28736959   6.461   6.838   6.470 -0.3293 -0.2812 -0.7106
   97MOL   C28836960   6.568   6.945   6.502 -0.4525  0.4766 -0.0611
   97MOL   O28936961   6.431   6.964   6.526 -0.6132 -1.1644 -0.5093
   97MOL   C29036962   6.630   7.002   6.384 -0.0163  0.2893  0.0474
   97MOL   O29136963   6.706   7.122   6.423 -0.0606  0.5050  1.0492
   97MOL   C29236964   6.845   7.110   6.443 -0.0076 -0.1642  0.2281
   97MOL   C29336965   6.903   6.981   6.472  0.6661  0.2499  0.0018
   97MOL   C29436966   7.038   6.974   6.510  0.2150 -0.3422  0.3195
   97MOL   C29536967   7.115   7.096   6.505 -0.3669  0.0455 -0.0283
   97MOL   C29636968   7.055   7.218   6.471  0.9254  0.2361 -0.1819
   97MOL   C29736969   6.917   7.224   6.442  0.6853  0.0123 -0.1592
   97MOL   H29836970   6.452   6.754   6.538  0.5026 -0.0125 -0.2597
   97MOL   H29936971   6.632   6.934   6.590  0.2398 -2.8830 -0.9364
   97MOL   H30036972   6.553   7.028   6.311  1.1802  1.9528 -0.6414
   97MOL   H30136973   6.697   6.929   6.339 -0.1270 -0.9160  1.7898
   97MOL   H30236974   6.839   6.894   6.472  0.5064  0.3627 -1.3443
   97MOL   H30336975   7.091   6.883   6.535  2.6748  0.8547 -0.3337
   97MOL   H30436976   7.218   7.101   6.536  0.2489 -6.3824 -0.4633
   97MOL   H30536977   7.112   7.308   6.486 -0.2754  1.2098 -1.3210
   97MOL   C30636978   6.853   7.357   6.423 -0.2392 -0.1012 -0.3620
   97MOL   C30736979   6.756   7.423   6.519 -0.3271 -0.1304 -0.0012
   97MOL   O30836980   6.894   7.448   6.525 -0.0047  0.1231 -0.1179
   97MOL   C30936981   6.688   7.348   6.642 -0.6587 -0.3227  0.7149
   97MOL   O31036982   6.626   7.439   6.728  0.1871  0.4093 -0.0443
   97MOL   C31136983   6.539   7.373   6.814  0.1286  0.8986 -0.0116
   97MOL   C31236984   6.424   7.304   6.761 -0.2389  0.2754 -0.4587
   97MOL   C31336985   6.334   7.238   6.850  0.4898  0.6210  0.0021
   97MOL   C31436986   6.362   7.231   6.993  0.2330 -0.0905  0.8191
   97MOL   C31536987   6.469   7.303   7.038 -0.0987 -0.2724  0.2945
   97MOL   C31636988   6.557   7.379   6.954 -0.5383 -0.3662 -0.1560
   97MOL   H31736989   6.870   7.395   6.322  0.4133  0.1163 -0.1718
   97MOL   H31836990   6.703   7.516   6.502  0.2690  0.4278  1.1548
   97MOL   H31936991   6.766   7.291   6.692 -1.3952 -1.9125  0.0717
   97MOL   H32036992   6.617   7.271   6.612  0.5180 -0.6492 -1.2966
   97MOL   H32136993   6.417   7.300   6.653 -1.6280 -1.9010 -0.3136
   97MOL   H32236994   6.253   7.183   6.805  0.2598  0.2745  0.8519
   97MOL   H32336995   6.305   7.176   7.066  0.7554 -1.0883  0.4874
   97MOL   H32436996   6.493   7.301   7.144 -3.9251  1.6257  1.2566
   97MOL   C32536997   6.674   7.461   7.012 -0.3076  0.7147 -0.0840
   97MOL   C32636998   6.648   7.611   7.013  0.0271 -0.7090  0.3482
   97MOL   O32736999   6.641   7.527   7.135 -0.4651 -0.5248  0.4707
   97MOL   C32837000   6.515   7.674   6.980 -0.2759  0.5784 -0.8717
   97MOL   O32937001   6.530   7.764   6.877  0.0837  0.0136  0.4064
   97MOL   C33037002   6.410   7.823   6.839  0.2364  0.1796 -1.1959
   97MOL   C33137003   6.301   7.841   6.928  0.0823 -0.5654 -0.4236
   97MOL   C33237004   6.185   7.902   6.876 -0.1004 -0.0037  0.1252
   97MOL   C33337005   6.175   7.942   6.745  0.5162 -0.3780  0.1396
   97MOL   C33437006   6.287   7.938   6.667 -0.4027  0.0415  0.9589
   97MOL   C33537007   6.405   7.875   6.705 -0.4038 -0.0003 -0.1171
   97MOL   H33637008   6.773   7.415   7.013  0.1302  1.5827 -1.7396
   97MOL   H33737009   6.729   7.684   7.016 -0.9705  0.5069 -0.9518
   97MOL   H33837010   6.469   7.722   7.066  0.1843 -0.2706 -0.1388
   97MOL   H33937011   6.446   7.596   6.947 -0.2741  0.1504  0.1369
   97MOL   H34037012   6.298   7.824   7.034 -0.9793  3.1218  0.2370
   97MOL   H34137013   6.103   7.909   6.946 -0.6344  0.4216 -0.5221
   97MOL   H34237014   6.081   7.983   6.713  0.6799 -0.6565 -0.6933
   97MOL   H34337015   6.286   7.983   6.569  0.1742 -0.8540  0.5352
   97MOL   C34437016   6.516   7.866   6.605  0.1153  0.1304 -0.1273
   97MOL   C34537017   6.519   7.753   6.507 -0.0523  0.1591 -0.1090
   97MOL   O34637018   6.472   7.885   6.469 -0.5036 -0.0428  0.0497
   97MOL   C34737019   6.404   7.649   6.504 -0.5854  0.4059  0.0558
   97MOL   O34837020   6.400   7.595   6.374 -0.3168  0.1794 -0.3648
   97MOL   C34937021   6.310   7.490   6.349  0.0234 -0.5273 -1.1686
   97MOL   C35037022   6.223   7.441   6.448  0.5977 -0.2593 -0.2947
   97MOL   C35137023   6.139   7.326   6.429  0.4270  0.3623  0.4020
   97MOL   C35237024   6.139   7.268   6.304  0.0770 -0.3345 -0.3144
   97MOL   C35337025   6.217   7.322   6.196 -0.2173 -0.8748 -0.1790
   97MOL   C35437026   6.307   7.431   6.219  0.9619  0.3320 -0.2736
   97MOL   H35537027   6.613   7.901   6.640 -0.3378  2.2581 -0.9448
   97MOL   H35637028   6.610   7.716   6.459  0.6985  0.6213  0.9509
   97MOL   H35737029   6.307   7.693   6.530 -0.8282  1.4590 -2.5190
   97MOL   H35837030   6.421   7.565   6.572 -0.5439  0.7169  0.4338
   97MOL   H35937031   6.220   7.491   6.544 -0.1725  0.5642 -0.7442
   97MOL   H36037032   6.078   7.278   6.504  2.5942 -2.0097  0.7595
   97MOL   H36137033   6.085   7.178   6.279 -0.1631 -0.6714  1.3467
   97MOL   H36237034   6.212   7.277   6.098  1.6485 -0.3382 -0.5476
   97MOL   C36337035   6.398   7.470   6.112  0.3015 -0.1618  0.1511
   97MOL   C36437036   6.539   7.413   6.103  0.2876 -0.2842  0.4650
   97MOL   O36537037   6.432   7.362   6.023 -0.1566  0.4164 -0.3602
   97MOL   C36637038   6.597   7.315   6.203  0.3249  0.2814 -0.2826
   97MOL   O36737039   6.708   7.246   6.144  0.2607 -0.4149  0.1550
   97MOL   C36837040   6.688   7.131   6.073 -0.5180 -0.0597  0.0068
   97MOL   C36937041   6.571   7.081   6.021 -0.4256  0.7002  0.2250
   97MOL   C37037042   6.573   6.960   5.942  0.3595  0.5125 -0.2787
   97MOL   C37137043   6.689   6.895   5.915 -0.6464 -0.1515 -0.5507
   97MOL   C37237044   6.811   6.953   5.952  0.1977 -0.1261  0.7099
   97MOL   C37337045   6.807   7.072   6.026  0.4882  0.5889 -0.2347
   97MOL   H37437046   6.368   7.553   6.048 -0.9900 -1.5040 -1.0226
   97MOL   H37537047   6.611   7.480   6.054  0.3337 -1.2551 -0.8300
   97MOL   H37637048   6.519   7.244   6.229  0.3328 -0.1770 -1.4898
   97MOL   H37737049   6.620   7.376   6.290  0.4508  1.4206 -1.0914
   97MOL   H37837050   6.483   7.129   6.059 -0.3670 -0.1124  1.4354
   97MOL   H37937051   6.478   6.918   5.913  0.5368  0.3347 -0.5995
   97MOL   H38037052   6.692   6.801   5.862 -0.3848  0.4169 -1.5575
   97MOL   H38137053   6.899   6.910   5.905 -0.6202  0.3964 -1.3724
   97MOL   H38237054   6.901   7.120   6.049  0.8867  0.3433 -1.3502
   98MOL     C137055   2.191   6.149   3.361 -0.1723 -0.2124  0.2145
   98MOL     C237056   2.140   6.191   3.498  0.7319  0.5200 -0.4656
   98MOL     O337057   2.174   6.291   3.401  0.1581  0.0854 -0.1107
   98MOL     C437058   2.229   6.211   3.622 -0.0770  0.5725 -0.0484
   98MOL     O537059   2.148   6.246   3.732  0.0379  0.1734  0.1897
   98MOL     C637060   2.108   6.139   3.814 -0.0416 -0.3017  0.8406
   98MOL     C737061   2.081   6.012   3.763 -0.1491  0.0882 -0.1478
   98MOL     C837062   2.014   5.917   3.835  0.9247  0.3442 -0.2196
   98MOL     C937063   1.991   5.939   3.975 -0.2967  0.1946 -0.1718
   98MOL    C1037064   2.031   6.063   4.034 -0.6470 -0.0524  0.1919
   98MOL    C1137065   2.084   6.166   3.951 -0.0399  0.7028  0.0914
   98MOL    H1237066   2.122   6.104   3.290 -0.1082 -0.4896  0.3300
   98MOL    H1337067   2.035   6.180   3.528  1.0611 -1.1694  0.1094
   98MOL    H1437068   2.293   6.299   3.613  0.1701  0.3381 -0.6518
   98MOL    H1537069   2.281   6.116   3.632 -1.8005 -0.3299  0.5922
   98MOL    H1637070   2.081   5.994   3.657 -1.4744 -1.3254  0.0777
   98MOL    H1737071   1.992   5.831   3.773 -0.5055  1.9554 -2.0468
   98MOL    H1837072   1.939   5.855   4.020 -0.2399 -0.4123 -1.2219
   98MOL    H1937073   2.013   6.083   4.138  1.1018  1.8791  0.1741
   98MOL    H2037074   2.293   6.126   3.332 -0.5852 -3.7753  1.3503
   98MOL    C2137075   2.114   6.305   3.998  0.5891 -0.9410 -0.2650
   98MOL    C2237076   2.018   6.420   3.970 -0.7938 -0.3143 -0.4762
   98MOL    O2337077   2.029   6.355   4.103  0.1310 -0.1937 -0.1017
   98MOL    C2437078   1.896   6.404   3.889  0.3775  0.0596 -0.0986
   98MOL    O2537079   1.805   6.513   3.924 -0.1190  0.4571  0.1670
   98MOL    C2637080   1.824   6.643   3.887 -0.0835 -0.0588  0.2605
   98MOL    C2737081   1.931   6.679   3.805 -0.5976  0.2242  0.7245
   98MOL    C2837082   1.941   6.803   3.744 -0.3749 -0.7296 -0.2409
   98MOL    C2937083   1.842   6.905   3.776 -0.1807  0.8978  0.5798
   98MOL    C3037084   1.745   6.873   3.869  0.6633  0.0588 -0.6569
   98MOL    C3137085   1.731   6.740   3.920  0.2469 -0.2207 -0.3838
   98MOL    H3237086   2.219   6.320   4.023  0.6732 -1.4231 -0.3201
   98MOL    H3337087   2.056   6.521   3.980 -1.1167  0.0722 -2.8246
   98MOL    H3437088   1.850   6.314   3.932  1.9345 -0.6186  0.1743
   98MOL    H3537089   1.911   6.408   3.781 -0.6988  2.8029 -0.1727
   98MOL    H3637090   2.011   6.610   3.784 -0.1212  0.9440  0.1487
   98MOL    H3737091   2.028   6.830   3.686 -0.7616 -2.4771 -1.6583
   98MOL    H3837092   1.867   7.003   3.739  0.2265 -0.6624 -3.5856
   98MOL    H3937093   1.664   6.940   3.895 -0.3612 -1.4162 -0.0030
   98MOL    C4037094   1.601   6.698   3.994 -0.7779  0.4634  0.6166
   98MOL    C4137095   1.595   6.671   4.143  0.1183 -0.3830  0.3088
   98MOL    O4237096   1.559   6.802   4.084 -0.4424 -0.4960 -0.0092
   98MOL    C4337097   1.721   6.672   4.228  0.0471  0.3245 -0.3234
   98MOL    O4437098   1.696   6.623   4.357  0.1086 -1.2271 -0.3672
   98MOL    C4537099   1.805   6.616   4.439 -0.6635 -0.5604  0.0100
   98MOL    C4637100   1.939   6.644   4.396  0.2413 -0.2879 -0.0788
   98MOL    C4737101   2.047   6.638   4.482 -0.6274  0.9655 -0.9259
   98MOL    C4837102   2.018   6.600   4.619 -0.4827 -0.3313  0.1687
   98MOL    C4937103   1.888   6.566   4.665  0.3456  0.6498  0.4903
   98MOL    C5037104   1.782   6.577   4.571  0.1673  0.3562 -0.1970
   98MOL    H5137105   1.520   6.662   3.931 -0.4459  1.6249 -0.5015
   98MOL    H5237106   1.520   6.607   4.187 -0.6590  1.1957  1.3197
   98MOL    H5337107   1.780   6.763   4.217  4.1323 -2.0082  1.3094
   98MOL    H5437108   1.782   6.595   4.181  0.0477  1.0961 -1.6269
   98MOL    H5537109   1.967   6.665   4.294  3.2553 -1.1843  0.4973
   98MOL    H5637110   2.144   6.676   4.454 -0.0336  0.6102  0.5856
   98MOL    H5737111   2.099   6.613   4.689 -0.8673  2.4308  0.1429
   98MOL    H5837112   1.876   6.533   4.767 -1.8085  1.0066  0.3866
   98MOL    C5937113   1.637   6.561   4.622  0.1753  0.6540 -0.1336
   98MOL    C6037114   1.564   6.428   4.630  0.0546  0.2557  0.1821
   98MOL    O6137115   1.626   6.485   4.743 -0.2602 -0.4596  0.7704
   98MOL    C6237116   1.607   6.288   4.593  0.0006 -0.3670 -0.9012
   98MOL    O6337117   1.737   6.277   4.542 -0.4241 -0.0222 -0.4388
   98MOL    C6437118   1.771   6.156   4.496  0.1659 -0.3298 -0.1517
   98MOL    C6537119   1.696   6.044   4.527 -0.1543  0.4494 -0.6167
   98MOL    C6637120   1.747   5.916   4.488 -1.0832  0.4825 -0.1061
   98MOL    C6737121   1.867   5.899   4.422 -0.0507 -0.3120  0.5903
   98MOL    C6837122   1.943   6.009   4.385 -0.0607 -0.5031 -0.1567
   98MOL    C6937123   1.892   6.138   4.424 -0.6085  0.0834 -0.5656
   98MOL    H7037124   1.574   6.649   4.612  0.0052  0.4879 -0.5413
   98MOL    H7137125   1.456   6.432   4.645  0.2135 -0.2036  1.4456
   98MOL    H7237126   1.533   6.242   4.527  0.4461 -2.9670  0.3171
   98MOL    H7337127   1.597   6.226   4.682 -3.6745 -0.5405 -1.3397
   98MOL    H7437128   1.606   6.043   4.586 -1.3367 -1.2438 -2.3934
   98MOL    H7537129   1.695   5.824   4.510  0.7152 -0.8154 -1.1084
   98MOL    H7637130   1.906   5.804   4.389  0.6103 -0.8098  2.7392
   98MOL    H7737131   2.032   6.001   4.324 -0.2986  1.4267 -0.8083
   98MOL    C7837132   1.976   6.256   4.400 -0.1941 -0.3305 -0.4503
   98MOL    C7937133   2.081   6.296   4.502  0.6863  0.1370  0.6100
   98MOL    O8037134   2.118   6.219   4.383  0.0135  0.0976 -0.2226
   98MOL    C8137135   2.088   6.220   4.638 -0.4120 -0.8265  0.1039
   98MOL    O8237136   2.221   6.189   4.663  0.0932 -0.1215 -0.1149
   98MOL    C8337137   2.250   6.098   4.761  0.6204  0.2274 -0.4200
   98MOL    C8437138   2.198   6.126   4.889 -0.0013  0.8675  0.1469
   98MOL    C8537139   2.236   6.046   5.000 -0.2003 -0.8242 -0.1039
   98MOL    C8637140   2.313   5.924   4.977  0.4857  0.1961  0.0778
   98MOL    C8737141   2.357   5.900   4.846 -0.6169  0.3732  0.0481
   98MOL    C8837142   2.327   5.983   4.739 -0.2323 -0.0675  0.4236
   98MOL    H8937143   1.930   6.337   4.344  0.3756  1.2440  1.2941
   98MOL    H9037144   2.133   6.391   4.495 -0.2823  0.6101 -0.3508
   98MOL    H9137145   2.023   6.133   4.637 -0.4770 -0.7871  0.8312
   98MOL    H9237146   2.044   6.290   4.708 -0.8709  3.2394 -4.0028
   98MOL    H9337147   2.133   6.210   4.903 -1.3763  0.2396 -2.2077
   98MOL    H9437148   2.195   6.064   5.098  3.2423 -1.4768  1.5236
   98MOL    H9537149   2.351   5.856   5.052 -1.7803 -0.9373  0.2368
   98MOL    H9637150   2.407   5.807   4.823 -2.2168 -0.4559 -0.1145
   98MOL    C9737151   2.370   5.954   4.599 -0.2939 -0.6724 -0.2154
   98MOL    C9837152   2.487   6.020   4.532 -0.1607 -0.0058  0.6084
   98MOL    O9937153   2.493   5.882   4.581 -0.8190  0.9318  0.0648
   98MOL   C10037154   2.562   6.140   4.591 -0.6519  0.8564 -0.1630
   98MOL   O10137155   2.690   6.161   4.518 -0.6241 -0.1583 -0.8766
   98MOL   C10237156   2.808   6.097   4.560 -0.3410 -0.0720 -0.0988
   98MOL   C10337157   2.810   5.991   4.651 -0.2587  0.2776  0.2993
   98MOL   C10437158   2.936   5.927   4.675 -0.2361 -0.2688 -0.0081
   98MOL   C10537159   3.056   5.962   4.605 -0.5762 -0.2908 -0.4029
   98MOL   C10637160   3.052   6.073   4.520  0.9172 -0.1423  0.9500
   98MOL   C10737161   2.927   6.139   4.497 -0.7460  0.5487  0.4079
   98MOL   H10837162   2.285   5.920   4.540 -1.4152  1.4709  0.1156
   98MOL   H10937163   2.479   6.025   4.424  2.1815  0.5860  0.4224
   98MOL   H11037164   2.569   6.115   4.697 -0.1461 -1.1157 -0.6343
   98MOL   H11137165   2.496   6.225   4.573 -1.9837 -0.1452 -0.1103
   98MOL   H11237166   2.718   5.965   4.700  1.0385 -1.4800  1.8804
   98MOL   H11337167   2.938   5.846   4.748 -1.3927  0.5545  0.9497
   98MOL   H11437168   3.154   5.918   4.618  0.1452  1.8262  1.6559
   98MOL   H11537169   3.142   6.100   4.466  0.8585 -1.9250 -0.0803
   98MOL   C11637170   2.924   6.257   4.408  1.0133 -0.1837 -0.3099
   98MOL   C11737171   2.940   6.392   4.478 -0.1262 -0.4302  0.4741
   98MOL   O11837172   3.045   6.328   4.404 -0.0417 -0.3190  0.0833
   98MOL   C11937173   2.966   6.401   4.628 -0.1538  0.6626 -0.1013
   98MOL   O12037174   2.991   6.532   4.667 -0.2646 -0.0165 -0.2105
   98MOL   C12137175   3.111   6.595   4.629  1.3265 -0.2848 -0.5571
   98MOL   C12237176   3.228   6.533   4.571 -0.2050  0.3136 -0.4470
   98MOL   C12337177   3.338   6.617   4.531  0.0231  0.6411 -0.8249
   98MOL   C12437178   3.334   6.756   4.557  0.0828 -0.0729 -0.0584
   98MOL   C12537179   3.225   6.816   4.618 -0.5108  0.1497 -0.3461
   98MOL   C12637180   3.112   6.736   4.642  0.4762  0.3623 -0.5955
   98MOL   H12737181   2.876   6.246   4.311  0.6955 -2.6784  0.1070
   98MOL   H12837182   2.901   6.481   4.429 -1.3055 -2.4272 -2.3436
   98MOL   H12937183   3.039   6.327   4.661  0.1467  1.1957  0.4225
   98MOL   H13037184   2.875   6.376   4.683  0.4548 -1.7952 -0.1379
   98MOL   H13137185   3.230   6.429   4.543 -0.5683  0.4723 -1.0795
   98MOL   H13237186   3.418   6.573   4.473  0.3622  1.0468 -0.6653
   98MOL   H13337187   3.415   6.816   4.517  0.5596 -1.1434 -0.7080
   98MOL   H13437188   3.223   6.924   4.620 -0.1475  0.1456  1.0559
   98MOL   C13537189   2.986   6.806   4.685 -0.5467  0.1108 -0.2406
   98MOL   C13637190   2.966   6.846   4.828 -0.6052  0.2548 -0.0657
   98MOL   O13737191   3.013   6.942   4.730 -0.2010 -0.3902 -0.3728
   98MOL   C13837192   3.067   6.815   4.934  0.3056  0.0318  0.0664
   98MOL   O13937193   3.025   6.874   5.055 -0.6294  0.5721 -0.0394
   98MOL   C14037194   3.029   7.007   5.066 -0.2509 -0.3993 -0.8955
   98MOL   C14137195   3.098   7.097   4.978 -0.4741 -0.2550  0.1753
   98MOL   C14237196   3.096   7.236   4.994 -0.7905  0.5133 -0.1956
   98MOL   C14337197   3.032   7.284   5.111 -0.2428 -1.0472 -0.4338
   98MOL   C14437198   2.959   7.200   5.202  0.2983  0.2185 -0.0748
   98MOL   C14537199   2.955   7.064   5.174 -0.1036 -0.5461  0.0223
   98MOL   H14637200   2.905   6.795   4.614 -0.8447 -1.1350  0.2895
   98MOL   H14737201   2.871   6.884   4.867  0.8293  2.0697  1.7351
   98MOL   H14837202   3.166   6.835   4.893 -0.4036 -0.6014 -2.0237
   98MOL   H14937203   3.063   6.707   4.946 -0.5719  0.0214 -0.3032
   98MOL   H15037204   3.158   7.058   4.898  0.5730 -0.6322  1.1316
   98MOL   H15137205   3.148   7.304   4.928 -1.2712  0.4311 -0.6544
   98MOL   H15237206   3.034   7.390   5.132  0.0377 -1.1675  0.1751
   98MOL   H15337207   2.923   7.243   5.295  0.6671 -1.3100  0.8066
   98MOL   C15437208   2.870   6.982   5.257 -0.8343  0.0028 -0.7620
   98MOL   C15537209   2.908   6.928   5.395 -0.1466  0.1056 -0.4453
   98MOL   O15637210   2.820   7.041   5.377  0.1614  0.4143 -0.3535
   98MOL   C15737211   3.048   6.959   5.468  0.5857 -0.8900 -0.2936
   98MOL   O15837212   3.032   6.957   5.610  0.1732 -0.1493  0.2250
   98MOL   C15937213   3.040   6.840   5.678 -0.2696  0.2033  0.2107
   98MOL   C16037214   3.073   6.710   5.630  0.2492 -0.0326  0.0628
   98MOL   C16137215   3.091   6.600   5.713  0.2023 -0.3317 -0.0166
   98MOL   C16237216   3.066   6.616   5.851  0.1640  0.3534  0.3496
   98MOL   C16337217   3.034   6.743   5.908 -0.4324  0.8050  0.5741
   98MOL   C16437218   3.033   6.853   5.817  0.6945  0.0522 -0.7152
   98MOL   H16537219   2.785   6.941   5.202 -2.0992  2.3685 -0.6461
   98MOL   H16637220   2.856   6.843   5.438 -1.6993 -0.1453 -2.6996
   98MOL   H16737221   3.085   7.057   5.437  2.3784 -1.0231  1.2823
   98MOL   H16837222   3.121   6.886   5.433  1.8580  0.9250 -1.5120
   98MOL   H16937223   3.092   6.685   5.526 -0.2703 -1.6103  0.3357
   98MOL   H17037224   3.115   6.502   5.673 -0.1106 -0.2633 -0.3671
   98MOL   H17137225   3.061   6.531   5.918  2.1204  0.4125  0.5884
   98MOL   H17237226   3.031   6.761   6.014 -1.0095 -0.4545  0.7854
   98MOL   C17337227   3.026   6.991   5.880  0.4113  0.1889  0.4963
   98MOL   C17437228   2.915   7.089   5.882  0.0460  0.4073  0.4218
   98MOL   O17537229   2.932   6.988   5.985  0.0568 -0.2193  0.2543
   98MOL   C17637230   2.782   7.070   5.802  0.5106  0.3307 -0.2078
   98MOL   O17737231   2.675   7.157   5.849 -0.3984  0.1927 -0.7688
   98MOL   C17837232   2.687   7.291   5.861  0.8496  0.2779 -0.2144
   98MOL   C17937233   2.774   7.370   5.781  0.1942  0.0142  0.0704
   98MOL   C18037234   2.778   7.510   5.806  0.1831  0.0339  0.2760
   98MOL   C18137235   2.701   7.570   5.907  0.1438  0.9086 -0.0011
   98MOL   C18237236   2.608   7.493   5.979  0.2901  0.0278  0.0672
   98MOL   C18337237   2.603   7.355   5.955 -0.2214  0.3143 -0.2347
   98MOL   H18437238   3.119   7.039   5.909 -0.7128  4.3553 -2.3207
   98MOL   H18537239   2.913   7.189   5.925 -1.1200  0.9185 -0.7872
   98MOL   H18637240   2.742   6.970   5.813  1.3339 -0.0291 -0.4623
   98MOL   H18737241   2.810   7.083   5.697  3.5574 -1.2363  0.3556
   98MOL   H18837242   2.830   7.322   5.703 -0.8649 -2.2215  0.6424
   98MOL   H18937243   2.841   7.571   5.743 -0.7476 -0.0548 -0.7565
   98MOL   H19037244   2.702   7.675   5.929 -1.6897  1.3107 -1.6147
   98MOL   H19137245   2.546   7.531   6.060 -1.2599 -1.2461 -0.4928
   98MOL   C19237246   2.516   7.263   6.032 -0.3413  0.2453  0.2196
   98MOL   C19337247   2.557   7.172   6.144  0.0400 -0.4438 -0.4205
   98MOL   O19437248   2.510   7.305   6.175  0.6896  0.2640  0.0756
   98MOL   C19537249   2.706   7.145   6.179  0.1117 -0.5400 -0.4524
   98MOL   O19637250   2.798   7.258   6.151 -0.1315  0.2160  0.0017
   98MOL   C19737251   2.930   7.252   6.191 -0.1846 -0.0894  0.6333
   98MOL   C19837252   2.993   7.135   6.230 -1.1135 -0.7042 -0.1355
   98MOL   C19937253   3.132   7.135   6.266 -0.2509  0.2728 -0.3460
   98MOL   C20037254   3.206   7.251   6.279  1.2181 -0.3073  0.2984
   98MOL   C20137255   3.134   7.372   6.238 -0.0581 -0.1284 -0.3754
   98MOL   C20237256   2.997   7.370   6.197  0.0955  0.9350  0.1028
   98MOL   H20337257   2.424   7.242   5.979 -0.3764  1.7271 -0.3483
   98MOL   H20437258   2.487   7.098   6.183  0.4923 -0.5357  0.2198
   98MOL   H20537259   2.745   7.062   6.120 -2.8154 -2.2711 -0.0468
   98MOL   H20637260   2.709   7.112   6.283 -0.6601  0.8352  0.0174
   98MOL   H20737261   2.946   7.038   6.235  0.2501 -1.3363  0.8942
   98MOL   H20837262   3.188   7.046   6.292 -1.1442 -0.2121 -0.0503
   98MOL   H20937263   3.310   7.255   6.304  1.4474 -0.7998 -0.5403
   98MOL   H21037264   3.190   7.462   6.220  0.3639 -0.6986 -2.0516
   98MOL   C21137265   2.916   7.498   6.177 -0.1291 -0.5109 -0.0313
   98MOL   C21237266   2.830   7.556   6.288 -1.5531  0.6815  1.0656
   98MOL   O21337267   2.957   7.612   6.262  0.3071 -0.2295  0.0228
   98MOL   C21437268   2.820   7.481   6.426  0.3410 -0.1442 -0.2222
   98MOL   O21537269   2.769   7.576   6.526  0.2323  0.2534  0.2827
   98MOL   C21637270   2.854   7.663   6.594 -0.3616 -0.1182  0.0265
   98MOL   C21737271   2.991   7.649   6.596 -0.1581 -0.0873 -0.0770
   98MOL   C21837272   3.074   7.717   6.687 -0.6314 -0.9081  0.8597
   98MOL   C21937273   3.016   7.814   6.770 -0.3495 -0.1686 -0.0685
   98MOL   C22037274   2.879   7.829   6.767 -0.9656  0.0897 -0.6396
   98MOL   C22137275   2.796   7.762   6.675  0.2573  0.4325  0.9069
   98MOL   H22237276   2.885   7.527   6.077  0.2143 -0.3857 -0.1014
   98MOL   H22337277   2.748   7.616   6.248  0.5437  1.7864 -1.7595
   98MOL   H22437278   2.915   7.436   6.452  0.0196 -0.5294  0.3143
   98MOL   H22537279   2.755   7.396   6.404  1.0299 -0.4834 -0.9361
   98MOL   H22637280   3.051   7.587   6.531 -0.9575 -2.4787  1.4004
   98MOL   H22737281   3.179   7.694   6.685 -0.6072 -0.8061  0.9758
   98MOL   H22837282   3.071   7.885   6.830  0.3456 -1.8534  1.3219
   98MOL   H22937283   2.842   7.907   6.832  0.9250 -1.4637  2.3801
   98MOL   C23037284   2.650   7.786   6.663  0.1449 -0.0509 -0.0336
   98MOL   C23137285   2.556   7.733   6.775 -0.8504  0.4447  0.0720
   98MOL   O23237286   2.593   7.871   6.763 -0.0469  0.4607  0.2636
   98MOL   C23337287   2.612   7.659   6.896 -0.2918 -0.3320  0.6858
   98MOL   O23437288   2.512   7.652   6.994 -0.2489 -0.1799 -0.3029
   98MOL   C23537289   2.417   7.554   6.985 -0.3158 -0.1886 -0.7848
   98MOL   C23637290   2.430   7.442   6.897  0.6326 -0.0760  0.6470
   98MOL   C23737291   2.325   7.345   6.888  0.0181 -0.7044 -0.5764
   98MOL   C23837292   2.208   7.362   6.962  0.0930  0.4214  0.4130
   98MOL   C23937293   2.193   7.466   7.052 -0.7069 -0.7138  0.0684
   98MOL   C24037294   2.298   7.569   7.065  0.7604  0.3595  0.0597
   98MOL   H24137295   2.616   7.795   6.560  0.1683 -0.9178 -0.1189
   98MOL   H24237296   2.451   7.730   6.744 -0.7188  2.5228 -0.6555
   98MOL   H24337297   2.694   7.710   6.946  0.5542  0.0989 -1.1034
   98MOL   H24437298   2.653   7.566   6.858 -0.7466 -0.7688  1.2632
   98MOL   H24537299   2.512   7.426   6.828 -0.7364 -1.3699 -0.7068
   98MOL   H24637300   2.335   7.265   6.816  1.0473  0.8780 -2.2464
   98MOL   H24737301   2.131   7.288   6.950  1.2895 -0.6699 -0.6676
   98MOL   H24837302   2.099   7.479   7.103  0.0040 -2.4119  1.8943
   98MOL   C24937303   2.294   7.677   7.169 -0.4012  0.6421  0.3589
   98MOL   C25037304   2.230   7.808   7.156  0.2971 -0.3251 -0.3345
   98MOL   O25137305   2.163   7.695   7.223  0.7845  0.0566  0.1696
   98MOL   C25237306   2.172   7.858   7.025 -0.2309 -0.2507  0.3013
   98MOL   O25337307   2.090   7.969   7.043 -0.3464  0.6569  0.8049
   98MOL   C25437308   1.990   7.974   6.950 -0.1171 -0.0367 -0.1568
   98MOL   C25537309   2.007   8.038   6.824  0.3146  0.2445  0.6182
   98MOL   C25637310   1.897   8.069   6.740 -0.1409 -0.4033  0.1902
   98MOL   C25737311   1.766   8.033   6.778 -0.9699  0.1166 -0.7104
   98MOL   C25837312   1.755   7.963   6.899 -0.1872 -0.4716 -0.7454
   98MOL   C25937313   1.861   7.933   6.988  0.4092  0.2074  0.2539
   98MOL   H26037314   2.370   7.661   7.246 -0.6322 -0.0802  0.4475
   98MOL   H26137315   2.244   7.890   7.226  0.2226  0.2421 -0.9754
   98MOL   H26237316   2.116   7.778   6.976 -0.5567  0.0626  0.1655
   98MOL   H26337317   2.254   7.887   6.959 -1.7928  1.3247 -1.0112
   98MOL   H26437318   2.102   8.080   6.795  1.1642 -1.4012  0.9740
   98MOL   H26537319   1.911   8.129   6.651 -1.6758 -1.6420 -0.9176
   98MOL   H26637320   1.683   8.058   6.713 -1.2428 -2.0936 -1.2659
   98MOL   H26737321   1.659   7.933   6.939 -0.1205  1.0259  0.5984
   98MOL   C26837322   1.840   7.872   7.122 -0.7162  0.1310 -0.3271
   98MOL   C26937323   1.743   7.929   7.228 -0.7719 -0.6287 -0.1010
   98MOL   O27037324   1.705   7.819   7.145  0.4139  0.0179  0.0218
   98MOL   C27137325   1.652   8.049   7.206 -0.6114 -0.5915  0.6582
   98MOL   O27237326   1.562   8.068   7.312  0.5803 -0.0979  0.0185
   98MOL   C27337327   1.455   7.989   7.324  0.2683 -0.0632  0.7513
   98MOL   C27437328   1.397   7.917   7.215  0.8939  0.7549  0.1471
   98MOL   C27537329   1.292   7.825   7.250  0.1255  0.6472  0.4691
   98MOL   C27637330   1.249   7.799   7.384  0.1852 -0.5979  0.6826
   98MOL   C27737331   1.322   7.862   7.484  0.4320  0.3511  0.1425
   98MOL   C27837332   1.418   7.962   7.456 -0.3581 -0.6033 -0.1709
   98MOL   H27937333   1.922   7.801   7.133  0.4223  1.5377  0.3720
   98MOL   H28037334   1.767   7.898   7.329  2.2282  0.1110 -0.5218
   98MOL   H28137335   1.598   8.035   7.112  2.3698 -3.9211 -0.6641
   98MOL   H28237336   1.713   8.137   7.186 -1.4339  0.0322  0.8795
   98MOL   H28337337   1.423   7.941   7.113  0.1191 -0.1917 -0.2745
   98MOL   H28437338   1.235   7.781   7.169 -0.6058  0.2797  1.1794
   98MOL   H28537339   1.165   7.733   7.400 -0.0573 -0.1878  1.0860
   98MOL   H28637340   1.278   7.853   7.582 -0.3191 -1.1071 -0.3214
   98MOL   C28737341   1.476   8.050   7.565 -0.0471 -0.2060 -0.0383
   98MOL   C28837342   1.392   8.132   7.651 -0.2919  0.0227  0.6003
   98MOL   O28937343   1.432   8.002   7.696 -0.5110  0.0434 -0.6876
   98MOL   C29037344   1.242   8.147   7.631 -0.3493 -0.3656  0.2730
   98MOL   O29137345   1.180   0.064   7.729  0.5315  0.2017  0.0594
   98MOL   C29237346   1.156   0.016   7.856  0.0813  0.2056 -0.1694
   98MOL   C29337347   1.172   8.049   7.904 -0.2743  0.0405  0.0980
   98MOL   C29437348   1.172   8.023   8.042 -0.1089 -0.3226 -0.6680
   98MOL   C29537349   1.132   8.123   8.131  0.4285  0.7736  0.4427
   98MOL   C29637350   1.113   0.085   8.085  0.0335  0.0180 -0.3854
   98MOL   C29737351   1.132   0.120   7.949 -0.3888 -0.2689  0.0826
   98MOL   H29837352   1.581   8.072   7.545  0.2981 -1.0715  0.7736
   98MOL   H29937353   1.452   0.047   7.685 -0.0186 -0.2709  0.8519
   98MOL   H30037354   1.200   8.047   7.632  1.2771 -1.0638 -0.3116
   98MOL   H30137355   1.216   0.017   7.533 -0.5276 -2.1974 -0.4430
   98MOL   H30237356   1.202   7.974   7.833 -1.9577 -0.2069 -0.3799
   98MOL   H30337357   1.192   7.926   8.085  0.1190 -1.4255 -3.1627
   98MOL   H30437358   1.131   8.095   0.066  0.2152 -0.7293  0.0483
   98MOL   H30537359   1.104   0.168   8.153 -0.3427  0.9542 -1.5721
   98MOL   C30637360   1.125   0.267   7.912  0.1974  0.0047 -0.0044
   98MOL   C30737361   1.015   0.326   7.828  0.3198  0.4739  0.1359
   98MOL   O30837362   1.018   0.349   7.969  0.0997 -0.3324  0.1076
   98MOL   C30937363   0.884   0.262   7.780  0.0346  0.5090  0.1760
   98MOL   O31037364   0.846   0.333   7.661 -0.1719  0.5126 -0.1022
   98MOL   C31137365   0.747   0.430   7.661 -0.1197  0.1583  0.0460
   98MOL   C31237366   0.696   0.507   7.766 -1.0068  0.4911  0.1561
   98MOL   C31337367   0.605   0.613   7.750  0.6993 -0.6873  0.3511
   98MOL   C31437368   0.556   0.638   7.620  0.0448 -0.3449  0.0387
   98MOL   C31537369   0.608   0.572   7.512 -0.1610  0.0261 -0.1365
   98MOL   C31637370   0.704   0.468   7.532  1.2845  0.6779  0.2278
   98MOL   H31737371   1.219   0.321   7.905 -0.3331  0.8238 -0.9148
   98MOL   H31837372   1.040   0.418   7.776 -0.5864  1.6880  1.7870
   98MOL   H31937373   0.809   0.278   7.858 -2.2545 -3.8175 -0.9726
   98MOL   H32037374   0.894   0.155   7.760 -1.7541  0.5176 -0.8612
   98MOL   H32137375   0.730   0.484   7.866 -4.0846 -1.0262  0.9294
   98MOL   H32237376   0.561   0.672   7.828 -2.9686 -0.1933 -1.9389
   98MOL   H32337377   0.486   0.719   7.604  1.5988  1.1412  0.6552
   98MOL   H32437378   0.577   0.603   7.413  1.8943  1.4728 -0.3625
   98MOL   C32537379   0.767   0.404   7.411  0.7950 -0.3066  0.0092
   98MOL   C32637380   0.694   0.340   7.290  0.0713 -0.3672 -0.7293
   98MOL   O32737381   0.732   0.476   7.297  1.1793  0.1085  0.3030
   98MOL   C32837382   0.544   0.325   7.274 -0.0061  0.1267  0.5365
   98MOL   O32937383   0.504   0.193   7.306  0.3232  0.1039  0.0207
   98MOL   C33037384   0.509   0.094   7.211 -0.9233 -0.8782  0.3034
   98MOL   C33137385   0.556   0.117   7.080 -0.1682 -0.7624 -0.1158
   98MOL   C33237386   0.548   0.014   6.985 -0.2303  0.3198  0.0227
   98MOL   C33337387   0.498   8.058   7.017  0.2297  0.0697 -0.1422
   98MOL   C33437388   0.445   8.035   7.145 -0.3641 -0.1466  0.6058
   98MOL   C33537389   0.449   8.141   7.239  0.4691  0.6013 -0.0091
   98MOL   H33637390   0.872   0.378   7.422  0.3330 -2.2842 -0.0999
   98MOL   H33737391   0.753   0.274   7.226  2.3054  0.5291  0.3744
   98MOL   H33837392   0.498   0.370   7.187 -1.7412 -1.5189  0.5778
   98MOL   H33937393   0.507   0.371   7.366 -1.7538 -1.4650  0.6596
   98MOL   H34037394   0.593   0.214   7.050 -2.9302  0.8436  1.4953
   98MOL   H34137395   0.588   0.027   6.886  0.4594 -0.7205  0.1608
   98MOL   H34237396   0.501   7.984   6.938  2.6827 -0.1830  0.1577
   98MOL   H34337397   0.403   7.936   7.156 -1.9988  0.2480 -1.5715
   98MOL   C34437398   0.373   8.118   7.366  0.6441 -0.0216  0.4452
   98MOL   C34537399   0.229   8.163   7.379  0.2147 -0.1724  0.6541
   98MOL   O34637400   0.267   8.026   7.358  0.2042  0.5168  0.3845
   98MOL   C34737401   0.162   0.051   7.258  0.3406  0.2325  1.1351
   98MOL   O34837402   0.022   0.076   7.274 -0.4220 -0.4166  0.0690
   98MOL   C34937403   8.153   0.188   7.208 -0.2207  1.4717  0.1374
   98MOL   C35037404   0.052   0.314   7.228  0.6814  0.2520 -0.0015
   98MOL   C35137405   0.022   0.431   7.161 -0.3555 -0.3958 -0.2047
   98MOL   C35237406   8.087   0.420   7.070  0.3862  0.2005  0.2476
   98MOL   C35337407   8.003   0.308   7.056  0.0134 -0.0714 -0.4939
   98MOL   C35437408   8.039   0.188   7.124  0.4955 -0.1567  0.5184
   98MOL   H35537409   0.439   8.114   7.452 -1.3383  2.2121  2.1400
   98MOL   H35637410   0.189   0.010   7.478 -0.1445 -0.6251  0.5885
   98MOL   H35737411   0.174   8.155   7.173  0.3427 -0.4120  1.6335
   98MOL   H35837412   0.233   0.132   7.240  0.9660 -0.6980 -0.6739
   98MOL   H35937413   0.135   0.303   7.296  1.3670  0.8660 -0.7335
   98MOL   H36037414   0.087   0.514   7.184 -1.3295  0.6588 -1.2228
   98MOL   H36137415   8.073   0.511   7.012  2.4791  1.0045  0.9389
   98MOL   H36237416   7.923   0.317   6.983 -2.5248 -1.7568  1.9986
   98MOL   C36337417   7.957   0.068   7.099 -0.3017  0.0875  0.6821
   98MOL   C36437418   7.808   0.052   7.111 -0.3823  0.8554 -0.2237
   98MOL   O36537419   7.870   0.083   6.983  0.1905 -0.6358  0.7817
   98MOL   C36637420   7.721   0.147   7.182  0.5070  0.4459 -0.1359
   98MOL   O36737421   7.581   0.119   7.168  0.2144 -0.3780  0.3167
   98MOL   C36837422   7.510   0.182   7.066 -0.1149  0.8234  0.2529
   98MOL   C36937423   7.569   0.275   6.977  0.4757 -0.1619  0.4210
   98MOL   C37037424   7.490   0.348   6.886 -0.2404 -0.5727  0.4141
   98MOL   C37137425   7.353   0.326   6.888 -0.2620 -0.0399  0.9333
   98MOL   C37237426   7.290   0.238   6.981  0.1310 -0.4691 -0.2698
   98MOL   C37337427   7.372   0.165   7.066  0.5328  0.2939 -0.0515
   98MOL   H37437428   8.027   8.155   7.097 -1.6844 -1.2514  3.3169
   98MOL   H37537429   7.770   8.121   7.123  1.3397  0.2874  0.5212
   98MOL   H37637430   7.747   0.249   7.154  0.2724  0.9094  1.2862
   98MOL   H37737431   7.750   0.135   7.286  0.4761  0.0580 -0.1707
   98MOL   H37837432   7.674   0.296   6.967  0.4992  0.6907  2.2524
   98MOL   H37937433   7.533   0.415   6.813 -3.1518  0.6586 -0.2499
   98MOL   H38037434   7.295   0.379   6.814 -0.0298  0.8450  1.3662
   98MOL   H38137435   7.183   0.225   6.984 -0.1365  1.1094 -2.1222
   98MOL   H38237436   7.327   0.105   7.143  2.1523  1.3166  1.7399
   99MOL     C137437   4.477   3.480   3.338 -0.6931  0.4568  0.0366
   99MOL     C237438   4.590   3.465   3.439  0.0634 -0.3549 -0.5089
   99MOL     O337439   4.457   3.501   3.480  0.4048  0.2508 -0.9524
   99MOL     C437440   4.701   3.562   3.467  0.2186 -0.6648 -0.1696
   99MOL     O537441   4.720   3.557   3.611  0.0416  0.1156 -0.1283
   99MOL     C637442   4.798   3.654   3.666 -0.0373 -1.2196 -0.3537
   99MOL     C737443   4.919   3.706   3.609 -0.1620  0.0105 -0.1941
   99MOL     C837444   4.993   3.804   3.675  1.0775  1.1696 -0.1180
   99MOL     C937445   4.952   3.858   3.797  0.1744 -1.1481  0.1127
   99MOL    C1037446   4.833   3.812   3.859 -0.5053  0.3779  0.2445
   99MOL    C1137447   4.752   3.719   3.786  0.5583  0.5630 -0.5523
   99MOL    H1237448   4.438   3.386   3.301  0.8531 -0.8870  1.7335
   99MOL    H1337449   4.614   3.362   3.464 -0.7085 -0.4661 -0.2091
   99MOL    H1437450   4.688   3.663   3.429  5.2699  0.9785  1.9751
   99MOL    H1537451   4.793   3.521   3.423 -0.0328 -1.9265  0.4486
   99MOL    H1637452   4.947   3.666   3.512 -1.2307 -0.0359 -0.4894
   99MOL    H1737453   5.088   3.840   3.639  2.3984  0.8266  2.8393
   99MOL    H1837454   5.016   3.919   3.859 -0.1799 -1.9042  1.2501
   99MOL    H1937455   4.809   3.847   3.958  2.3556  0.4394  0.9509
   99MOL    H2037456   4.467   3.570   3.278 -0.7934  0.1691 -0.3819
   99MOL    C2137457   4.616   3.675   3.838 -0.9934  0.4476 -0.1684
   99MOL    C2237458   4.584   3.594   3.960 -0.2997 -0.1079  0.1043
   99MOL    O2337459   4.593   3.737   3.961  0.4459 -0.3680 -0.7173
   99MOL    C2437460   4.673   3.524   4.049  0.6162 -0.1035  0.0993
   99MOL    O2537461   4.727   3.416   3.975 -0.4236 -0.1762  0.7265
   99MOL    C2637462   4.816   3.334   4.031  0.1116 -0.4486 -0.0849
   99MOL    C2737463   4.815   3.308   4.170  0.0484 -0.3228  0.1040
   99MOL    C2837464   4.905   3.213   4.228 -0.2700  0.2312  0.7200
   99MOL    C2937465   4.994   3.140   4.147  0.2868  0.5453  0.3211
   99MOL    C3037466   4.995   3.165   4.009  0.2641 -0.3547 -0.0673
   99MOL    C3137467   4.910   3.266   3.953 -0.2119 -0.0179  0.0666
   99MOL    H3237468   4.540   3.691   3.762  1.0326  1.0037 -2.1401
   99MOL    H3337469   4.484   3.551   3.967  0.2936 -2.2567 -3.3276
   99MOL    H3437470   4.618   3.502   4.141 -0.5472 -0.4499 -0.6691
   99MOL    H3537471   4.760   3.584   4.076  2.4570 -1.5288 -2.5271
   99MOL    H3637472   4.730   3.338   4.230 -1.1029 -1.7236 -0.7996
   99MOL    H3737473   4.901   3.198   4.335 -2.8191  1.5824  0.8485
   99MOL    H3837474   5.054   3.065   4.197 -1.3747 -0.3498  1.0061
   99MOL    H3937475   5.049   3.102   3.939  1.8618  0.5340  0.3426
   99MOL    C4037476   4.912   3.282   3.810 -0.5477  0.3797  0.0163
   99MOL    C4137477   4.984   3.394   3.738 -0.3002  1.0732 -0.1431
   99MOL    O4237478   5.040   3.265   3.752 -0.2333  0.6146 -0.0729
   99MOL    C4337479   5.064   3.502   3.803  0.0093  0.0690  1.3253
   99MOL    O4437480   5.127   3.452   3.915  0.0663  0.0301 -0.5896
   99MOL    C4537481   5.227   3.530   3.971 -0.1593 -0.1938  0.3069
   99MOL    C4637482   5.260   3.669   3.928  0.1298 -0.2019  0.2054
   99MOL    C4737483   5.366   3.734   3.989 -0.8447  0.3256 -0.0621
   99MOL    C4837484   5.451   3.663   4.081  0.3428 -0.1659 -0.3049
   99MOL    C4937485   5.413   3.535   4.123 -0.0776 -0.1078 -0.0747
   99MOL    C5037486   5.311   3.464   4.062 -0.6065 -0.1052 -0.7316
   99MOL    H5137487   4.827   3.240   3.756 -1.2029  1.0586  0.5182
   99MOL    H5237488   4.933   3.412   3.644  1.1267  0.3884 -1.0636
   99MOL    H5337489   5.006   3.587   3.840  2.0650  1.3742  1.6222
   99MOL    H5437490   5.139   3.535   3.731 -2.3196  1.3074 -0.6295
   99MOL    H5537491   5.192   3.717   3.859  1.6655  1.7043  0.0042
   99MOL    H5637492   5.376   3.840   3.973  1.0618  0.2891  0.7905
   99MOL    H5737493   5.526   3.712   4.141  0.3567 -0.0001 -0.4597
   99MOL    H5837494   5.470   3.481   4.198  0.2072  0.8924  0.4476
   99MOL    C5937495   5.285   3.330   4.109 -0.8148  0.1866 -0.1581
   99MOL    C6037496   5.333   3.205   4.040 -0.2267 -0.2621  0.0694
   99MOL    O6137497   5.409   3.258   4.147 -0.2675 -0.3418  0.0898
   99MOL    C6237498   5.399   3.218   3.908 -0.7191 -0.2098  0.3630
   99MOL    O6337499   5.431   3.083   3.877  0.1207 -0.0621 -0.9024
   99MOL    C6437500   5.522   3.050   3.782 -0.3647  0.4497 -0.0057
   99MOL    C6537501   5.575   3.147   3.693  0.9236  0.8974  0.3948
   99MOL    C6637502   5.666   3.108   3.592 -0.8144  0.4843  0.2284
   99MOL    C6737503   5.718   2.980   3.593 -0.0574 -1.1221 -0.5928
   99MOL    C6837504   5.667   2.890   3.679  0.0658  0.8977  0.2542
   99MOL    C6937505   5.566   2.918   3.772 -1.3900 -0.2859  0.1125
   99MOL    H7037506   5.208   3.324   4.185 -1.1888 -1.9073 -0.6510
   99MOL    H7137507   5.281   3.112   4.059 -0.1496 -0.2085  0.5576
   99MOL    H7237508   5.475   3.296   3.905  0.3224 -1.1747  1.4418
   99MOL    H7337509   5.328   3.228   3.826  0.3287  1.1674 -0.4012
   99MOL    H7437510   5.543   3.249   3.705 -0.7669  0.1362  2.6928
   99MOL    H7537511   5.701   3.178   3.518  1.5189  1.5376  2.2492
   99MOL    H7637512   5.788   2.953   3.514  2.3512  2.5009  0.1908
   99MOL    H7737513   5.706   2.789   3.677 -0.5111  0.6953 -1.0247
   99MOL    C7837514   5.499   2.811   3.848  0.5567  0.0422 -0.0632
   99MOL    C7937515   5.355   2.774   3.839 -0.4025  0.4025 -0.1444
   99MOL    O8037516   5.458   2.703   3.764  0.6191  0.2905 -0.1297
   99MOL    C8137517   5.260   2.850   3.754  0.6528  0.9961 -0.5584
   99MOL    O8237518   5.156   2.762   3.699 -0.7143 -0.4671  0.0551
   99MOL    C8337519   5.055   2.814   3.615 -0.4640  0.2571  0.5477
   99MOL    C8437520   5.030   2.948   3.595  1.0928 -0.0260  0.1685
   99MOL    C8537521   4.920   2.985   3.515 -0.3211  0.4492  0.2227
   99MOL    C8637522   4.831   2.895   3.458 -0.2057 -0.1845  0.2871
   99MOL    C8737523   4.853   2.758   3.489  0.3155 -0.2564 -0.3242
   99MOL    C8837524   4.966   2.714   3.559  0.1352  0.6155 -0.0807
   99MOL    H8937525   5.560   2.781   3.933 -1.6522 -4.0251  0.2534
   99MOL    H9037526   5.304   2.698   3.898 -0.2707  0.5525  0.1648
   99MOL    H9137527   5.305   2.892   3.664 -0.3190  2.6017 -0.3088
   99MOL    H9237528   5.218   2.937   3.804 -0.1915 -0.7492  1.8660
   99MOL    H9337529   5.095   3.027   3.631 -0.6315  1.2188  0.6420
   99MOL    H9437530   4.915   3.088   3.485  3.4911  0.8978  0.9787
   99MOL    H9537531   4.757   2.935   3.391 -1.9123 -2.1493  0.9620
   99MOL    H9637532   4.795   2.684   3.436 -1.0015  0.1438  0.5566
   99MOL    C9737533   4.988   2.564   3.570  0.0336 -0.2387  0.3355
   99MOL    C9837534   4.960   2.479   3.691 -0.0531  0.1141 -0.8086
   99MOL    O9937535   4.870   2.476   3.576 -0.3669  0.4554 -0.4602
   99MOL   C10037536   4.902   2.543   3.810 -0.2257  0.0075 -0.3013
   99MOL   O10137537   4.840   2.448   3.895  0.0726  0.1421 -0.1570
   99MOL   C10237538   4.909   2.349   3.966 -0.0466 -0.6451  0.3100
   99MOL   C10337539   5.042   2.357   4.005 -0.2530 -0.4400  0.6296
   99MOL   C10437540   5.103   2.249   4.072 -0.7997 -0.5889  0.8267
   99MOL   C10537541   5.031   2.137   4.108  1.2261 -0.0470  0.3178
   99MOL   C10637542   4.898   2.129   4.073  0.2760 -0.6593 -0.2976
   99MOL   C10737543   4.840   2.232   3.994 -0.3084 -0.0526 -1.0127
   99MOL   H10837544   5.060   2.528   3.497 -1.3280 -0.8756 -0.7364
   99MOL   H10937545   5.019   2.388   3.698 -1.0253 -0.4651 -0.1094
   99MOL   H11037546   4.833   2.621   3.779  2.0729  2.2667  0.1346
   99MOL   H11137547   4.983   2.594   3.862 -0.3910 -0.8093  0.7770
   99MOL   H11237548   5.105   2.443   3.986  1.0037 -1.9701 -2.4364
   99MOL   H11337549   5.207   2.274   4.088 -0.7635 -0.6032  0.6114
   99MOL   H11437550   5.071   2.049   4.156 -0.2401 -0.5017  0.7495
   99MOL   H11537551   4.840   2.042   4.100  1.4080 -1.4057 -0.2526
   99MOL   C11637552   4.702   2.218   3.926 -0.1994 -0.0636 -1.3075
   99MOL   C11737553   4.688   2.182   3.772 -0.1510 -0.0715 -0.5738
   99MOL   O11837554   4.682   2.084   3.873 -0.2778 -0.8544 -0.6777
   99MOL   C11937555   4.804   2.157   3.670 -0.7032 -0.1588  0.5581
   99MOL   O12037556   4.790   2.028   3.607 -0.6955  0.1233 -0.1416
   99MOL   C12137557   4.855   1.923   3.674 -0.0979  0.3360 -0.5770
   99MOL   C12237558   4.942   1.935   3.784  0.1307  1.1344  0.3441
   99MOL   C12337559   5.001   1.817   3.844  0.1087  0.1583 -0.1612
   99MOL   C12437560   4.958   1.692   3.800  0.4832  0.0602  0.5297
   99MOL   C12537561   4.867   1.677   3.691  0.1743 -0.2210  0.4309
   99MOL   C12637562   4.815   1.793   3.631  0.0945 -0.0204  0.4371
   99MOL   H12737563   4.616   2.260   3.978 -0.6216 -2.8471  0.3251
   99MOL   H12837564   4.588   2.202   3.733  0.6406  2.3701 -1.4750
   99MOL   H12937565   4.902   2.167   3.717 -1.0837  3.0875  0.8324
   99MOL   H13037566   4.799   2.233   3.591  0.8127 -0.2356  0.3685
   99MOL   H13137567   4.972   2.024   3.837 -0.5957  2.2177 -1.0322
   99MOL   H13237568   5.073   1.834   3.922  2.0066 -1.0615 -1.5981
   99MOL   H13337569   4.984   1.609   3.864 -2.2946 -0.3754  1.1755
   99MOL   H13437570   4.826   1.580   3.668  1.3490 -1.2734  2.6692
   99MOL   C13537571   4.703   1.774   3.533  0.1853  0.6085 -0.1505
   99MOL   C13637572   4.717   1.761   3.381 -0.3933  0.4659 -0.5577
   99MOL   O13737573   4.702   1.648   3.468 -0.0317  0.1709  0.7505
   99MOL   C13837574   4.856   1.766   3.314 -0.1058 -0.0807  0.3576
   99MOL   O13937575   4.833   1.720   3.182 -0.0615 -0.5957  0.4472
   99MOL   C14037576   4.883   1.598   3.146  0.0662  0.2845  0.0453
   99MOL   C14137577   4.865   1.482   3.227 -0.1725  0.0706  0.0473
   99MOL   C14237578   4.929   1.357   3.208 -0.0161  0.0536 -0.3625
   99MOL   C14337579   5.023   1.343   3.104 -0.1199 -0.2372 -0.0334
   99MOL   C14437580   5.030   1.459   3.017  0.0488  0.4965 -0.0631
   99MOL   C14537581   4.966   1.584   3.031 -0.1485  0.9385 -0.1247
   99MOL   H14637582   4.612   1.796   3.589 -0.3900 -0.4337 -0.6612
   99MOL   H14737583   4.633   1.777   3.315 -0.9348  1.9918  0.4673
   99MOL   H14837584   4.933   1.704   3.361 -0.8568 -1.3586 -0.0588
   99MOL   H14937585   4.897   1.866   3.311 -0.1042 -0.0834  0.3018
   99MOL   H15037586   4.792   1.494   3.305 -0.0058  0.5996  0.1277
   99MOL   H15137587   4.889   1.280   3.272  1.1800 -1.2857 -1.1984
   99MOL   H15237588   5.077   1.253   3.079 -0.6684 -0.5795 -0.0058
   99MOL   H15337589   5.091   1.437   2.931 -1.3894  1.0964 -1.2515
   99MOL   C15437590   4.991   1.695   2.936  0.0045 -0.0889  0.6666
   99MOL   C15537591   5.091   1.804   2.967  0.7076  0.6393  0.0321
   99MOL   O15637592   5.126   1.690   2.892 -0.3298 -0.3832 -0.9798
   99MOL   C15737593   5.171   1.818   3.101  0.2848  0.0458  0.1527
   99MOL   O15837594   5.124   1.930   3.192 -0.4952 -0.2902  0.1290
   99MOL   C15937595   5.140   2.063   3.160 -0.1651 -0.4483  0.2609
   99MOL   C16037596   5.198   2.114   3.038 -0.4540 -0.1600 -0.5792
   99MOL   C16137597   5.237   2.252   3.030 -0.3833 -0.0623 -0.4206
   99MOL   C16237598   5.200   2.337   3.125  1.1643  0.1809 -1.1186
   99MOL   C16337599   5.124   2.298   3.236  0.5910  0.4378 -0.3766
   99MOL   C16437600   5.100   2.157   3.258  0.7096 -0.5497 -0.6613
   99MOL   H16537601   4.920   1.706   2.854  0.6067 -1.2584 -0.0129
   99MOL   H16637602   5.071   1.892   2.907 -0.7138  0.3579  0.0822
   99MOL   H16737603   5.274   1.838   3.071 -0.2839 -0.5906 -2.2930
   99MOL   H16837604   5.161   1.723   3.153 -0.1119  0.5142  0.9403
   99MOL   H16937605   5.235   2.046   2.963 -2.0456  0.9150 -2.4096
   99MOL   H17037606   5.286   2.297   2.945 -1.8149 -1.4179 -2.0106
   99MOL   H17137607   5.223   2.442   3.115  1.4975  0.0778 -1.4580
   99MOL   H17237608   5.105   2.375   3.310  0.0435 -0.4105  0.3776
   99MOL   C17337609   5.050   2.102   3.388  0.2393  0.3632 -0.1447
   99MOL   C17437610   5.141   2.049   3.495  0.0698  1.0134 -0.9910
   99MOL   O17537611   5.074   2.177   3.508 -0.2264  0.2502  0.3047
   99MOL   C17637612   5.291   2.049   3.482  0.2500 -0.3749  0.4673
   99MOL   O17737613   5.343   2.029   3.614  0.1899  0.1217 -0.4402
   99MOL   C17837614   5.349   2.134   3.708  0.1917  0.6900  0.4700
   99MOL   C17937615   5.342   2.272   3.673  0.6597  0.1300  0.3537
   99MOL   C18037616   5.384   2.362   3.770  0.0043  0.4577 -0.4731
   99MOL   C18137617   5.422   2.331   3.900  0.4642 -0.4305 -0.7695
   99MOL   C18237618   5.417   2.198   3.942 -1.2975  0.1336 -0.5281
   99MOL   C18337619   5.379   2.097   3.849  0.4211  0.0855  0.4879
   99MOL   H18437620   4.945   2.073   3.392  0.6888 -1.2916  0.4519
   99MOL   H18537621   5.104   1.966   3.555  1.8784 -1.0788 -2.6905
   99MOL   H18637622   5.334   2.136   3.434  0.7438 -1.5541 -1.2829
   99MOL   H18737623   5.314   1.965   3.415 -0.7200  0.0241 -0.3809
   99MOL   H18837624   5.324   2.299   3.570 -0.6382 -1.2825  0.1940
   99MOL   H18937625   5.391   2.465   3.738  1.7312  0.2093 -0.9577
   99MOL   H19037626   5.463   2.410   3.961  0.0599 -2.0735  1.7223
   99MOL   H19137627   5.429   2.162   4.043  0.0554 -2.6072 -1.6059
   99MOL   C19237628   5.400   1.956   3.882 -0.1390  0.4556  0.0933
   99MOL   C19337629   5.524   1.879   3.844  0.0498 -0.6727  1.3056
   99MOL   O19437630   5.511   1.931   3.975  0.2720 -0.2904 -0.0635
   99MOL   C19537631   5.636   1.942   3.761  0.3597  0.5520  0.2591
   99MOL   O19637632   5.735   1.850   3.734 -0.0472 -0.2714  0.2481
   99MOL   C19737633   5.862   1.876   3.689 -0.0778 -0.0860  0.2043
   99MOL   C19837634   5.925   1.999   3.706  0.6677 -0.1019 -0.2145
   99MOL   C19937635   6.054   2.016   3.658  0.6826 -0.5265  0.4146
   99MOL   C20037636   6.114   1.913   3.578  1.2632 -0.0148  0.0824
   99MOL   C20137637   6.054   1.784   3.563  0.0462 -0.2532  0.0202
   99MOL   C20237638   5.924   1.770   3.617  0.1177  0.1905  0.0480
   99MOL   H20337639   5.314   1.896   3.913 -0.7870  0.9536 -0.7285
   99MOL   H20437640   5.524   1.770   3.845  0.2507 -0.6727  1.3026
   99MOL   H20537641   5.658   2.026   3.827 -0.1456  0.6773  0.2695
   99MOL   H20637642   5.606   1.988   3.666  0.3057 -0.2092 -0.0949
   99MOL   H20737643   5.879   2.075   3.768  0.4553 -1.0101  0.7540
   99MOL   H20837644   6.109   2.108   3.677 -1.6318  0.5343  2.2322
   99MOL   H20937645   6.210   1.930   3.531  1.9881 -1.8273  0.8649
   99MOL   H21037646   6.105   1.702   3.516 -0.2808  0.5193 -1.7012
   99MOL   C21137647   5.851   1.638   3.611  0.1761 -0.2050  0.2783
   99MOL   C21237648   5.756   1.601   3.505  0.4062 -0.4050 -0.0768
   99MOL   O21337649   5.888   1.555   3.503  0.2754  0.1701  0.4193
   99MOL   C21437650   5.720   1.675   3.382  0.8218  1.2455  0.6776
   99MOL   O21537651   5.631   1.613   3.291  0.2798  0.4931 -0.3216
   99MOL   C21637652   5.497   1.617   3.329  0.0468  0.4926 -0.3657
   99MOL   C21737653   5.447   1.700   3.436 -0.1702  0.1292 -0.4373
   99MOL   C21837654   5.318   1.687   3.479  0.4860  0.5026 -0.0148
   99MOL   C21937655   5.237   1.592   3.416 -0.2426  0.4890 -0.1948
   99MOL   C22037656   5.280   1.521   3.306 -0.1839  0.5037  0.6496
   99MOL   C22137657   5.410   1.533   3.258  0.0548  0.1901 -0.5300
   99MOL   H22237658   5.841   1.586   3.706  1.1319  0.2233  0.6171
   99MOL   H22337659   5.686   1.523   3.534 -0.5879 -0.0188 -1.3836
   99MOL   H22437660   5.814   1.689   3.329  0.7346  0.1156  0.2204
   99MOL   H22537661   5.696   1.780   3.401 -0.7086  1.1909 -0.8576
   99MOL   H22637662   5.515   1.763   3.493 -0.3673  0.4164 -0.5202
   99MOL   H22737663   5.280   1.732   3.570  0.5329 -1.2232  0.8724
   99MOL   H22837664   5.135   1.575   3.448  0.3605  0.4696  1.8169
   99MOL   H22937665   5.218   1.446   3.257 -2.1947  1.0700  2.2680
   99MOL   C23037666   5.459   1.468   3.138 -0.2667 -0.7816 -0.2772
   99MOL   C23137667   5.539   1.335   3.139 -0.0604 -0.1476  0.2458
   99MOL   O23237668   5.394   1.341   3.116  0.3863  0.2781  0.3183
   99MOL   C23337669   5.582   1.269   3.268 -0.0630  0.6995 -0.4995
   99MOL   O23437670   5.719   1.226   3.255 -0.0610 -0.1573 -0.1258
   99MOL   C23537671   5.786   1.170   3.360  0.2505  0.1496  0.1509
   99MOL   C23637672   5.730   1.132   3.486 -0.0782 -1.0866  0.4453
   99MOL   C23737673   5.804   1.058   3.582  0.5148 -0.3066 -0.0919
   99MOL   C23837674   5.934   1.017   3.547 -0.5249  0.2522  0.4173
   99MOL   C23937675   5.995   1.056   3.426  0.2211  0.3483 -0.2517
   99MOL   C24037676   5.921   1.136   3.331  0.2418 -0.0889 -0.0650
   99MOL   H24137677   5.471   1.531   3.050  0.0802 -0.3140  0.1073
   99MOL   H24237678   5.570   1.275   3.055  1.5001  1.8768 -0.6674
   99MOL   H24337679   5.510   1.187   3.272  0.5399 -0.1937 -4.9875
   99MOL   H24437680   5.559   1.336   3.351  1.0571  0.5591 -0.0577
   99MOL   H24537681   5.629   1.166   3.503  0.5689  1.5088 -0.5494
   99MOL   H24637682   5.762   1.037   3.679 -1.5940 -3.5638 -1.6105
   99MOL   H24737683   5.990   0.959   3.619 -0.7137 -0.9602 -0.3976
   99MOL   H24837684   6.093   1.017   3.404 -0.5361 -2.2031  0.7289
   99MOL   C24937685   5.987   1.162   3.204  0.8379  0.2105 -0.2456
   99MOL   C25037686   6.045   1.294   3.157  0.4445  0.3089  0.4100
   99MOL   O25137687   6.126   1.193   3.211 -0.4530  0.1386 -0.0392
   99MOL   C25237688   6.038   1.417   3.241  0.1585 -0.3531  0.0266
   99MOL   O25337689   6.147   1.500   3.207 -0.6598 -0.2111 -0.8046
   99MOL   C25437690   6.135   1.593   3.107  0.1036  0.4772  0.0934
   99MOL   C25537691   6.028   1.588   3.019  0.1594  0.8920 -0.5709
   99MOL   C25637692   5.999   1.693   2.930  0.2940 -0.0650  0.4741
   99MOL   C25737693   6.093   1.803   2.929 -0.1696  0.0453  0.0869
   99MOL   C25837694   6.204   1.803   3.014  0.0074 -0.1072  0.5403
   99MOL   C25937695   6.224   1.702   3.105 -0.0966  0.2790  0.3689
   99MOL   H26037696   5.958   1.090   3.128 -1.6924 -0.0853  0.9630
   99MOL   H26137697   6.071   1.307   3.053 -0.6528 -0.5361  0.0124
   99MOL   H26237698   6.046   1.385   3.345 -1.9107  0.8800  0.5830
   99MOL   H26337699   5.933   1.446   3.236  0.0064 -0.8171  0.4273
   99MOL   H26437700   5.955   1.509   3.013 -0.0948  1.0240  0.7327
   99MOL   H26537701   5.916   1.705   2.862  0.1875 -1.3954  0.3614
   99MOL   H26637702   6.085   1.883   2.857  0.9174 -0.8317 -1.0283
   99MOL   H26737703   6.276   1.883   3.011  0.1488 -0.2361  0.5113
   99MOL   C26837704   6.331   1.718   3.214  0.1624 -0.2822  1.0005
   99MOL   C26937705   6.458   1.642   3.222 -0.4491 -0.2396 -0.0964
   99MOL   O27037706   6.454   1.769   3.162  0.5750 -0.2725 -0.0829
   99MOL   C27137707   6.479   1.525   3.134 -0.0024  0.2639  0.2967
   99MOL   O27237708   6.609   1.481   3.141  0.0638  0.4401 -0.0311
   99MOL   C27337709   6.698   1.505   3.039  0.4907 -0.4932 -0.2164
   99MOL   C27437710   6.678   1.602   2.938  0.0372  0.4159  1.1018
   99MOL   C27537711   6.764   1.586   2.824  0.3900 -0.0174  0.0821
   99MOL   C27637712   6.872   1.499   2.815 -0.4363  0.3453  0.0376
   99MOL   C27737713   6.898   1.418   2.923 -0.3103 -0.3287  0.1445
   99MOL   C27837714   6.808   1.417   3.033 -0.6197  0.0165  0.3080
   99MOL   H27937715   6.290   1.777   3.296  1.2550  0.1648  1.2347
   99MOL   H28037716   6.513   1.638   3.316 -0.6456 -0.4161  0.0120
   99MOL   H28137717   6.432   1.527   3.036 -0.7080  1.3567  0.6477
   99MOL   H28237718   6.415   1.451   3.184 -0.0869  0.1793  0.0607
   99MOL   H28337719   6.597   1.673   2.926  0.2240  0.6769  1.4014
   99MOL   H28437720   6.743   1.652   2.742 -1.3989 -3.0166 -1.9453
   99MOL   H28537721   6.925   1.478   2.723  0.1271 -0.4512  0.5350
   99MOL   H28637722   6.985   1.354   2.925  1.0152  1.3915  3.6465
   99MOL   C28737723   6.824   1.319   3.146  0.0666 -0.2500  0.0861
   99MOL   C28837724   6.747   1.191   3.176 -0.2689  0.3258 -0.1887
   99MOL   O28937725   6.869   1.192   3.097 -0.4177  0.8971  0.5102
   99MOL   C29037726   6.628   1.133   3.111  0.1546 -0.0416 -0.3778
   99MOL   O29137727   6.594   1.011   3.170 -0.1448  0.1876 -0.2569
   99MOL   C29237728   6.547   0.912   3.087 -1.0740 -0.0347  0.1007
   99MOL   C29337729   6.411   0.874   3.089 -0.3416 -0.1677  0.4587
   99MOL   C29437730   6.362   0.775   3.004 -0.3306  0.6425  0.4092
   99MOL   C29537731   6.449   0.709   2.920 -0.5105  0.5211  0.0001
   99MOL   C29637732   6.584   0.737   2.925 -0.2352 -0.5253  0.0241
   99MOL   C29737733   6.637   0.846   3.000 -0.1140 -0.6465  0.3836
   99MOL   H29837734   6.893   1.361   3.219  1.2234 -0.9740 -0.5629
   99MOL   H29937735   6.754   1.149   3.276  0.7806 -0.9031 -0.7567
   99MOL   H30037736   6.654   1.126   3.005  1.1384 -0.6310 -0.1025
   99MOL   H30137737   6.556   1.215   3.112 -0.5007 -0.6003 -0.8693
   99MOL   H30237738   6.349   0.929   3.158  0.0242 -1.7200  2.0762
   99MOL   H30337739   6.257   0.748   3.004 -0.3101  0.5067 -1.3158
   99MOL   H30437740   6.422   0.616   2.872  1.4796 -0.0957  0.0300
   99MOL   H30537741   6.649   0.669   2.872  0.4408 -0.0314  0.2192
   99MOL   C30637742   6.778   0.882   2.995 -0.1019 -0.4029  0.1538
   99MOL   C30737743   6.876   0.853   3.113  0.3311 -0.2450  0.0849
   99MOL   O30837744   6.863   0.767   2.996  0.3582  0.2184  0.2365
   99MOL   C30937745   6.840   0.793   3.253 -0.3097  0.4459 -0.2495
   99MOL   O31037746   6.957   0.722   3.300 -0.3684 -0.1640  0.1136
   99MOL   C31137747   6.934   0.636   3.403  0.0925 -0.4871  0.1056
   99MOL   C31237748   6.846   0.669   3.503  0.1155 -0.7046 -0.6762
   99MOL   C31337749   6.818   0.580   3.607 -0.2925  0.3200  0.4151
   99MOL   C31437750   6.881   0.453   3.605  0.0773 -0.0844 -0.2351
   99MOL   C31537751   6.976   0.418   3.502 -0.6853 -0.8587 -0.9334
   99MOL   C31637752   7.007   0.515   3.403 -0.4630 -0.0776 -0.7713
   99MOL   H31737753   6.802   0.947   2.911 -2.2204 -0.6325 -0.6512
   99MOL   H31837754   6.961   0.921   3.111  0.7507 -0.7856 -0.3465
   99MOL   H31937755   6.747   0.737   3.251  0.3638 -0.6924 -0.4397
   99MOL   H32037756   6.825   0.881   3.315 -1.0190 -1.7173  2.7412
   99MOL   H32137757   6.794   0.764   3.506  1.0859 -0.2244  2.2499
   99MOL   H32237758   6.745   0.606   3.682  0.2356  0.7396  0.7885
   99MOL   H32337759   6.855   0.375   3.675 -3.4432  0.7947 -0.4853
   99MOL   H32437760   7.015   0.318   3.490 -0.0603 -0.7726  0.2653
   99MOL   C32537761   7.095   0.483   3.287 -1.3491  0.0313 -0.2944
   99MOL   C32637762   7.247   0.476   3.293 -0.3996  0.3794 -0.3506
   99MOL   O32737763   7.160   0.358   3.299 -0.0734  0.1553 -0.0417
   99MOL   C32837764   7.333   0.489   3.422  0.4559  0.3616  0.4359
   99MOL   O32937765   7.467   0.522   3.390 -0.5455 -0.0176 -0.6634
   99MOL   C33037766   7.565   0.492   3.481 -0.1083 -0.1303 -0.9025
   99MOL   C33137767   7.550   0.522   3.621  0.1316  0.1543 -0.3242
   99MOL   C33237768   7.649   0.475   3.712  0.4289 -0.0877 -0.0471
   99MOL   C33337769   7.773   0.416   3.661  0.2766 -0.8208  0.4713
   99MOL   C33437770   7.787   0.393   3.525 -0.4666 -0.0004  0.3320
   99MOL   C33537771   7.685   0.425   3.433 -0.7432 -0.4931  0.3822
   99MOL   H33637772   7.039   0.491   3.194  0.4940  3.5027 -1.1874
   99MOL   H33737773   7.298   0.486   3.198  0.6330 -1.1806  0.0254
   99MOL   H33837774   7.321   0.394   3.475 -0.2384 -0.1918 -0.7082
   99MOL   H33937775   7.303   0.577   3.478 -0.8774  0.6938 -0.7843
   99MOL   H34037776   7.474   0.579   3.672 -0.3148 -1.1969  0.5315
   99MOL   H34137777   7.640   0.499   3.817  2.0080  1.4637 -0.2451
   99MOL   H34237778   7.855   0.385   3.723  1.9779  0.4942 -1.0528
   99MOL   H34337779   7.873   0.346   3.478  0.7756  0.4860  2.0779
   99MOL   C34437780   7.703   0.418   3.283  0.7143 -0.0470  1.1471
   99MOL   C34537781   7.698   0.532   3.185 -0.1328 -0.1896  0.0878
   99MOL   O34637782   7.821   0.481   3.230 -0.1127  0.7847  0.0681
   99MOL   C34737783   7.689   0.686   3.214  1.0187 -0.1136 -0.3533
   99MOL   O34837784   7.700   0.751   3.091  0.4340  0.0955 -0.1905
   99MOL   C34937785   7.740   0.879   3.092 -0.0738 -0.0352 -0.1205
   99MOL   C35037786   7.640   0.977   3.064  0.3386  0.4757 -0.2603
   99MOL   C35137787   7.679   1.115   3.054 -0.4221 -0.0838  0.2440
   99MOL   C35237788   7.812   1.152   3.063  1.2924  0.0931  0.2877
   99MOL   C35337789   7.910   1.064   3.106 -0.7953  0.1956 -0.0616
   99MOL   C35437790   7.872   0.926   3.115  0.5460 -0.4784 -0.1586
   99MOL   H35537791   7.664   0.329   3.235  1.3479  1.0552 -1.4654
   99MOL   H35637792   7.677   0.509   3.081 -0.6878 -0.0750  0.1708
   99MOL   H35737793   7.747   0.719   3.300 -0.9208 -0.4810  1.1349
   99MOL   H35837794   7.591   0.721   3.248  1.7070  2.0722 -0.5603
   99MOL   H35937795   7.546   0.932   3.035  1.3287 -1.0905 -1.1327
   99MOL   H36037796   7.604   1.184   3.018  1.2227  2.0339  0.8476
   99MOL   H36137797   7.833   1.257   3.047  2.2755 -0.1217  0.1070
   99MOL   H36237798   8.015   1.087   3.116 -0.3667 -2.4705  2.0332
   99MOL   C36337799   7.969   0.821   3.151 -0.3665  0.1473  0.6832
   99MOL   C36437800   8.022   0.722   3.046 -0.7034 -0.5880  0.3265
   99MOL   O36537801   8.087   0.843   3.086 -0.0655  0.5790 -0.4195
   99MOL   C36637802   7.968   0.709   2.904  0.7244  0.3683 -0.2413
   99MOL   O36737803   8.078   0.659   2.833  0.7457 -0.0073 -0.2369
   99MOL   C36837804   8.056   0.621   2.702 -0.1614 -0.1795 -0.1600
   99MOL   C36937805   7.947   0.670   2.624 -0.3756  0.5701  0.1702
   99MOL   C37037806   7.937   0.619   2.495  0.2318 -0.5854 -0.2961
   99MOL   C37137807   8.036   0.548   2.427 -0.5755 -0.0310 -0.1296
   99MOL   C37237808   8.142   0.498   2.500  0.1601 -0.2243 -0.3191
   99MOL   C37337809   8.155   0.543   2.637  0.6234 -0.0920  0.5233
   99MOL   H37437810   7.985   0.805   3.257  0.2406 -1.4536  0.3496
   99MOL   H37537811   8.046   0.630   3.099 -0.2419  0.1593  1.4220
   99MOL   H37637812   7.941   0.811   2.878 -0.0166  0.6735  1.6172
   99MOL   H37737813   7.876   0.649   2.907  0.1023  1.2800 -0.8945
   99MOL   H37837814   7.863   0.723   2.666 -0.5522  1.5414 -1.3452
   99MOL   H37937815   7.844   0.637   2.443  1.1186  0.7535 -1.4545
   99MOL   H38037816   8.014   0.524   2.324  0.0803  0.6410 -0.4353
   99MOL   H38137817   0.050   0.441   2.452 -0.1904 -1.1001  0.1170
   99MOL   H38237818   0.078   0.523   2.688  1.0828 -0.5201 -0.4665
  100MOL     C137819   7.124   0.931   0.002  0.0791 -0.3414 -0.0156
  100MOL     C237820   7.163   1.072   0.039 -0.9477  0.0279  0.7134
  100MOL     O337821   7.028   1.021   0.061 -0.0613 -0.0415  0.2792
  100MOL     C437822   7.165   1.193   8.117 -0.5296  0.0600 -0.5411
  100MOL     O537823   7.108   1.161   7.990  0.0345 -0.2528 -0.4004
  100MOL     C637824   7.060   1.266   7.919 -0.3177 -0.0448 -0.2038
  100MOL     C737825   7.065   1.402   7.957  0.1859 -0.4839 -0.3121
  100MOL     C837826   6.996   1.503   7.885 -0.2244  0.5300  0.5058
  100MOL     C937827   6.932   1.472   7.767 -0.4453 -0.3209 -0.0242
  100MOL    C1037828   6.933   1.338   7.724  0.7526  0.1590 -0.2202
  100MOL    C1137829   6.985   1.239   7.807 -0.8018  0.0367 -0.4275
  100MOL    H1237830   7.140   0.853   0.078  0.2139  1.8392  2.2621
  100MOL    H1337831   7.217   1.094   0.131 -0.0149 -0.7220  0.3497
  100MOL    H1437832   7.269   1.218   8.094 -0.3218  1.0010  1.2840
  100MOL    H1537833   7.111   1.274   8.166 -1.8041 -0.4398 -1.1166
  100MOL    H1637834   7.127   1.431   8.040  0.7506 -0.6437 -0.6780
  100MOL    H1737835   7.006   1.601   7.928  1.2821 -1.0230  3.9245
  100MOL    H1837836   6.881   1.552   7.715 -1.4642 -1.0975 -0.2365
  100MOL    H1937837   6.874   1.314   7.636 -1.7368  0.2525  1.3782
  100MOL    H2037838   7.107   0.902   8.069 -1.8244 -0.6949  0.3816
  100MOL    C2137839   6.965   1.096   7.776  0.4997  0.2290 -0.1643
  100MOL    C2237840   6.846   1.025   7.841  0.2158  0.1821  1.2241
  100MOL    O2337841   6.836   1.075   7.705 -0.0998 -0.2650 -0.0791
  100MOL    C2437842   6.744   1.088   7.941  0.1584  0.2258 -0.5471
  100MOL    O2537843   6.616   1.026   7.949 -0.1245  0.2938 -0.0757
  100MOL    C2637844   6.509   1.104   7.993  0.5984  0.1647 -0.5940
  100MOL    C2737845   6.527   1.236   8.047  0.6531 -0.2718 -0.5257
  100MOL    C2837846   6.424   1.301   8.119  0.3966  0.2317  1.1814
  100MOL    C2937847   6.306   1.231   8.144 -0.4422 -0.4826 -0.3910
  100MOL    C3037848   6.285   1.105   8.083  0.0300 -0.0868 -0.6749
  100MOL    C3137849   6.392   1.037   8.015 -1.1817 -0.3259  0.2398
  100MOL    H3237850   7.044   1.034   7.735  1.4442  0.4797  1.2377
  100MOL    H3337851   6.853   0.917   7.851  0.3484 -0.1240 -1.8492
  100MOL    H3437852   6.726   1.191   7.911 -1.9484  0.7732  2.4086
  100MOL    H3537853   6.790   1.098   8.039  1.6759 -1.3459 -1.0731
  100MOL    H3637854   6.615   1.299   8.042  1.2296 -1.1322 -1.5537
  100MOL    H3737855   6.436   1.403   8.152 -0.4958  0.5202  0.6369
  100MOL    H3837856   6.226   1.267   0.037  1.6416  2.4438  0.7458
  100MOL    H3937857   6.192   1.053   8.102  0.6643 -0.5577  1.3071
  100MOL    C4037858   6.384   0.894   7.974  0.3568 -0.4108  0.2415
  100MOL    C4137859   6.475   0.785   8.030  0.0239  0.1065 -0.0429
  100MOL    O4237860   6.344   0.802   8.080 -0.5075  0.9871  0.3760
  100MOL    C4337861   6.587   0.797   8.133 -0.2922  0.1027  0.1996
  100MOL    O4437862   6.594   0.675   0.040 -0.2356 -0.0729 -0.0363
  100MOL    C4537863   6.683   0.683   0.138  0.9744 -0.3165 -0.0813
  100MOL    C4637864   6.809   0.748   0.129  0.0950 -0.3522  0.4976
  100MOL    C4737865   6.888   0.768   0.243 -0.6196  0.1542 -0.4206
  100MOL    C4837866   6.854   0.696   0.361 -0.0423  0.0459 -0.0410
  100MOL    C4937867   6.742   0.614   0.368 -0.0768 -0.4865 -0.4643
  100MOL    C5037868   6.646   0.611   0.259  0.4045  0.2011 -0.5611
  100MOL    H5137869   6.355   0.885   7.870  2.1857  0.8040 -0.3848
  100MOL    H5237870   6.484   0.698   7.966 -1.6978 -0.1562  0.0430
  100MOL    H5337871   6.559   0.888   0.016 -1.0283  1.7585 -2.9685
  100MOL    H5437872   6.675   0.811   8.069  0.7673  0.1252  1.6277
  100MOL    H5537873   6.830   0.793   0.034 -3.1153  0.8786  0.3189
  100MOL    H5637874   6.963   0.846   0.241 -1.3276  0.8687  0.2952
  100MOL    H5737875   6.911   0.697   0.452 -2.6994  0.2792  1.6803
  100MOL    H5837876   6.719   0.573   0.465  1.6354 -0.0375  0.1641
  100MOL    C5937877   6.517   0.538   0.288  0.3210  0.6072  0.7832
  100MOL    C6037878   6.487   0.390   0.271  0.0164  0.6137 -0.0923
  100MOL    O6137879   6.519   0.445   0.396  0.0596  0.2358 -0.0843
  100MOL    C6237880   6.583   0.279   0.235 -0.1222  1.1296 -0.0516
  100MOL    O6337881   6.725   0.319   0.223 -0.1479 -0.0332 -0.1230
  100MOL    C6437882   6.810   0.241   0.150 -0.1376  0.0867 -0.3563
  100MOL    C6537883   6.768   0.120   0.087  0.8489 -0.4512  0.3109
  100MOL    C6637884   6.860   0.052   0.014 -0.4110  0.0603  0.3474
  100MOL    C6737885   6.996   0.088   0.012  0.3245  0.7347 -0.2768
  100MOL    C6837886   7.035   0.204   0.069 -0.5457  0.0420 -0.4109
  100MOL    C6937887   6.945   0.286   0.142  1.1083  0.3974 -0.4262
  100MOL    H7037888   6.427   0.598   0.272  1.1696  1.6307 -0.3061
  100MOL    H7137889   6.385   0.356   0.258  0.1821  0.2852 -0.5745
  100MOL    H7237890   6.553   0.252   0.134 -0.6207 -0.8369  0.6062
  100MOL    H7337891   6.568   0.194   0.301  1.6442  2.3930  2.0963
  100MOL    H7437892   6.668   0.081   0.092  0.5178  0.0183 -2.0066
  100MOL    H7537893   6.826   8.140   8.122 -0.1257  0.5532 -0.4653
  100MOL    H7637894   7.076   0.033   8.133  0.2731 -1.1669  1.6989
  100MOL    H7737895   7.133   0.246   0.049 -0.7226  1.0026  0.7281
  100MOL    C7837896   6.987   0.415   0.211  0.7662  0.2137 -0.9470
  100MOL    C7937897   7.080   0.442   0.326  0.5141 -0.0040  0.3684
  100MOL    O8037898   7.127   0.430   0.190  0.1552  0.1450  0.3176
  100MOL    C8137899   7.095   0.328   0.429  0.3996  0.6673 -0.4816
  100MOL    O8237900   6.964   0.324   0.497 -0.5200 -0.2546  0.2306
  100MOL    C8337901   6.939   0.408   0.606 -0.5275 -0.0863 -0.1257
  100MOL    C8437902   7.032   0.506   0.646 -0.2654  0.3644  0.8326
  100MOL    C8537903   7.004   0.582   0.757 -0.0456  0.9681  0.0307
  100MOL    C8637904   6.882   0.578   0.819  0.8679  0.3557 -0.3261
  100MOL    C8737905   6.787   0.480   0.788 -0.4933  0.9879  0.1768
  100MOL    C8837906   6.818   0.398   0.673 -0.0244  0.4473  0.0277
  100MOL    H8937907   6.920   0.494   0.178  0.5847  0.0196 -1.0415
  100MOL    H9037908   7.079   0.544   0.363  0.3132 -0.7089  2.4071
  100MOL    H9137909   7.182   0.351   0.491 -0.8878 -0.2601  1.7247
  100MOL    H9237910   7.110   0.230   0.384 -2.1429  0.0605 -0.0615
  100MOL    H9337911   7.125   0.527   0.597  0.1027  1.2537  1.8991
  100MOL    H9437912   7.070   0.661   0.791  1.2958  0.4703 -1.3668
  100MOL    H9537913   6.860   0.646   0.900 -0.5083 -2.0656  1.4422
  100MOL    H9637914   6.689   0.471   0.832 -0.3567  1.9219  0.6870
  100MOL    C9737915   6.720   0.298   0.617 -0.0763  0.1922 -0.2998
  100MOL    C9837916   6.709   0.160   0.675  0.1525  0.0991  0.4087
  100MOL    O9937917   6.633   0.271   0.728  0.0146 -0.5698 -0.0487
  100MOL   C10037918   6.808   0.101   0.779  0.3782  0.7223  0.2047
  100MOL   O10137919   6.785   8.141   0.817  0.8533  0.3495 -0.6704
  100MOL   C10237920   6.794   8.039   0.719 -0.1136 -0.3968 -0.1562
  100MOL   C10337921   6.854   8.061   0.590  0.1508 -0.3097  0.2591
  100MOL   C10437922   6.847   7.967   0.491  0.4675  0.7606  0.0457
  100MOL   C10537923   6.779   7.846   0.512 -0.7203 -0.3256 -0.0369
  100MOL   C10637924   6.735   7.814   0.649  0.8154 -0.4212  0.5299
  100MOL   C10737925   6.732   7.916   0.745  0.1049 -0.4810 -0.1415
  100MOL   H10837926   6.674   0.327   0.523 -1.0725  1.8249  0.6685
  100MOL   H10937927   6.654   0.082   0.623  0.3107  0.1123  0.2260
  100MOL   H11037928   6.795   0.162   0.868  0.6265  2.3192 -0.8316
  100MOL   H11137929   6.910   0.115   0.745  0.6872  0.8867  1.1895
  100MOL   H11237930   6.905   8.153   0.565 -1.2570  0.6589  0.9040
  100MOL   H11337931   6.884   7.997   0.394  0.9727  1.3729  0.4328
  100MOL   H11437932   6.780   7.766   0.440 -1.2403 -1.4353  1.1810
  100MOL   H11537933   6.676   7.726   0.671 -0.6949  0.1743 -1.0250
  100MOL   C11637934   6.653   7.897   0.877  0.5252  0.0697 -0.3878
  100MOL   C11737935   6.531   7.966   0.912  0.7551  0.3500 -0.5950
  100MOL   O11837936   6.526   7.832   0.848 -0.3396  0.1078  0.3304
  100MOL   C11937937   6.470   8.078   0.821  0.0353  0.5047 -0.5113
  100MOL   O12037938   6.331   8.049   0.798 -0.4608  0.1460 -0.3113
  100MOL   C12137939   6.274   8.132   0.698  0.3067  0.7695  0.8251
  100MOL   C12237940   6.333   0.087   0.661 -0.5583 -0.2588 -0.2625
  100MOL   C12337941   6.284   0.154   0.549 -0.1186 -0.1970  0.6916
  100MOL   C12437942   6.177   0.099   0.471 -0.8313  0.2194  0.0684
  100MOL   C12537943   6.113   8.153   0.519  0.0383 -0.9732 -0.0383
  100MOL   C12637944   6.152   8.091   0.638 -0.4433 -0.1697 -0.3853
  100MOL   H12737945   6.719   7.855   0.953 -1.0171  3.0248  2.7147
  100MOL   H12837946   6.501   7.963   1.017 -0.9672 -2.7172 -1.0991
  100MOL   H12937947   6.530   8.099   0.732 -2.3202  3.7885 -1.4536
  100MOL   H13037948   6.478   8.168   0.882 -1.4024  0.8505 -0.8197
  100MOL   H13137949   6.403   0.141   0.723  1.1730 -2.6305 -0.0792
  100MOL   H13237950   6.323   0.246   0.508  1.8400 -0.6832  1.4248
  100MOL   H13337951   6.140   0.138   0.377  1.5633 -0.7278 -1.3163
  100MOL   H13437952   6.023   8.118   0.470 -0.3955  0.6519 -0.4267
  100MOL   C13537953   6.074   7.971   0.688  0.2758 -0.4677  0.6814
  100MOL   C13637954   5.954   7.978   0.777  0.0215 -0.1752  0.7025
  100MOL   O13737955   5.942   7.967   0.634 -1.0089  0.1475  0.2674
  100MOL   C13837956   5.913   8.109   0.835 -0.0804  0.2896  0.3510
  100MOL   O13937957   5.786   8.087   0.890  0.4503 -1.1390  0.0697
  100MOL   C14037958   5.698   0.022   0.905 -0.4688  0.0825  0.4839
  100MOL   C14137959   5.712   0.149   0.847 -0.4182  0.1845  0.0955
  100MOL   C14237960   5.625   0.260   0.867  0.5895  0.1664 -0.1370
  100MOL   C14337961   5.517   0.239   0.952  0.2607 -0.6033 -0.3338
  100MOL   C14437962   5.496   0.111   1.009 -0.2427  0.8749 -1.0089
  100MOL   C14537963   5.583   0.004   0.983 -0.2973  1.1588 -0.5624
  100MOL   H14637964   6.120   7.874   0.671 -0.9838 -0.8726 -0.4425
  100MOL   H14737965   5.916   7.891   0.831 -1.0627 -0.7774 -0.9836
  100MOL   H14837966   5.930   0.019   0.764 -1.0791 -1.2650 -1.6954
  100MOL   H14937967   5.989   8.126   0.912  1.0376 -1.5535 -0.2838
  100MOL   H15037968   5.795   0.173   0.783  1.1895 -0.7182  1.8089
  100MOL   H15137969   5.634   0.349   0.806  0.5816 -0.2964 -0.8261
  100MOL   H15237970   5.449   0.322   0.955  0.7834 -0.1879  0.0919
  100MOL   H15337971   5.416   0.094   1.079 -0.8954 -0.4079 -2.0433
  100MOL   C15437972   5.533   8.035   1.041 -0.5460  0.1513 -0.2497
  100MOL   C15537973   5.613   7.936   1.133  0.8438  0.3315  0.0410
  100MOL   O15637974   5.527   8.042   1.181  0.4451  0.2637 -0.6614
  100MOL   C15737975   5.751   7.949   1.182 -0.0161  0.6550  0.4421
  100MOL   O15837976   5.750   7.916   1.322  0.1001 -0.0212  0.1738
  100MOL   C15937977   5.776   8.012   1.419 -0.9336  0.0371  0.2462
  100MOL   C16037978   5.783   8.151   1.396  0.5504  0.9957  0.2189
  100MOL   C16137979   5.808   0.065   1.500 -0.3287 -0.1839 -0.3007
  100MOL   C16237980   5.822   0.020   1.631  0.1756 -0.1164  0.3668
  100MOL   C16337981   5.820   8.050   1.662  0.8453 -0.2874 -0.4790
  100MOL   C16437982   5.812   7.963   1.550  0.3609 -0.1101 -0.3794
  100MOL   H16537983   5.445   8.007   0.982  0.5993  0.7109 -2.2794
  100MOL   H16637984   5.569   7.839   1.156  0.9183 -0.4464 -2.8870
  100MOL   H16737985   5.792   8.047   1.158 -1.5023  1.7266  2.1419
  100MOL   H16837986   5.810   7.867   1.141 -1.0505  0.5230 -0.8225
  100MOL   H16937987   5.762   0.030   1.302 -0.8055  0.2829  0.1428
  100MOL   H17037988   5.817   0.172   1.487  0.7759 -0.1193  0.8914
  100MOL   H17137989   5.843   0.087   1.713  0.0514 -0.5266  0.7401
  100MOL   H17237990   5.824   8.019   1.766 -0.8381 -2.7115 -1.0841
  100MOL   C17337991   5.816   7.819   1.568 -0.1290  0.4050  0.3632
  100MOL   C17437992   5.750   7.721   1.672 -0.1316 -0.0890 -0.2040
  100MOL   O17537993   5.697   7.746   1.538  0.5501 -0.1447  0.3413
  100MOL   C17637994   5.655   7.760   1.781  0.3083 -0.2625  0.3988
  100MOL   O17737995   5.609   7.896   1.766 -1.0017  0.2524  0.1041
  100MOL   C17837996   5.504   7.930   1.844 -0.0835  0.8881  0.0961
  100MOL   C17937997   5.475   7.859   1.965  0.4748 -0.0150  0.4143
  100MOL   C18037998   5.353   7.880   2.031  1.0106 -0.2456 -0.2177
  100MOL   C18137999   5.259   7.973   1.979  0.1312  0.8331  0.3469
  100MOL   C18238000   5.290   8.044   1.866 -0.2497 -0.5536 -0.4804
  100MOL   C18338001   5.415   8.025   1.803 -0.1273 -0.5254  0.0768
  100MOL   H18438002   5.904   7.778   1.519 -0.2300 -1.8034  1.9605
  100MOL   H18538003   5.800   7.625   1.686  1.0212  0.2693 -1.6948
  100MOL   H18638004   5.706   7.752   1.877  1.0399  0.2486  0.0604
  100MOL   H18738005   5.572   7.690   1.780  0.8713 -0.9229 -0.7683
  100MOL   H18838006   5.542   7.786   2.007  1.7447 -0.4187 -2.2134
  100MOL   H18938007   5.314   7.830   2.118  1.0448  0.2444  0.0833
  100MOL   H19038008   5.162   7.995   2.020 -1.3382 -2.0312 -1.4063
  100MOL   H19138009   5.228   8.121   1.823  0.4444 -0.2209 -0.9100
  100MOL   C19238010   5.440   8.096   1.665 -0.7344  0.4893  0.6395
  100MOL   C19338011   5.369   8.072   1.543 -0.4118  0.7143 -0.3128
  100MOL   O19438012   5.339   0.021   1.616  0.5405  0.2574 -0.0194
  100MOL   C19538013   5.251   7.975   1.543  0.5062  0.7705 -0.6047
  100MOL   O19638014   5.193   7.952   1.415  0.7092 -0.1234  0.2244
  100MOL   C19738015   5.239   7.850   1.331  0.0874 -0.4360 -0.0421
  100MOL   C19838016   5.356   7.779   1.353 -0.5123 -0.2043 -0.2679
  100MOL   C19938017   5.401   7.683   1.260 -0.2693 -0.3641  0.4983
  100MOL   C20038018   5.323   7.645   1.150  0.2995  0.1849  0.5017
  100MOL   C20138019   5.214   7.728   1.121  0.0772  0.1999 -0.3183
  100MOL   C20238020   5.164   7.825   1.213  0.2861  0.1399  0.4595
  100MOL   H20338021   5.544   8.124   1.652 -1.5657  2.4009 -2.4464
  100MOL   H20438022   5.420   8.093   1.449  1.0900 -1.5239 -0.0294
  100MOL   H20538023   5.162   8.020   1.588 -0.7636 -0.8168 -1.4661
  100MOL   H20638024   5.279   7.879   1.586 -0.3138  1.9815  2.7537
  100MOL   H20738025   5.424   7.797   1.435 -1.0484  0.3176  0.0624
  100MOL   H20838026   5.499   7.639   1.277  0.7646  1.2862 -1.0444
  100MOL   H20938027   5.373   7.573   1.088  1.8440  0.3046  1.5816
  100MOL   H21038028   5.169   7.704   1.026 -0.6806 -2.0974  0.5867
  100MOL   C21138029   5.039   7.906   1.179  0.2732  0.1838 -0.5298
  100MOL   C21238030   5.042   8.054   1.147 -0.2308 -0.8297  0.3551
  100MOL   O21338031   5.035   7.955   1.043  0.0791  0.4404  0.1421
  100MOL   C21438032   5.158   8.144   1.133 -0.1394 -0.4859 -0.0590
  100MOL   O21538033   5.112   0.104   1.095  0.2848  0.5989  0.4882
  100MOL   C21638034   5.127   0.151   0.965  0.1718  0.2278  0.2592
  100MOL   C21738035   5.198   0.085   0.864 -0.6117 -0.1765  0.5352
  100MOL   C21838036   5.219   0.132   0.735 -0.0536  0.3543  0.1417
  100MOL   C21938037   5.163   0.255   0.708  0.0873  0.0519  0.3473
  100MOL   C22038038   5.084   0.317   0.797  0.1683  0.6641  0.4491
  100MOL   C22138039   5.060   0.269   0.927 -0.3413 -0.1265  0.2238
  100MOL   H22238040   4.944   7.860   1.207  0.6385 -0.0723  0.3018
  100MOL   H22338041   4.953   8.110   1.171  2.6217  3.4226  1.5277
  100MOL   H22438042   5.235   8.100   1.070  0.5947 -1.5532  1.5542
  100MOL   H22538043   5.205   8.159   1.230 -1.0403  0.4992  0.2346
  100MOL   H22638044   5.249   8.163   0.890 -0.2592 -0.1661 -0.0988
  100MOL   H22738045   5.271   0.072   0.662 -1.9497 -0.5444 -0.5072
  100MOL   H22838046   5.177   0.306   0.614 -0.2253 -1.9903 -0.8437
  100MOL   H22938047   5.046   0.417   0.782  1.7266  1.6618  2.8006
  100MOL   C23038048   4.976   0.342   1.029 -0.6723 -0.2632  0.3191
  100MOL   C23138049   5.021   0.435   1.143 -0.1743 -0.1882  0.3989
  100MOL   O23238050   4.976   0.487   1.014  0.2329  0.0479  0.0774
  100MOL   C23338051   5.166   0.460   1.166  0.2830 -0.6869  0.1798
  100MOL   O23438052   5.187   0.603   1.152  0.1052 -0.1145 -0.7741
  100MOL   C23538053   5.236   0.678   1.252  0.0629 -0.5966 -0.2445
  100MOL   C23638054   5.262   0.624   1.379  0.0977 -0.2494  0.2184
  100MOL   C23738055   5.307   0.706   1.478  0.0507 -0.3883  0.1197
  100MOL   C23838056   5.327   0.847   1.459  0.0306  0.2932  0.2883
  100MOL   C23938057   5.279   0.901   1.342  0.8457  0.0598 -0.1533
  100MOL   C24038058   5.237   0.818   1.243 -0.1044  0.1272 -0.0308
  100MOL   H24138059   4.879   0.297   1.048 -1.7360  0.7323 -2.5219
  100MOL   H24238060   4.955   0.435   1.230  0.0370 -1.7791  0.5781
  100MOL   H24338061   5.215   0.412   1.081 -0.2240  0.8433 -0.9947
  100MOL   H24438062   5.199   0.410   1.257 -0.6758  0.2884  1.0775
  100MOL   H24538063   5.253   0.521   1.411 -3.8424 -0.0484  0.0197
  100MOL   H24638064   5.332   0.662   1.573  0.4615  1.4030  0.8628
  100MOL   H24738065   5.362   0.912   1.538  2.4757 -1.5523  0.7980
  100MOL   H24838066   5.281   1.007   1.321  0.8934 -0.6250 -4.1424
  100MOL   C24938067   5.208   0.881   1.111 -0.0380 -0.0321  0.0016
  100MOL   C25038068   5.071   0.896   1.068  0.4570 -0.1283 -0.1073
  100MOL   O25138069   5.148   1.011   1.111  0.6540 -0.6057  0.5531
  100MOL   C25238070   4.956   0.863   1.162 -0.2977 -0.2803 -0.3688
  100MOL   O25338071   4.842   0.859   1.081 -0.1239 -0.1556  0.6538
  100MOL   C25438072   4.725   0.893   1.139 -0.1069 -0.5026  0.3951
  100MOL   C25538073   4.696   0.870   1.278 -0.1984 -0.5621  0.4281
  100MOL   C25638074   4.577   0.919   1.334  0.4893 -0.3433  0.0218
  100MOL   C25738075   4.482   0.978   1.247 -0.0829 -0.4270 -0.6407
  100MOL   C25838076   4.499   0.982   1.108 -0.2002  0.4321  0.5553
  100MOL   C25938077   4.619   0.943   1.049 -0.7315  0.0172  0.0399
  100MOL   H26038078   5.282   0.853   1.036 -0.2895 -0.6810 -0.0044
  100MOL   H26138079   5.047   0.879   0.963 -0.5443 -0.5180  0.1776
  100MOL   H26238080   4.947   0.938   1.241  3.1622  1.6935 -1.7361
  100MOL   H26338081   4.971   0.763   1.202  1.9711 -0.5110 -1.6812
  100MOL   H26438082   4.760   0.823   1.351  1.1106 -1.8478 -1.5088
  100MOL   H26538083   4.566   0.925   1.441  0.6342 -0.5275  0.0470
  100MOL   H26638084   4.394   1.028   1.282 -1.7566 -2.0435 -2.4157
  100MOL   H26738085   4.423   1.030   1.050 -1.3816 -2.1502 -0.1151
  100MOL   C26838086   4.644   0.957   0.897 -0.1242 -0.4019 -0.2768
  100MOL   C26938087   4.620   0.841   0.803  0.3934  0.2131  0.2215
  100MOL   O27038088   4.526   0.945   0.820  0.1149 -0.7161 -0.8845
  100MOL   C27138089   4.574   0.706   0.845 -0.6951 -0.8134 -0.4718
  100MOL   O27238090   4.480   0.646   0.757 -0.1165  0.5617  0.6317
  100MOL   C27338091   4.434   0.524   0.792 -0.0140  0.0140  0.5969
  100MOL   C27438092   4.480   0.408   0.723 -0.9678 -0.0714  0.1620
  100MOL   C27538093   4.440   0.285   0.770 -0.3794 -0.5022 -0.0450
  100MOL   C27638094   4.346   0.277   0.877 -0.3401 -0.3776 -0.8241
  100MOL   C27738095   4.282   0.387   0.936  0.5889 -0.6880  0.4085
  100MOL   C27838096   4.330   0.513   0.892  0.7019 -0.2334  1.0317
  100MOL   H27938097   4.720   1.027   0.864  0.3679 -0.8015  0.0005
  100MOL   H28038098   4.671   0.846   0.708  1.4789  3.6018  0.9162
  100MOL   H28138099   4.530   0.720   0.944  1.6338  1.0117  0.3637
  100MOL   H28238100   4.665   0.648   0.858 -0.4654 -0.0243  1.6963
  100MOL   H28338101   4.564   0.413   0.655 -0.2136  0.6565  1.1440
  100MOL   H28438102   4.488   0.192   0.743  0.6029  0.1431 -0.5268
  100MOL   H28538103   4.302   0.182   0.906 -3.1491  1.6160  1.6785
  100MOL   H28638104   4.216   0.367   1.020 -0.4744 -0.0591 -0.2597
  100MOL   C28738105   4.279   0.637   0.955 -0.8856 -0.0041 -0.2933
  100MOL   C28838106   4.227   0.752   0.877  0.0936 -0.4464  0.4059
  100MOL   O28938107   4.138   0.670   0.944 -0.2900 -0.5596 -0.4721
  100MOL   C29038108   4.200   0.751   0.731 -0.0641 -0.2298  0.0649
  100MOL   O29138109   4.136   0.871   0.698  0.0608 -0.1329 -1.0845
  100MOL   C29238110   4.054   0.877   0.586 -0.1832 -0.7592 -0.4541
  100MOL   C29338111   4.033   0.768   0.498 -0.1389  0.2036  0.0911
  100MOL   C29438112   3.941   0.782   0.395  0.2109  0.1261 -0.3019
  100MOL   C29538113   3.858   0.901   0.377 -0.0475  0.5689  0.7878
  100MOL   C29638114   3.879   1.011   0.467  0.2932  0.4369 -0.4328
  100MOL   C29738115   3.977   0.997   0.566  0.0803 -0.4754 -0.0072
  100MOL   H29838116   4.323   0.660   1.052  2.1312  2.2770 -2.1172
  100MOL   H29938117   4.237   0.852   0.919  2.0495 -0.1486 -0.6957
  100MOL   H30038118   4.133   0.666   0.715 -0.3450  0.5491 -3.3860
  100MOL   H30138119   4.287   0.732   0.667  2.6513  0.5889  3.3828
  100MOL   H30238120   4.085   0.675   0.508 -1.3686 -0.3590  1.4116
  100MOL   H30338121   3.926   0.699   0.327  1.5692 -1.8057  1.7155
  100MOL   H30438122   3.795   0.902   0.289  1.1027  0.1858 -0.0532
  100MOL   H30538123   3.817   1.097   0.445 -1.5034 -0.6233  0.3571
  100MOL   C30638124   4.000   1.119   0.664 -0.1545  0.2099  0.2277
  100MOL   C30738125   4.056   1.250   0.626 -0.1302 -0.2572 -0.1046
  100MOL   O30838126   3.912   1.233   0.639 -0.3931  0.1902 -0.0794
  100MOL   C30938127   4.121   1.256   0.489 -0.6063  0.5317  0.0914
  100MOL   O31038128   4.159   1.387   0.443  0.5708 -0.4286  0.2338
  100MOL   C31138129   4.077   1.450   0.355 -0.6016 -0.4888  0.4898
  100MOL   C31238130   3.936   1.422   0.359  0.0110 -0.2872 -0.0537
  100MOL   C31338131   3.842   1.496   0.279  0.5850  0.7029 -0.5479
  100MOL   C31438132   3.900   1.585   0.187  0.1061  0.1814  1.0765
  100MOL   C31538133   4.039   1.609   0.184  0.6984 -0.5275  0.4873
  100MOL   C31638134   4.129   1.551   0.274 -0.6160 -0.1896 -0.3001
  100MOL   H31738135   4.006   1.078   0.765  0.5965  1.4964  0.7146
  100MOL   H31838136   4.088   1.313   0.708 -1.2496  1.2034 -0.7595
  100MOL   H31938137   4.057   1.203   0.418  0.7011  1.1232 -1.5734
  100MOL   H32038138   4.206   1.189   0.480 -0.2163  1.4792 -4.9519
  100MOL   H32138139   3.900   1.352   0.433  0.0189  0.3278  0.5318
  100MOL   H32238140   3.739   1.465   0.280  0.0212  2.4482 -0.9944
  100MOL   H32338141   3.837   1.638   0.117  0.7751  2.1641  1.9222
  100MOL   H32438142   4.080   1.673   0.107  0.4119 -0.1316  0.6611
  100MOL   C32538143   4.277   1.581   0.276  0.5316  0.4221 -0.0291
  100MOL   C32638144   4.385   1.530   0.184 -0.6615  0.3659  0.2552
  100MOL   O32738145   4.329   1.660   0.173  0.2180  0.2661  0.2604
  100MOL   C32838146   4.361   1.447   0.058 -0.1160  0.7513 -0.8357
  100MOL   O32938147   4.241   1.372   0.032 -0.2443  0.1385 -0.2883
  100MOL   C33038148   4.214   1.249   0.085 -0.0264 -0.0597  0.3069
  100MOL   C33138149   4.311   1.194   0.168 -0.4750 -0.3128  0.4063
  100MOL   C33238150   4.284   1.069   0.229  0.2666  0.2107 -0.6772
  100MOL   C33338151   4.167   0.993   0.205  0.9735  0.2261 -0.8587
  100MOL   C33438152   4.064   1.057   0.131 -0.0523  0.1358  0.2193
  100MOL   C33538153   4.092   1.180   0.064  0.3702 -0.1608 -0.9238
  100MOL   H33638154   4.304   1.608   0.378  1.3761  3.1338 -0.9122
  100MOL   H33738155   4.485   1.534   0.227  0.1071 -0.4749 -1.4195
  100MOL   H33838156   4.450   1.389   0.037 -1.1387 -1.5730  0.9945
  100MOL   H33938157   4.354   1.513   8.141  1.2399  1.7720 -0.1799
  100MOL   H34038158   4.407   1.235   0.196  0.7243 -1.5849 -1.6818
  100MOL   H34138159   4.351   1.024   0.301  0.8466  1.7693 -0.2242
  100MOL   H34238160   4.151   0.903   0.261 -0.5525 -0.1129 -1.8027
  100MOL   H34338161   3.969   1.008   0.119  0.5850 -0.6408 -1.7654
  100MOL   C34438162   3.985   1.246   8.150 -0.6564 -0.5702  0.3870
  100MOL   C34538163   3.913   1.186   8.025  0.9351  0.2251  0.1379
  100MOL   O34638164   3.852   1.186   8.157  0.2401 -0.5542 -0.2029
  100MOL   C34738165   3.926   1.042   7.971 -0.3642  0.4503 -0.8295
  100MOL   O34838166   3.805   1.004   7.895 -0.2066 -0.5020 -0.1832
  100MOL   C34938167   3.801   0.876   7.843  0.0350  0.6080 -0.6335
  100MOL   C35038168   3.923   0.810   7.804  0.3364 -0.0288 -1.0754
  100MOL   C35138169   3.918   0.672   7.767  0.3813  0.1735  0.0969
  100MOL   C35238170   3.798   0.597   7.771 -0.4812 -0.2828 -0.6476
  100MOL   C35338171   3.679   0.668   7.802 -0.5403 -0.2000 -0.3164
  100MOL   C35438172   3.677   0.810   7.837  0.4439 -0.0440 -0.8964
  100MOL   H35538173   3.981   1.354   8.165 -0.8459 -0.6367  0.8145
  100MOL   H35638174   3.876   1.260   7.953  0.3775  1.8174  2.0147
  100MOL   H35738175   3.938   0.972   8.054 -3.6996  1.4046  0.5553
  100MOL   H35838176   4.019   1.029   7.917  0.8261  1.0961  1.0247
  100MOL   H35938177   4.019   0.858   7.797  0.6190 -0.2493  1.0958
  100MOL   H36038178   4.010   0.624   7.739 -0.1159 -0.3717 -0.6142
  100MOL   H36138179   3.803   0.489   7.759  0.3765 -0.5289  1.5030
  100MOL   H36238180   3.590   0.607   7.812 -0.8495  0.2800 -0.1328
  100MOL   C36338181   3.550   0.875   7.879  0.2249  0.4204 -0.0537
  100MOL   C36438182   3.499   1.011   7.846 -0.4833  0.2587  0.3546
  100MOL   O36538183   3.461   0.889   7.774 -0.1619  0.4308 -0.1404
  100MOL   C36638184   3.552   1.109   7.746  0.0847  0.2422 -0.4284
  100MOL   O36738185   3.434   1.189   7.702 -0.1819  0.3127  0.2788
  100MOL   C36838186   3.441   1.260   7.587  0.3001 -0.6165  0.1872
  100MOL   C36938187   3.563   1.305   7.538  0.4879  0.5090  0.4444
  100MOL   C37038188   3.567   1.369   7.410  0.3382  1.1117  0.3356
  100MOL   C37138189   3.451   1.387   7.337 -0.3893 -0.6502  0.0145
  100MOL   C37238190   3.326   1.348   7.386  0.2605 -0.5304 -0.3757
  100MOL   C37338191   3.323   1.282   7.511  0.1721  0.8933  0.4938
  100MOL   H37438192   3.511   0.831   7.971 -0.1759  1.6965  0.3962
  100MOL   H37538193   3.419   1.048   7.911 -1.6550  1.6532 -1.8277
  100MOL   H37638194   3.594   1.053   7.663 -0.5754 -3.2768  1.5203
  100MOL   H37738195   3.630   1.169   7.792 -0.3237  0.1663  0.3752
  100MOL   H37838196   3.655   1.272   7.585 -0.2182 -1.0716  0.7455
  100MOL   H37938197   3.662   1.387   7.362  1.7453  2.3941  3.4473
  100MOL   H38038198   3.459   1.405   7.230 -0.9769 -0.9975 -0.0931
  100MOL   H38138199   3.242   1.349   7.318  0.0516  0.3239 -0.1222
  100MOL   H38238200   3.233   1.230   7.540  0.5517 -0.7250 -1.1821
  101MOL     C138201   6.885   4.554   4.610  0.2103  0.1718  0.4371
  101MOL     C238202   6.799   4.470   4.699 -0.0707  0.2443  0.1417
  101MOL     O338203   6.753   4.594   4.642 -0.1022 -0.5143 -0.0379
  101MOL     C438204   6.792   4.468   4.846  0.4196  0.2940 -0.1536
  101MOL     O538205   6.691   4.381   4.894 -0.1680 -0.7808 -0.4166
  101MOL     C638206   6.647   4.389   5.024  0.0620  0.6046  0.1772
  101MOL     C738207   6.688   4.483   5.122  0.8215  0.2438  0.6373
  101MOL     C838208   6.621   4.485   5.247 -0.0872  0.1135 -0.1597
  101MOL     C938209   6.510   4.401   5.270  0.1748  0.2103  0.7023
  101MOL    C1038210   6.475   4.309   5.172 -0.4225  0.1219 -0.3624
  101MOL    C1138211   6.543   4.298   5.053 -0.3406  0.1872  0.2614
  101MOL    H1238212   6.899   4.511   4.510  0.9441 -1.0191  1.0434
  101MOL    H1338213   6.754   4.385   4.648  2.8485  0.4609 -3.0215
  101MOL    H1438214   6.782   4.572   4.876 -0.0197  0.9593 -2.4869
  101MOL    H1538215   6.887   4.423   4.875 -0.5057 -1.8451 -0.3102
  101MOL    H1638216   6.769   4.552   5.105 -0.0906  0.7654 -1.8160
  101MOL    H1738217   6.655   4.554   5.323  1.3751  1.1463 -1.6863
  101MOL    H1838218   6.462   4.409   5.366 -0.6641  1.1215  0.2084
  101MOL    H1938219   6.399   4.237   5.200 -1.5037  0.1113 -3.2074
  101MOL    H2038220   6.962   4.621   4.647  1.0579 -1.0770  0.9840
  101MOL    C2138221   6.491   4.200   4.949 -0.2998  0.4476 -0.2481
  101MOL    C2238222   6.544   4.054   4.945  0.0078  0.0675 -0.1792
  101MOL    O2338223   6.417   4.095   5.003 -0.1040  0.3171 -0.0054
  101MOL    C2438224   6.636   3.979   5.042  0.5527  0.4878  0.6595
  101MOL    O2538225   6.730   3.913   4.965 -0.1851  0.5682  0.3323
  101MOL    C2638226   6.855   3.967   4.940 -0.2570  0.4293  0.2588
  101MOL    C2738227   6.873   4.102   4.972 -0.3165  1.0413  0.0128
  101MOL    C2838228   6.994   4.160   4.929 -0.2112  0.1309  0.1047
  101MOL    C2938229   7.100   4.078   4.872  0.6217  0.5205  0.2569
  101MOL    C3038230   7.082   3.939   4.860  0.2226 -0.3019  0.5349
  101MOL    C3138231   6.957   3.881   4.890  0.4376  0.1438 -0.0007
  101MOL    H3238232   6.456   4.239   4.854  2.2976 -0.0738 -1.4724
  101MOL    H3338233   6.518   4.000   4.855 -1.6342 -1.3699  1.1301
  101MOL    H3438234   6.587   3.891   5.082 -1.8704 -0.5730 -4.2155
  101MOL    H3538235   6.678   4.046   5.117 -0.7310  0.4734  1.4042
  101MOL    H3638236   6.792   4.168   4.998 -0.4005  1.1450 -0.5049
  101MOL    H3738237   7.024   4.262   4.949  1.6274 -0.4209  0.3084
  101MOL    H3838238   7.196   4.119   4.845  1.5005 -0.5026  1.7645
  101MOL    H3938239   7.161   3.875   4.823  0.3501  0.6088 -0.7809
  101MOL    C4038240   6.929   3.730   4.874 -0.7204  0.0373  0.0365
  101MOL    C4138241   6.871   3.668   4.746 -0.6283  0.0697  0.5991
  101MOL    O4238242   7.008   3.673   4.772 -0.1251  0.0167 -0.5061
  101MOL    C4338243   6.832   3.744   4.618 -0.2215  1.5797 -0.6733
  101MOL    O4438244   6.860   3.656   4.506  0.2793 -0.1768 -0.1228
  101MOL    C4538245   6.766   3.559   4.469 -0.3011 -0.0369  0.2083
  101MOL    C4638246   6.633   3.554   4.519  0.4058 -0.0548  0.5654
  101MOL    C4738247   6.548   3.447   4.478 -0.1745  0.6220 -0.3695
  101MOL    C4838248   6.602   3.350   4.400 -0.0867 -0.0578  0.1108
  101MOL    C4938249   6.734   3.350   4.346  0.5143 -0.3542  0.1522
  101MOL    C5038250   6.817   3.456   4.384 -0.5937  0.2195 -1.7083
  101MOL    H5138251   6.921   3.668   4.963 -0.2055  0.6936  0.5452
  101MOL    H5238252   6.825   3.572   4.768  2.3315 -1.5151  0.1158
  101MOL    H5338253   6.889   3.837   4.618 -0.9467  2.0294 -0.0072
  101MOL    H5438254   6.729   3.779   4.624 -0.6710  0.1747  0.2169
  101MOL    H5538255   6.591   3.630   4.584  0.4177  0.8299 -0.4468
  101MOL    H5638256   6.448   3.439   4.518  0.7918  1.7927  2.4032
  101MOL    H5738257   6.538   3.267   4.375 -0.9290  0.0446  1.8333
  101MOL    H5838258   6.757   3.274   4.273  0.7505  0.6347 -0.8110
  101MOL    C5938259   6.955   3.468   4.332  0.3586 -0.3014  0.1660
  101MOL    C6038260   7.081   3.423   4.408 -0.4222 -0.0186 -0.2931
  101MOL    O6138261   7.013   3.339   4.307  0.0642  0.7093  0.3952
  101MOL    C6238262   7.077   3.375   4.552  0.1226 -0.1630  0.3188
  101MOL    O6338263   7.205   3.340   4.604  0.1485  0.3665 -0.4021
  101MOL    C6438264   7.218   3.325   4.748 -0.6258 -0.2550 -0.4064
  101MOL    C6538265   7.100   3.317   4.829 -0.3539 -0.3109 -0.4958
  101MOL    C6638266   7.121   3.315   4.972 -0.2753 -0.6776  0.1215
  101MOL    C6738267   7.251   3.314   5.026 -0.3256  0.5984  0.3824
  101MOL    C6838268   7.365   3.315   4.939 -1.2226 -0.2230 -0.6239
  101MOL    C6938269   7.347   3.323   4.803  0.3681  0.4634  0.4492
  101MOL    H7038270   6.977   3.551   4.265  0.3212 -3.0623 -3.4218
  101MOL    H7138271   7.166   3.480   4.370 -0.7332 -1.0569 -2.6789
  101MOL    H7238272   7.003   3.295   4.548 -1.6038  1.3744  1.1187
  101MOL    H7338273   7.044   3.464   4.604  0.5779 -0.6079  1.3807
  101MOL    H7438274   7.002   3.314   4.784 -0.1427  0.0001 -0.9803
  101MOL    H7538275   7.035   3.299   5.035 -0.8283 -0.4840 -0.5732
  101MOL    H7638276   7.251   3.289   5.131  1.8142 -0.0147  0.2628
  101MOL    H7738277   7.467   3.314   4.974 -1.5802 -2.2129  0.4740
  101MOL    C7838278   7.474   3.326   4.716  0.0315  0.1273  0.0553
  101MOL    C7938279   7.514   3.451   4.643  0.1051  0.2529  0.1666
  101MOL    O8038280   7.565   3.418   4.765 -0.5841 -0.1410 -0.7257
  101MOL    C8138281   7.424   3.575   4.628 -0.7224  0.0489  1.0480
  101MOL    O8238282   7.467   3.658   4.522  0.2450  0.1314 -0.0611
  101MOL    C8338283   7.566   3.744   4.556 -0.6567 -0.2896  0.1799
  101MOL    C8438284   7.663   3.725   4.661  0.0263  0.0734  0.3769
  101MOL    C8538285   7.751   3.830   4.692  0.3069  0.0582 -0.3061
  101MOL    C8638286   7.759   3.939   4.610 -0.1507  0.0897  0.5359
  101MOL    C8738287   7.681   3.953   4.497 -0.2904 -0.8919 -0.6921
  101MOL    C8838288   7.578   3.862   4.474 -0.1922  0.5080 -0.0968
  101MOL    H8938289   7.524   3.231   4.700 -0.0285 -0.0852  1.1494
  101MOL    H9038290   7.591   3.446   4.566  0.7461 -0.0454  0.8209
  101MOL    H9138291   7.408   3.644   4.711 -1.0025 -0.6503  1.5908
  101MOL    H9238292   7.324   3.535   4.613  0.1279 -2.5300  1.9519
  101MOL    H9338293   7.658   3.647   4.735 -1.7670  0.4810  0.6880
  101MOL    H9438294   7.809   3.822   4.783  1.1208 -0.0338 -0.8294
  101MOL    H9538295   7.846   3.999   4.631  0.7579 -1.2038  0.4845
  101MOL    H9638296   7.688   4.036   4.428  1.6827 -1.8030 -1.6326
  101MOL    C9738297   7.488   3.889   4.359 -0.0702 -0.6714 -0.2349
  101MOL    C9838298   7.343   3.895   4.366  0.2343  0.6257  0.1017
  101MOL    O9938299   7.426   4.014   4.380 -0.3688 -0.2098  0.3338
  101MOL   C10038300   7.261   3.877   4.490 -0.4938 -0.3351 -0.3282
  101MOL   O10138301   7.152   3.965   4.502 -0.6577 -0.6322 -0.9291
  101MOL   C10238302   7.041   3.945   4.422  0.3827 -0.7895 -0.7455
  101MOL   C10338303   7.016   3.838   4.327 -0.3316  0.4123 -0.1471
  101MOL   C10438304   6.900   3.831   4.244 -0.3293 -0.0400 -0.0234
  101MOL   C10538305   6.805   3.932   4.270  0.4194  0.1274  0.8669
  101MOL   C10638306   6.829   4.034   4.367  0.1052 -0.6268 -0.2258
  101MOL   C10738307   6.943   4.036   4.443  0.4226 -0.2426 -1.1293
  101MOL   H10838308   7.533   3.883   4.260  2.0473 -1.8906  0.7454
  101MOL   H10938309   7.289   3.886   4.272 -0.7630 -0.7545  0.7922
  101MOL   H11038310   7.323   3.890   4.578  2.8080  0.0485 -2.6052
  101MOL   H11138311   7.227   3.774   4.493 -0.4584 -0.3814 -1.2812
  101MOL   H11238312   7.082   3.756   4.303  0.4442  0.6207  1.2465
  101MOL   H11338313   6.889   3.748   4.176 -0.5744  0.3062 -0.4096
  101MOL   H11438314   6.713   3.939   4.214  1.7714 -0.4915 -1.5141
  101MOL   H11538315   6.745   4.097   4.393  1.2594  0.8472 -0.0466
  101MOL   C11638316   6.948   4.138   4.556 -0.3523 -0.1060  0.3463
  101MOL   C11738317   7.053   4.247   4.579  0.0856  0.4177  0.6655
  101MOL   O11838318   6.929   4.270   4.503 -0.1788  0.2905 -0.0343
  101MOL   C11938319   7.179   4.256   4.491 -0.4102  0.5375  0.3408
  101MOL   O12038320   7.255   4.381   4.494  0.1407  0.2672 -0.1709
  101MOL   C12138321   7.220   4.485   4.410  0.0120 -0.0996  0.9233
  101MOL   C12238322   7.137   4.472   4.293  0.2811 -0.0152 -0.1288
  101MOL   C12338323   7.104   4.593   4.220 -0.3763 -0.1422 -0.3601
  101MOL   C12438324   7.157   4.716   4.252  0.1010  0.6851 -0.2283
  101MOL   C12538325   7.238   4.725   4.366  0.4218 -0.3857  0.1125
  101MOL   C12638326   7.266   4.613   4.445  0.2693  0.2228  0.4932
  101MOL   H12738327   6.894   4.109   4.646 -0.7771 -1.6064 -0.3784
  101MOL   H12838328   7.057   4.289   4.679 -2.0637  3.3511 -0.4031
  101MOL   H12938329   7.161   4.218   4.391  2.6656  0.5115 -0.2746
  101MOL   H13038330   7.255   4.190   4.534  1.4888  1.9237 -0.7657
  101MOL   H13138331   7.085   4.382   4.264  1.7191 -1.1122  0.6389
  101MOL   H13238332   7.052   4.585   4.126  0.9807  1.4369 -1.2782
  101MOL   H13338333   7.126   4.795   4.186 -0.6366 -0.8775 -1.8064
  101MOL   H13438334   7.277   4.821   4.396 -0.2380 -0.8588  2.6419
  101MOL   C13538335   7.337   4.632   4.577 -0.0641  0.0457  0.3541
  101MOL   C13638336   7.492   4.648   4.596  0.2686  0.0252  0.2352
  101MOL   O13738337   7.404   4.763   4.602 -0.0380 -0.7113  0.3006
  101MOL   C13838338   7.579   4.628   4.477  1.2357 -0.4635 -0.1277
  101MOL   O13938339   7.714   4.635   4.517 -0.0062  1.0940  0.2319
  101MOL   C14038340   7.775   4.526   4.583  0.7154 -0.4075  0.5254
  101MOL   C14138341   7.708   4.402   4.617  0.5394  0.0105  0.0794
  101MOL   C14238342   7.782   4.298   4.678  0.4434 -0.2874  0.3830
  101MOL   C14338343   7.921   4.321   4.690  0.6307  0.4079  0.3851
  101MOL   C14438344   7.987   4.440   4.667 -0.6681  0.2852  0.3690
  101MOL   C14538345   7.913   4.547   4.610 -0.5476  0.7103 -0.1952
  101MOL   H14638346   7.277   4.584   4.653  1.4373 -1.7336  0.4483
  101MOL   H14738347   7.530   4.609   4.691 -1.6603  0.8033  1.3608
  101MOL   H14838348   7.556   4.708   4.408  1.0469 -0.1486  0.2980
  101MOL   H14938349   7.557   4.532   4.429  2.2081 -0.7433 -0.0221
  101MOL   H15038350   7.601   4.391   4.604  0.5426  0.3501 -0.2516
  101MOL   H15138351   7.734   4.204   4.701  0.6310 -0.5992 -0.4922
  101MOL   H15238352   7.984   4.238   4.719 -0.4743 -0.3813  0.5495
  101MOL   H15338353   8.089   4.442   4.703 -1.3385 -2.4017  2.5868
  101MOL   C15438354   7.981   4.678   4.588 -0.2198 -0.5849  0.0891
  101MOL   C15538355   8.000   4.784   4.696 -0.1258 -0.0375 -0.3208
  101MOL   O15638356   8.101   4.696   4.661  0.8048 -0.1970  0.4672
  101MOL   C15738357   7.971   4.769   4.852 -0.1363 -0.6509  0.4400
  101MOL   O15838358   8.068   4.855   4.914  0.1776 -0.0617  0.5049
  101MOL   C15938359   8.053   4.993   4.935 -0.1850  0.6338 -0.0777
  101MOL   C16038360   7.934   5.059   4.899 -0.0720  0.5439 -0.2288
  101MOL   C16138361   7.934   5.202   4.906 -0.0428  1.0147 -0.4801
  101MOL   C16238362   8.035   5.281   4.970 -0.1850 -0.0416 -0.0005
  101MOL   C16338363   8.150   5.206   5.009 -0.4696 -0.3855 -0.0968
  101MOL   C16438364   8.159   5.064   4.989  0.2370  0.4452  0.5081
  101MOL   H16538365   7.984   4.716   4.486 -1.4388 -0.6505  0.0155
  101MOL   H16638366   8.026   4.886   4.669  0.9508  0.0657  1.0640
  101MOL   H16738367   7.966   4.662   4.872 -2.5646 -0.9080 -1.3403
  101MOL   H16838368   7.873   4.807   4.880 -1.0436 -2.8888  0.3622
  101MOL   H16938369   7.847   5.006   4.864 -0.2698  0.3075  0.6167
  101MOL   H17038370   7.839   5.244   4.876 -2.1172 -2.1617  1.1989
  101MOL   H17138371   8.040   5.387   4.991 -0.6952 -0.3825  1.9088
  101MOL   H17238372   0.057   5.264   5.057 -1.1342 -0.0755  0.5971
  101MOL   C17338373   0.112   4.989   5.026 -0.1078  0.2164  0.6457
  101MOL   C17438374   0.242   5.006   4.956 -0.4503  0.3366  1.4230
  101MOL   O17538375   0.219   5.073   5.078 -0.3526  0.0696  0.7163
  101MOL   C17638376   0.268   5.107   4.840  0.2813  0.3214  0.3930
  101MOL   O17738377   0.282   5.042   4.722 -0.2587  0.4382 -0.6316
  101MOL   C17838378   0.345   5.092   4.609 -0.0418 -0.3228  0.2713
  101MOL   C17938379   0.420   5.206   4.606 -1.0825  0.2309  0.7663
  101MOL   C18038380   0.479   5.249   4.489  0.1824 -0.4585  0.4122
  101MOL   C18138381   0.461   5.171   4.371  0.1303 -0.5324  0.1652
  101MOL   C18238382   0.385   5.059   4.366  0.4747  0.2962 -0.2358
  101MOL   C18338383   0.325   5.017   4.488 -0.2926  1.2495  0.0264
  101MOL   H18438384   0.103   4.893   5.077  3.0922 -0.0118  0.8779
  101MOL   H18538385   0.300   4.914   4.959 -0.8140  0.1437  2.5900
  101MOL   H18638386   0.362   5.156   4.866 -1.5901  3.4763  1.4370
  101MOL   H18738387   0.188   5.181   4.833  1.3040  1.2892 -1.2098
  101MOL   H18838388   0.446   5.258   4.697 -1.0565  0.2001  0.7771
  101MOL   H18938389   0.551   5.329   4.486  0.6516 -0.8367  1.3794
  101MOL   H19038390   0.509   5.215   4.285  0.7406 -0.4484  0.5459
  101MOL   H19138391   0.379   5.003   4.274  0.8064 -1.0118  0.5132
  101MOL   C19238392   0.236   4.899   4.493  0.4835  0.2803 -0.1617
  101MOL   C19338393   0.090   4.911   4.473  0.4227  0.0384 -0.2478
  101MOL   O19438394   0.173   4.872   4.362  0.0289  0.3694 -0.3885
  101MOL   C19538395   0.017   5.049   4.461  0.5122 -0.2360  0.1926
  101MOL   O19638396   8.040   5.040   4.456  0.1342 -0.1725  0.0211
  101MOL   C19738397   7.972   4.978   4.347 -0.1822  0.1347 -0.0679
  101MOL   C19838398   8.045   4.955   4.226  0.7182  0.1123 -0.8956
  101MOL   C19938399   7.987   4.894   4.115  0.5131 -0.1346 -0.2627
  101MOL   C20038400   7.855   4.872   4.112  0.3765  0.5822  0.0265
  101MOL   C20138401   7.779   4.899   4.231 -0.2388 -0.0332  0.0128
  101MOL   C20238402   7.834   4.949   4.350 -0.0393  0.3347  1.1660
  101MOL   H20338403   0.291   4.814   4.534  0.2724  0.7468  1.1127
  101MOL   H20438404   0.041   4.820   4.509 -1.0386  0.7699 -0.3249
  101MOL   H20538405   0.048   5.095   4.367 -2.8919  0.0050 -0.8569
  101MOL   H20638406   0.055   5.120   4.535  3.2992 -1.0412 -0.3839
  101MOL   H20738407   8.151   4.972   4.217  0.7962 -0.4252 -0.9846
  101MOL   H20838408   8.054   4.851   4.041 -1.0750  2.8142 -3.5479
  101MOL   H20938409   7.802   4.822   4.032 -1.0505  0.3729  1.0786
  101MOL   H21038410   7.673   4.881   4.238 -0.6001  2.4223  1.4356
  101MOL   C21138411   7.738   4.969   4.471  0.1387  0.1977 -0.2928
  101MOL   C21238412   7.632   5.077   4.485  0.0702 -0.0734 -0.4736
  101MOL   O21338413   7.598   4.957   4.426  0.1391  0.0501 -0.2301
  101MOL   C21438414   7.636   5.206   4.397  0.0057  0.9702 -0.1103
  101MOL   O21538415   7.620   5.331   4.465 -0.1768 -0.0406 -0.2479
  101MOL   C21638416   7.734   5.386   4.527  0.9464 -0.1492  0.5065
  101MOL   C21738417   7.852   5.320   4.560  0.0983  0.8171 -0.6244
  101MOL   C21838418   7.966   5.398   4.598 -0.0313  0.3992  0.2678
  101MOL   C21938419   7.953   5.532   4.614  0.4763  0.6058 -0.4519
  101MOL   C22038420   7.827   5.596   4.603 -0.4338  0.3522  0.3614
  101MOL   C22138421   7.716   5.522   4.559 -0.0119  0.1774  0.6607
  101MOL   H22238422   7.772   4.917   4.560  1.6494 -0.4152 -1.1951
  101MOL   H22338423   7.604   5.091   4.589 -1.7506 -0.8315 -0.8328
  101MOL   H22438424   7.547   5.203   4.334 -0.8708  1.9355  1.0700
  101MOL   H22538425   7.723   5.206   4.331 -2.2406  0.5059 -3.2040
  101MOL   H22638426   7.866   5.214   4.545  1.0538  0.7491  0.6942
  101MOL   H22738427   8.061   5.355   4.624  0.3494  1.8798  1.4200
  101MOL   H22838428   8.037   5.584   4.657  1.8117 -2.1048  0.3675
  101MOL   H22938429   7.810   5.693   4.647 -1.6604 -0.3287  1.4559
  101MOL   C23038430   7.586   5.587   4.534  0.4344  0.0994  0.0221
  101MOL   C23138431   7.501   5.656   4.642 -0.7994 -0.3806 -0.1877
  101MOL   O23238432   7.584   5.730   4.556  0.1986 -0.5408  0.2888
  101MOL   C23338433   7.533   5.675   4.786  0.0394 -0.0339  0.5252
  101MOL   O23438434   7.416   5.738   4.834  0.9690  0.3190 -0.3130
  101MOL   C23538435   7.432   5.836   4.928  0.1224 -0.1669 -0.4209
  101MOL   C23638436   7.528   5.831   5.036  0.7681  0.0930 -0.2807
  101MOL   C23738437   7.527   5.920   5.146  0.6674  0.2445 -0.3346
  101MOL   C23838438   7.434   6.030   5.141 -0.3782  0.7443  0.2247
  101MOL   C23938439   7.352   6.041   5.026  0.0840 -0.2156  0.5032
  101MOL   C24038440   7.341   5.945   4.928 -0.9257 -0.8033 -0.0567
  101MOL   H24138441   7.541   5.552   4.442  0.5099  0.0784 -0.0076
  101MOL   H24238442   7.398   5.673   4.611 -0.9648 -0.5154  0.3011
  101MOL   H24338443   7.623   5.735   4.796 -1.4875  1.8624  3.4020
  101MOL   H24438444   7.551   5.581   4.839  1.5711  0.0643  0.2165
  101MOL   H24538445   7.594   5.748   5.058  0.8904  0.6279  1.4600
  101MOL   H24638446   7.620   5.925   5.202 -0.0095 -1.0070  0.9452
  101MOL   H24738447   7.428   6.097   5.226  0.9770 -1.0469  1.7894
  101MOL   H24838448   7.290   6.129   5.020  0.7302  0.3658  1.9531
  101MOL   C24938449   7.244   5.955   4.808  1.2201 -0.6469  0.5199
  101MOL   C25038450   7.095   5.919   4.802  0.0166 -0.2377 -0.0183
  101MOL   O25138451   7.139   6.055   4.827  0.4638 -0.1225 -0.0728
  101MOL   C25238452   7.023   5.858   4.919  0.5891 -0.0815 -0.5194
  101MOL   O25338453   6.889   5.891   4.918  0.5578  0.0565  0.2098
  101MOL   C25438454   6.841   5.997   4.994  0.2372 -0.0737 -0.8427
  101MOL   C25538455   6.925   6.079   5.074 -0.4476 -0.1916  0.0018
  101MOL   C25638456   6.866   6.176   5.156  0.3981 -0.3073  0.5167
  101MOL   C25738457   6.725   6.190   5.170  0.4043  0.0199 -0.3352
  101MOL   C25838458   6.645   6.108   5.086 -0.4159 -0.2205 -0.1155
  101MOL   C25938459   6.698   6.010   4.997 -0.0657  0.1536 -0.0173
  101MOL   H26038460   7.284   5.963   4.707 -2.7099 -1.8752 -1.2793
  101MOL   H26138461   7.043   5.909   4.707  1.8674 -0.9769 -0.9836
  101MOL   H26238462   7.067   5.885   5.015 -0.7250 -1.4528  0.4987
  101MOL   H26338463   7.054   5.753   4.924  0.0698 -0.1747  0.9305
  101MOL   H26438464   7.033   6.076   5.071 -0.4962 -1.0750 -1.5976
  101MOL   H26538465   6.926   6.242   5.218  0.4172 -0.2274  0.4123
  101MOL   H26638466   6.689   6.269   5.236 -0.7970 -1.0905  0.3527
  101MOL   H26738467   6.538   6.116   5.085 -0.6698 -2.9515  0.6355
  101MOL   C26838468   6.620   5.922   4.912  0.3396  0.7491 -0.4198
  101MOL   C26938469   6.569   5.784   4.944  0.5045 -0.4929 -0.0373
  101MOL   O27038470   6.486   5.901   4.959 -0.4074 -0.1436  0.3450
  101MOL   C27138471   6.561   5.704   5.071 -0.4055 -0.5978 -0.0176
  101MOL   O27238472   6.648   5.589   5.080  0.2159 -0.7542  0.0120
  101MOL   C27338473   6.758   5.591   5.159  0.1130 -0.3733 -0.7994
  101MOL   C27438474   6.803   5.704   5.226 -0.2238 -0.0764  0.3193
  101MOL   C27538475   6.916   5.700   5.313 -0.2056 -0.5683 -0.1230
  101MOL   C27638476   6.984   5.581   5.342 -0.5278 -0.4165 -0.2115
  101MOL   C27738477   6.942   5.465   5.273  0.3635  0.8055 -0.3532
  101MOL   C27838478   6.834   5.476   5.179  0.1098 -0.2605 -0.3425
  101MOL   H27938479   6.627   5.947   4.806  0.7469 -1.2279 -0.8893
  101MOL   H28038480   6.544   5.728   4.854  0.9164  0.4496 -0.7485
  101MOL   H28138481   6.457   5.671   5.076 -1.1365  1.1366 -2.5161
  101MOL   H28238482   6.559   5.770   5.158  0.0588 -0.7268  0.0924
  101MOL   H28338483   6.754   5.800   5.216  0.8959  0.4275 -0.3861
  101MOL   H28438484   6.952   5.787   5.365 -1.0660  1.1188 -2.2658
  101MOL   H28538485   7.072   5.576   5.404 -1.3233  1.1297  1.0795
  101MOL   H28638486   6.996   5.372   5.281 -1.0312  0.0449  0.4789
  101MOL   C28738487   6.803   5.355   5.097  0.4549 -0.1259  0.2557
  101MOL   C28838488   6.901   5.290   4.998  0.6023 -0.2089 -0.3861
  101MOL   O28938489   6.875   5.242   5.132 -0.1315 -0.2049 -0.3324
  101MOL   C29038490   7.039   5.340   4.966 -0.0324  0.1227  0.2777
  101MOL   O29138491   7.130   5.231   4.970  0.5550 -0.2818  0.0123
  101MOL   C29238492   7.259   5.250   4.934 -0.0719 -0.1855  0.5841
  101MOL   C29338493   7.283   5.302   4.805 -0.1811 -0.1525  0.1158
  101MOL   C29438494   7.412   5.312   4.759  0.1619  0.3315 -0.3815
  101MOL   C29538495   7.522   5.277   4.838 -0.5009 -0.1187 -0.0294
  101MOL   C29638496   7.502   5.231   4.970 -0.3641  0.1392  0.7580
  101MOL   C29738497   7.368   5.211   5.017 -0.1066 -0.3995 -0.1526
  101MOL   H29838498   6.697   5.337   5.080 -0.1043  3.8597 -0.9435
  101MOL   H29938499   6.851   5.232   4.920  1.9133  0.2102 -1.5808
  101MOL   H30038500   7.074   5.411   5.041 -1.3134  0.3986  0.6353
  101MOL   H30138501   7.044   5.396   4.872  0.6432 -0.3583  0.0201
  101MOL   H30238502   7.204   5.321   4.735  0.2919 -2.9704 -1.2728
  101MOL   H30338503   7.428   5.345   4.657  0.6514 -2.1211 -1.1208
  101MOL   H30438504   7.621   5.280   4.796 -0.5852 -1.2704 -0.3218
  101MOL   H30538505   7.586   5.191   5.024 -1.2661 -2.3134  0.4390
  101MOL   C30638506   7.334   5.147   5.144 -0.1284  0.3347 -0.6359
  101MOL   C30738507   7.371   5.005   5.186 -0.1612 -0.3786 -0.0172
  101MOL   O30838508   7.449   5.118   5.230  0.3558  0.5060  0.0952
  101MOL   C30938509   7.457   4.897   5.107 -0.7695 -0.0548  0.1239
  101MOL   O31038510   7.364   4.803   5.064 -0.4013 -0.3080  0.0101
  101MOL   C31138511   7.411   4.684   5.006  0.1067 -0.2095  0.9205
  101MOL   C31238512   7.543   4.663   4.975  0.0097 -0.4056  0.3139
  101MOL   C31338513   7.582   4.542   4.925  0.4013  0.0602  0.8170
  101MOL   C31438514   7.492   4.441   4.890  0.0830  0.0157  0.3148
  101MOL   C31538515   7.354   4.462   4.917  0.5783  0.1639 -0.4184
  101MOL   C31638516   7.314   4.582   4.981  0.4877  0.4994 -0.1932
  101MOL   H31738517   7.263   5.207   5.200 -0.0197  0.6324 -0.8166
  101MOL   H31838518   7.300   4.964   5.258 -0.2272 -1.4308 -0.6771
  101MOL   H31938519   7.527   4.861   5.183 -0.9547 -0.4549  0.1044
  101MOL   H32038520   7.509   4.936   5.020 -1.0236 -0.2510 -0.1156
  101MOL   H32138521   7.623   4.735   4.977 -0.6482  0.3486 -0.2775
  101MOL   H32238522   7.690   4.532   4.926  0.2944 -1.5713 -1.3481
  101MOL   H32338523   7.532   4.352   4.845 -0.1532  0.0425  0.0480
  101MOL   H32438524   7.280   4.386   4.896 -1.0802  1.1990  1.5262
  101MOL   C32538525   7.166   4.610   5.020  0.5016  0.2389 -0.0407
  101MOL   C32638526   7.074   4.718   4.946 -0.4662  0.3811  0.7400
  101MOL   O32738527   7.079   4.579   4.900 -0.0200  0.1463 -1.0770
  101MOL   C32838528   7.128   4.819   4.856 -0.2336  0.2779  0.3170
  101MOL   O32938529   7.026   4.866   4.779 -0.2746 -0.3916  0.0818
  101MOL   C33038530   7.062   4.941   4.663 -0.0827  0.1590  0.2474
  101MOL   C33138531   7.193   4.993   4.652  1.1358 -0.1020 -0.3528
  101MOL   C33238532   7.239   5.062   4.535  0.3176 -0.1618 -0.6752
  101MOL   C33338533   7.152   5.073   4.427 -0.0805  0.0129 -0.4140
  101MOL   C33438534   7.024   5.021   4.431 -0.1186  1.0751  0.0816
  101MOL   C33538535   6.977   4.960   4.552 -0.2436 -0.6754  0.4404
  101MOL   H33638536   7.131   4.556   5.108 -0.5852 -1.0276 -1.2110
  101MOL   H33738537   6.974   4.735   4.985 -1.8018 -1.8678 -1.5145
  101MOL   H33838538   7.197   4.775   4.784 -0.0397  2.1503 -0.6858
  101MOL   H33938539   7.172   4.903   4.910  1.6057  1.6926 -3.1399
  101MOL   H34038540   7.265   4.983   4.732  1.5540 -0.1219 -0.7250
  101MOL   H34138541   7.338   5.103   4.522  1.3968 -1.9403  1.4445
  101MOL   H34238542   7.177   5.115   4.330 -0.4868  0.5754 -0.2822
  101MOL   H34338543   6.969   5.024   4.338 -0.1095  1.0888  0.0764
  101MOL   C34438544   6.845   4.891   4.551 -0.5257 -0.4242  0.1314
  101MOL   C34538545   6.726   4.912   4.655  0.2805 -1.1380 -0.2025
  101MOL   O34638546   6.726   4.976   4.529  0.5110  0.4192  0.5217
  101MOL   C34738547   6.736   4.997   4.777 -0.4869  0.4856  0.1617
  101MOL   O34838548   6.609   5.038   4.831  1.1505  0.0979 -0.4099
  101MOL   C34938549   6.556   5.168   4.814 -0.7738  0.1231 -0.0835
  101MOL   C35038550   6.610   5.261   4.723  0.2299  0.8685 -0.7081
  101MOL   C35138551   6.542   5.384   4.713  0.4647  0.2906 -0.4611
  101MOL   C35238552   6.435   5.423   4.789  0.0182 -0.2176  0.6061
  101MOL   C35338553   6.383   5.330   4.878 -0.4317  0.4097  0.1527
  101MOL   C35438554   6.446   5.204   4.892  0.1485  0.8643  0.6416
  101MOL   H35538555   6.853   4.802   4.490  1.9197  1.4166 -2.3480
  101MOL   H35638556   6.636   4.851   4.658 -0.1626 -0.4247  1.8829
  101MOL   H35738557   6.807   5.078   4.756 -0.1335  0.5396  1.5183
  101MOL   H35838558   6.776   4.932   4.855 -0.3713  1.0278  0.5646
  101MOL   H35938559   6.698   5.236   4.666  1.3132  1.0179  0.8637
  101MOL   H36038560   6.578   5.457   4.642  0.6284  0.4367 -0.2299
  101MOL   H36138561   6.394   5.523   4.780  0.7080 -0.0556 -0.9171
  101MOL   H36238562   6.305   5.360   4.947 -0.3902  2.2904 -0.5731
  101MOL   C36338563   6.375   5.102   4.981  0.3519 -0.7003  0.0142
  101MOL   C36438564   6.415   5.060   5.118 -0.0946 -0.1764  0.4541
  101MOL   O36538565   6.308   5.156   5.094 -0.6217  0.4176  0.2564
  101MOL   C36638566   6.521   5.126   5.197 -0.0346  0.3992 -0.3570
  101MOL   O36738567   6.522   5.067   5.327  0.3453  0.5199  0.7683
  101MOL   C36838568   6.577   5.134   5.438  0.0888 -0.3287  0.3195
  101MOL   C36938569   6.559   5.071   5.563 -0.1669  0.0689  0.2447
  101MOL   C37038570   6.617   5.130   5.676  0.6079  0.8623 -0.2582
  101MOL   C37138571   6.700   5.243   5.666  0.1492 -0.0470  0.2589
  101MOL   C37238572   6.709   5.307   5.540 -0.5660  0.2662  0.1901
  101MOL   C37338573   6.653   5.255   5.424  0.2713  0.1514  0.3016
  101MOL   H37438574   6.302   5.046   4.923  0.6945  0.9097 -2.0309
  101MOL   H37538575   6.376   4.961   5.140  0.7003 -0.3533  1.0925
  101MOL   H37638576   6.495   5.231   5.211 -1.8886 -0.1062  0.0698
  101MOL   H37738577   6.616   5.108   5.147 -0.4704  1.0642 -1.4525
  101MOL   H37838578   6.498   4.985   5.584  1.9731 -1.6071 -0.1502
  101MOL   H37938579   6.602   5.087   5.774 -0.0720  0.0661 -0.7039
  101MOL   H38038580   6.748   5.281   5.754 -0.2698  2.3703 -0.5130
  101MOL   H38138581   6.775   5.393   5.543 -0.0794  0.0553 -2.9686
  101MOL   H38238582   6.689   5.296   5.331 -0.1569 -0.6968 -0.2485
  102MOL     C138583   1.345   6.558   7.047  0.2904 -0.3833  0.3717
  102MOL     C238584   1.396   6.533   6.910 -0.6747  0.2007 -0.3754
  102MOL     O338585   1.373   6.667   6.957  0.4039 -0.0868 -0.2674
  102MOL     C438586   1.308   6.469   6.800 -0.0344  0.0171 -0.1206
  102MOL     O538587   1.339   6.499   6.660  0.2896  0.2127  0.2692
  102MOL     C638588   1.312   6.614   6.595  0.0395 -0.5707 -0.2988
  102MOL     C738589   1.255   6.725   6.665  0.2280 -0.1719 -0.1934
  102MOL     C838590   1.234   6.848   6.597  0.4283  0.0094  0.6438
  102MOL     C938591   1.272   6.858   6.461  0.1174  0.3105 -0.2292
  102MOL    C1038592   1.323   6.748   6.393  0.0354 -0.7017 -0.0597
  102MOL    C1138593   1.342   6.624   6.459  0.3079 -0.0005  0.0393
  102MOL    H1238594   1.413   6.550   7.132  1.1105  0.1405 -0.2217
  102MOL    H1338595   1.501   6.508   6.898 -0.5972 -0.3417  1.3387
  102MOL    H1438596   1.204   6.497   6.817 -0.7707 -2.5562 -0.1910
  102MOL    H1538597   1.313   6.362   6.819  1.6229  0.3339  1.4215
  102MOL    H1638598   1.242   6.723   6.772 -1.6416 -0.1623 -0.4018
  102MOL    H1738599   1.204   6.938   6.648  2.0324  1.0289 -0.1451
  102MOL    H1838600   1.259   6.952   6.411  2.5847  1.3986  1.0978
  102MOL    H1938601   1.356   6.755   6.290  0.4613  1.8002  0.2209
  102MOL    H2038602   1.239   6.563   7.069  0.2741 -2.3782  0.9119
  102MOL    C2138603   1.383   6.499   6.388  0.1269 -0.2588  0.2571
  102MOL    C2238604   1.286   6.384   6.359 -0.0273 -0.4981 -0.0913
  102MOL    O2338605   1.308   6.488   6.267  0.1226 -0.4257  0.1404
  102MOL    C2438606   1.155   6.370   6.426 -0.2951  0.6064  0.2257
  102MOL    O2538607   1.067   6.287   6.357  0.0521 -0.2837  0.2088
  102MOL    C2638608   0.972   6.355   6.281  0.1327  0.6331  0.1323
  102MOL    C2738609   0.989   6.486   6.225  0.2082 -0.5075  0.2533
  102MOL    C2838610   0.887   6.541   6.142  0.0105  0.5161 -0.5227
  102MOL    C2938611   0.773   6.467   6.113  0.0911  0.1409 -0.3101
  102MOL    C3038612   0.759   6.334   6.167 -0.0980 -0.1224  0.0172
  102MOL    C3138613   0.861   6.276   6.244 -0.1296 -0.4356  0.2732
  102MOL    H3238614   1.491   6.487   6.392 -0.0808 -1.9368  1.3386
  102MOL    H3338615   1.325   6.288   6.326 -1.0290 -0.4413 -1.5194
  102MOL    H3438616   1.121   6.472   6.447  1.1389  1.1093  0.1947
  102MOL    H3538617   1.160   6.319   6.522  1.9477 -0.5552 -0.4739
  102MOL    H3638618   1.083   6.537   6.239  0.8175 -1.0998 -1.4997
  102MOL    H3738619   0.903   6.635   6.091  1.4618  1.2434  1.2206
  102MOL    H3838620   0.696   6.492   6.042  0.4104 -1.0431 -1.0959
  102MOL    H3938621   0.659   6.296   6.159 -1.1641  2.0245  2.2506
  102MOL    C4038622   0.852   6.144   6.311 -0.7949 -0.0780  0.0963
  102MOL    C4138623   0.826   6.098   6.452  0.0973  0.2881  0.1159
  102MOL    O4238624   0.721   6.094   6.341 -0.2042  0.5457 -0.3030
  102MOL    C4338625   0.807   6.204   6.565  0.7007  0.1803 -0.4721
  102MOL    O4438626   0.817   6.151   6.698 -0.5122 -0.5464 -0.4630
  102MOL    C4538627   0.941   6.116   6.750  0.1964  0.1406  0.2627
  102MOL    C4638628   1.063   6.107   6.677  0.1962  0.0748  0.9258
  102MOL    C4738629   1.180   6.062   6.741 -0.4668  0.0318 -0.0614
  102MOL    C4838630   1.175   6.041   6.876 -0.4488 -1.7924 -0.2231
  102MOL    C4938631   1.053   6.058   6.953 -0.5066  0.6003  0.4197
  102MOL    C5038632   0.934   6.090   6.886  0.2236  0.4697  0.0186
  102MOL    H5138633   0.914   6.081   6.248  1.0202  1.3481  0.4075
  102MOL    H5238634   0.861   5.999   6.481  0.3262  1.0964  2.6787
  102MOL    H5338635   0.706   6.243   6.553  0.1766 -0.9359  0.2734
  102MOL    H5438636   0.881   6.283   6.549  0.0725  0.7937 -0.3886
  102MOL    H5538637   1.080   6.134   6.573 -1.4107  0.4753  0.7592
  102MOL    H5638638   1.269   6.040   6.683  0.3013  0.8553  0.7779
  102MOL    H5738639   1.264   6.020   6.933  0.6700  2.3190 -0.2995
  102MOL    H5838640   1.059   6.026   7.056  0.9342 -0.1722  0.1002
  102MOL    C5938641   0.801   6.093   6.957 -0.3065  0.0162 -0.0383
  102MOL    C6038642   0.694   5.992   6.940 -0.9550 -0.3622 -0.4718
  102MOL    O6138643   0.788   5.988   7.047  0.3594 -0.4443 -0.2522
  102MOL    C6238644   0.702   5.872   6.846 -0.0217 -0.7402 -0.3509
  102MOL    O6338645   0.590   5.870   6.766  0.3173  0.4584 -0.2285
  102MOL    C6438646   0.471   5.836   6.820 -0.0900  0.5546 -0.2152
  102MOL    C6538647   0.456   5.775   6.949 -0.2175 -0.0735 -0.0233
  102MOL    C6638648   0.332   5.752   7.008 -0.2498 -0.2485  0.4933
  102MOL    C6738649   0.220   5.770   6.927  0.3190  1.3853 -0.5811
  102MOL    C6838650   0.232   5.806   6.791 -0.0408  0.1418 -0.8395
  102MOL    C6938651   0.357   5.841   6.738 -0.2653 -0.5761  0.5918
  102MOL    H7038652   0.769   6.196   6.971 -0.0491  0.3853 -2.1352
  102MOL    H7138653   0.595   6.017   6.978 -0.2130  1.5493  0.3180
  102MOL    H7238654   0.705   5.775   6.895 -0.5210  0.3941  1.9997
  102MOL    H7338655   0.797   5.883   6.794  1.1615  0.6260  2.0168
  102MOL    H7438656   0.535   5.749   7.017 -0.5427  0.9090  0.7588
  102MOL    H7538657   0.331   5.710   7.108  0.3427  1.3371  1.1964
  102MOL    H7638658   0.128   5.742   6.977  0.5050  1.6248 -0.1010
  102MOL    H7738659   0.151   5.798   6.721 -0.2862 -0.6814 -0.4702
  102MOL    C7838660   0.371   5.904   6.601  0.3174 -0.2810  0.5533
  102MOL    C7938661   0.415   5.835   6.470 -0.0974 -0.7748 -1.3214
  102MOL    O8038662   0.276   5.864   6.498 -0.0938 -0.5297 -0.6223
  102MOL    C8138663   0.460   5.696   6.461 -0.1456  0.2126 -0.7663
  102MOL    O8238664   0.457   5.643   6.334  0.0322  0.4412  0.0178
  102MOL    C8338665   0.549   5.686   6.239 -0.0424  0.0006  0.7353
  102MOL    C8438666   0.667   5.754   6.260 -0.3390  0.2959  0.1879
  102MOL    C8538667   0.750   5.799   6.154 -0.2953 -0.8114 -0.0543
  102MOL    C8638668   0.699   5.781   6.024 -0.0120 -0.6835  0.5268
  102MOL    C8738669   0.590   5.703   6.005 -0.3947 -0.2659  1.1276
  102MOL    C8838670   0.507   5.655   6.111  0.1400 -0.2265  0.5414
  102MOL    H8938671   0.392   6.010   6.613  1.7196 -0.5223  0.2882
  102MOL    H9038672   0.463   5.897   6.394 -3.7035  0.4612 -2.6581
  102MOL    H9138673   0.399   5.640   6.533  1.3119 -0.4971 -0.0705
  102MOL    H9238674   0.562   5.684   6.496  0.0303  0.3100 -1.2507
  102MOL    H9338675   0.706   5.767   6.360  1.0677 -4.3688  0.3792
  102MOL    H9438676   0.842   5.850   6.179 -1.4095  1.8209 -1.1802
  102MOL    H9538677   0.759   5.803   5.938  0.3379  2.1968  1.4632
  102MOL    H9638678   0.570   5.672   5.903 -1.7605  1.3668  0.8808
  102MOL    C9738679   0.391   5.562   6.086 -0.4586 -0.7273 -0.4456
  102MOL    C9838680   0.248   5.599   6.087  0.1784  0.0969  0.1719
  102MOL    O9938681   0.322   5.610   5.969  0.2245 -0.1244  0.0430
  102MOL   C10038682   0.205   5.729   6.151  0.4420 -0.2072 -0.4918
  102MOL   O10138683   0.101   5.715   6.249 -0.0969 -0.1309  0.2107
  102MOL   C10238684   0.014   5.819   6.262 -0.2675  0.2933  0.2894
  102MOL   C10338685   0.058   5.950   6.232  0.5084 -0.1523 -0.3864
  102MOL   C10438686   8.148   6.060   6.213  0.4656 -0.4588  0.9587
  102MOL   C10538687   8.014   6.039   6.234 -0.1204 -0.7801  0.0194
  102MOL   C10638688   7.958   5.914   6.273  0.3138  0.2591 -0.0310
  102MOL   C10738689   8.047   5.806   6.287 -0.7319 -0.1572  0.0478
  102MOL   H10838690   0.424   5.459   6.072  0.8235 -0.6552  1.7416
  102MOL   H10938691   0.176   5.518   6.084 -0.4915  0.6530  0.9429
  102MOL   H11038692   0.161   5.771   6.060  1.4294  2.1920  0.0801
  102MOL   H11138693   0.286   5.781   6.203 -0.2087 -1.1306  1.4928
  102MOL   H11238694   0.163   5.967   6.211  0.6988 -2.5424 -1.5865
  102MOL   H11338695   0.015   6.159   6.191 -0.2766 -0.1627  1.0346
  102MOL   H11438696   7.951   6.126   6.229 -0.3170 -0.9625 -0.6807
  102MOL   H11538697   7.852   5.903   6.289 -0.1644  2.6420 -1.4302
  102MOL   C11638698   7.995   5.673   6.341  0.2009 -0.0457 -0.6208
  102MOL   C11738699   8.013   5.640   6.482  0.0428  0.2056  0.5488
  102MOL   O11838700   7.884   5.687   6.428 -0.0521  0.3631 -0.5507
  102MOL   C11938701   8.093   5.735   6.561 -0.5809  0.0942  0.7091
  102MOL   O12038702   8.108   5.714   6.705  0.0686 -0.9573 -0.2132
  102MOL   C12138703   8.137   5.589   6.755  0.4351 -0.3671  0.1540
  102MOL   C12238704   0.072   5.509   6.704 -0.2192  0.2615 -0.0761
  102MOL   C12338705   0.094   5.380   6.754 -0.2698 -0.2929  0.6016
  102MOL   C12438706   0.016   5.326   6.859  0.3517 -0.4120  0.1659
  102MOL   C12538707   8.084   5.406   6.914  0.2403 -0.1722 -0.2385
  102MOL   C12638708   8.061   5.532   6.856  1.3448  0.7480  0.1022
  102MOL   H12738709   7.981   5.599   6.262 -0.4841  1.8307 -2.3298
  102MOL   H12838710   8.018   5.536   6.512  0.1833  0.2135  0.5532
  102MOL   H12938711   8.043   5.832   6.555 -1.0542 -0.2126 -0.4422
  102MOL   H13038712   0.026   5.741   6.527 -0.9151 -0.1023 -0.3516
  102MOL   H13138713   0.133   5.533   6.618  0.7900 -2.8150 -0.2941
  102MOL   H13238714   0.183   5.333   6.715  0.0117  0.1135  0.7489
  102MOL   H13338715   0.027   5.224   6.892 -0.8018 -0.8500 -0.7659
  102MOL   H13438716   8.018   5.367   6.989 -0.0207  1.8200  0.5894
  102MOL   C13538717   7.966   5.624   6.921 -0.0231  0.4994  0.2854
  102MOL   C13638718   7.820   5.641   6.873  0.3366  0.4884 -0.3663
  102MOL   O13738719   7.856   5.540   6.973 -0.6953 -0.3915  0.2067
  102MOL   C13838720   7.743   5.593   6.752  0.5008 -0.2407 -0.2815
  102MOL   O13938721   7.664   5.700   6.706 -0.1329 -0.1282  0.4713
  102MOL   C14038722   7.531   5.704   6.739 -0.0793 -0.7940  0.5701
  102MOL   C14138723   7.440   5.593   6.730 -0.1730  0.1187 -0.5241
  102MOL   C14238724   7.308   5.608   6.773 -0.9880 -0.4293 -0.1420
  102MOL   C14338725   7.267   5.730   6.828 -0.1690 -0.0440 -0.4708
  102MOL   C14438726   7.345   5.843   6.833 -0.4632  0.4069 -0.5009
  102MOL   C14538727   7.480   5.827   6.795 -0.2469 -0.0612 -0.3937
  102MOL   H14638728   8.008   5.685   7.000  0.9601 -1.1753  1.0879
  102MOL   H14738729   7.766   5.719   6.926 -0.3101 -1.4217  1.8338
  102MOL   H14838730   7.689   5.500   6.770  0.8942 -0.3965  0.1058
  102MOL   H14938731   7.815   5.556   6.679  0.2734  0.8246 -1.0535
  102MOL   H15038732   7.479   5.495   6.705  1.6288  0.6994 -0.0576
  102MOL   H15138733   7.239   5.525   6.765 -1.3279 -0.1758  0.1587
  102MOL   H15238734   7.162   5.732   6.854 -0.4785 -1.2857 -1.5328
  102MOL   H15338735   7.310   5.940   6.867  1.7788  1.6464 -1.6061
  102MOL   C15438736   7.571   5.950   6.803 -0.2221  0.0250 -0.5280
  102MOL   C15538737   7.622   6.031   6.680 -0.5285  0.1076 -0.0267
  102MOL   O15638738   7.511   6.071   6.764 -0.1787 -0.3361 -0.5198
  102MOL   C15738739   7.591   5.995   6.540 -0.3951 -0.6151  0.2047
  102MOL   O15838740   7.562   6.117   6.469 -0.1820  0.5511 -0.0319
  102MOL   C15938741   7.603   6.124   6.336 -0.2487 -0.1149 -0.3812
  102MOL   C16038742   7.599   6.012   6.250  0.1522 -0.1942  0.2400
  102MOL   C16138743   7.637   6.039   6.114 -0.7976 -0.1959 -0.3227
  102MOL   C16238744   7.670   6.168   6.067  0.1636 -0.0472 -0.4588
  102MOL   C16338745   7.677   6.274   6.161  0.1822 -0.3767 -1.1191
  102MOL   C16438746   7.636   6.259   6.294 -0.0806  0.8885 -0.1535
  102MOL   H16538747   7.628   5.950   6.895 -2.0155 -1.9885  0.6548
  102MOL   H16638748   7.716   6.081   6.699  0.3236 -2.2293  2.2252
  102MOL   H16738749   7.506   5.927   6.534 -0.8358  0.0840 -1.9311
  102MOL   H16838750   7.664   5.930   6.492  0.3517  0.0880  0.3852
  102MOL   H16938751   7.571   5.913   6.285  0.3384 -0.1400  0.5480
  102MOL   H17038752   7.637   5.967   6.033  2.1713 -1.4243  0.6977
  102MOL   H17138753   7.707   6.187   5.967  0.8514 -1.3104 -0.4545
  102MOL   H17238754   7.703   6.372   6.125  0.0801  0.2352  0.4648
  102MOL   C17338755   7.635   6.373   6.389  0.4531 -0.1418 -0.4867
  102MOL   C17438756   7.733   6.394   6.503 -0.1251  0.1058  0.1439
  102MOL   O17538757   7.748   6.452   6.372 -0.4370 -0.2004  0.2091
  102MOL   C17638758   7.841   6.296   6.544  0.0136  0.0837  0.0870
  102MOL   O17738759   7.862   6.311   6.687 -0.2689 -0.0976  0.7258
  102MOL   C17838760   7.948   6.222   6.751 -0.0549 -0.4196 -0.5266
  102MOL   C17938761   8.012   6.107   6.697 -0.4968 -0.3973 -0.3220
  102MOL   C18038762   8.093   6.035   6.779  0.3284  0.5354 -0.9593
  102MOL   C18138763   8.118   6.071   6.913 -1.0816  0.5335 -0.2447
  102MOL   C18238764   8.062   6.188   6.962  0.4972 -0.3090  0.2974
  102MOL   C18338765   7.972   6.263   6.881 -0.0030 -0.1019 -0.3588
  102MOL   H18438766   7.540   6.426   6.387  0.6140  0.1671  0.2808
  102MOL   H18538767   7.703   6.467   6.578  1.1097  1.2235 -0.4253
  102MOL   H18638768   7.933   6.321   6.493 -0.6820  1.5919 -0.4618
  102MOL   H18738769   7.811   6.196   6.512 -0.3775 -0.4535  2.0510
  102MOL   H18838770   8.001   6.073   6.595 -0.6950  1.9771 -1.1275
  102MOL   H18938771   8.126   5.941   6.737  0.9406 -0.2043  1.1318
  102MOL   H19038772   0.015   6.011   6.973 -0.3719 -0.0828 -1.6104
  102MOL   H19138773   8.092   6.222   7.060 -0.3084 -0.2541  0.5287
  102MOL   C19238774   7.909   6.392   6.933 -0.4061  0.3854  0.4555
  102MOL   C19338775   7.777   6.393   7.012 -0.1605 -0.1636 -0.5862
  102MOL   O19438776   7.902   6.393   7.073  0.2373  0.8430 -0.0304
  102MOL   C19538777   7.695   6.276   7.048 -0.4891 -0.3047  0.2558
  102MOL   O19638778   7.584   6.289   7.134  0.0009  0.1190  0.5999
  102MOL   C19738779   7.560   6.192   7.230  0.2548 -0.2365 -0.6355
  102MOL   C19838780   7.654   6.107   7.288 -0.0302  0.8112  0.1054
  102MOL   C19938781   7.621   6.013   7.379 -0.0946  0.7273 -0.7995
  102MOL   C20038782   7.492   6.002   7.420  0.9036  0.5630 -0.2957
  102MOL   C20138783   7.392   6.091   7.376  0.0753  0.3090 -0.2422
  102MOL   C20238784   7.424   6.183   7.274 -0.4175  0.7460 -0.5567
  102MOL   H20338785   7.966   6.479   6.902  0.5368 -0.3384  0.1083
  102MOL   H20438786   7.731   6.492   7.011 -1.0803 -0.5632  0.4113
  102MOL   H20538787   7.751   6.185   7.070  0.9430  0.6330  0.5103
  102MOL   H20638788   7.650   6.250   6.952  1.3220 -2.1653 -0.1255
  102MOL   H20738789   7.758   6.128   7.268  0.6633 -1.6522  0.9654
  102MOL   H20838790   7.694   5.949   7.427 -0.7535 -0.2066 -1.0340
  102MOL   H20938791   7.466   5.921   7.486  1.3885  0.5189 -0.1629
  102MOL   H21038792   7.288   6.089   7.405  0.0739  0.6139 -0.2209
  102MOL   C21138793   7.317   6.275   7.225  0.3025  0.1609 -0.5579
  102MOL   C21238794   7.254   6.282   7.093  0.2045 -0.6046 -0.3893
  102MOL   O21338795   7.194   6.205   7.195 -0.5217 -0.0867  0.2546
  102MOL   C21438796   7.319   6.211   6.980 -0.3190 -0.3573  0.1224
  102MOL   O21538797   7.219   6.184   6.886  0.3529 -0.3236  0.3521
  102MOL   C21638798   7.182   6.267   6.784 -0.0131 -0.2091 -0.1246
  102MOL   C21738799   7.233   6.399   6.771 -0.2845 -0.4291 -0.7734
  102MOL   C21838800   7.183   6.474   6.665  0.3937  0.5334 -0.1255
  102MOL   C21938801   7.077   6.432   6.583 -0.8659 -0.3429 -0.5574
  102MOL   C22038802   7.035   6.304   6.602  0.1265  0.3611  0.5794
  102MOL   C22138803   7.085   6.215   6.694 -0.1425  0.1773 -0.5130
  102MOL   H22238804   7.304   6.364   7.286  1.4500  0.4613 -0.7597
  102MOL   H22338805   7.188   6.361   7.061 -0.5782 -1.7003 -1.5513
  102MOL   H22438806   7.361   6.114   7.007 -1.9050 -1.8431 -2.4897
  102MOL   H22538807   7.401   6.272   6.940  0.5634 -2.7165 -1.8479
  102MOL   H22638808   7.308   6.444   6.834  1.8305 -3.5436 -0.9533
  102MOL   H22738809   7.218   6.573   6.640 -1.7816  1.8179  1.8188
  102MOL   H22838810   7.036   6.506   6.515  0.5496 -0.5344 -1.6335
  102MOL   H22938811   6.948   6.277   6.543  1.2794  1.4151 -1.6951
  102MOL   C23038812   7.024   6.076   6.718 -0.1037 -0.5794 -0.6639
  102MOL   C23138813   6.970   6.017   6.850 -0.0659 -0.0779 -0.4382
  102MOL   O23238814   6.885   6.072   6.749  0.1593 -0.0570 -0.2836
  102MOL   C23338815   6.969   6.097   6.979  0.1577 -0.2924 -0.7034
  102MOL   O23438816   6.842   6.068   7.048  0.1777 -0.0387 -0.0843
  102MOL   C23538817   6.820   5.955   7.124  0.3126 -0.0391 -0.4621
  102MOL   C23638818   6.916   5.856   7.125 -0.1828  0.4975 -0.7502
  102MOL   C23738819   6.898   5.742   7.205 -0.1685  0.2477 -0.4244
  102MOL   C23838820   6.785   5.731   7.280  0.2940 -0.3671 -0.5031
  102MOL   C23938821   6.689   5.832   7.290  0.1686  0.5816 -0.0429
  102MOL   C24038822   6.702   5.944   7.207  0.1271  0.3497 -0.0206
  102MOL   H24138823   7.074   5.995   6.665  0.4040  0.0866 -1.2243
  102MOL   H24238824   6.966   5.909   6.851  0.5586 -0.0904  0.6519
  102MOL   H24338825   6.979   6.205   6.975 -0.8739 -0.1520  0.1526
  102MOL   H24438826   7.053   6.067   7.041  0.1142  2.5656  0.8086
  102MOL   H24538827   7.012   5.848   7.077  0.8789 -0.5947  1.4872
  102MOL   H24638828   6.976   5.667   7.207  0.7609  1.2132  0.5689
  102MOL   H24738829   6.783   5.652   7.354  0.5653 -0.2849 -0.4068
  102MOL   H24838830   6.618   5.828   7.371 -1.5300  2.8392 -1.3594
  102MOL   C24938831   6.600   6.047   7.190  0.2511  0.2797 -0.8901
  102MOL   C25038832   6.465   6.023   7.133 -0.3178  0.0773  0.0993
  102MOL   O25138833   6.485   6.009   7.269 -0.1485  0.4651 -0.4535
  102MOL   C25238834   6.418   5.891   7.077  0.3934  0.0491  0.1617
  102MOL   O25338835   6.413   5.890   6.930 -0.5025  0.0967  0.1370
  102MOL   C25438836   6.520   5.841   6.863  0.4634  0.4817 -0.7250
  102MOL   C25538837   6.624   5.763   6.916 -0.1832  0.5918 -0.3274
  102MOL   C25638838   6.741   5.732   6.844 -1.0401  0.2809 -0.6882
  102MOL   C25738839   6.735   5.743   6.706 -0.1209  0.4987 -0.3245
  102MOL   C25838840   6.628   5.816   6.646  0.1725  0.0816 -0.1309
  102MOL   C25938841   6.519   5.861   6.723  0.1618  0.2955 -0.1346
  102MOL   H26038842   6.633   6.145   7.222 -0.7312  0.4650 -0.4165
  102MOL   H26138843   6.405   6.108   7.101  0.2854  1.3612  2.2357
  102MOL   H26238844   6.313   5.877   7.102  0.3279  0.4413  0.1075
  102MOL   H26338845   6.456   5.801   7.127  0.8856  0.1919  0.0456
  102MOL   H26438846   6.617   5.743   7.022 -0.3810  0.4625 -0.3641
  102MOL   H26538847   6.817   5.671   6.891 -1.5021 -0.5242 -0.9626
  102MOL   H26638848   6.816   5.710   6.644 -1.7456  0.0957 -2.3002
  102MOL   H26738849   6.621   5.853   6.545 -2.1300  1.1153  0.3942
  102MOL   C26838850   6.404   5.933   6.660 -0.2132 -0.0212 -0.4047
  102MOL   C26938851   6.393   6.083   6.633 -1.0803  0.6909  0.4976
  102MOL   O27038852   6.424   5.990   6.527 -0.0174 -0.1937  0.2380
  102MOL   C27138853   6.509   6.172   6.667  0.6536  0.2660  0.2156
  102MOL   O27238854   6.455   6.291   6.714 -0.0681 -0.7889  0.2841
  102MOL   C27338855   6.537   6.403   6.732 -0.5210  0.6742 -0.2842
  102MOL   C27438856   6.676   6.395   6.723 -0.0322  0.4550 -0.1600
  102MOL   C27538857   6.755   6.510   6.742  0.3700  0.1880 -0.0760
  102MOL   C27638858   6.698   6.630   6.754  0.5543  0.1751  0.3136
  102MOL   C27738859   6.561   6.648   6.756 -0.1867 -0.0887 -0.3410
  102MOL   C27838860   6.479   6.532   6.751 -0.1458 -0.3233  0.3306
  102MOL   H27938861   6.312   5.874   6.666  1.3532 -2.5535 -0.7181
  102MOL   H28038862   6.299   6.137   6.621 -0.9295  1.6881  3.4475
  102MOL   H28138863   6.566   6.184   6.575  0.8491  0.1777  0.3257
  102MOL   H28238864   6.574   6.123   6.739 -1.9636 -2.3683  0.8759
  102MOL   H28338865   6.734   6.310   6.692  0.4452  1.5377 -2.3114
  102MOL   H28438866   6.863   6.503   6.731  0.4074 -0.1393  0.4450
  102MOL   H28538867   6.757   6.720   6.753 -0.8986  1.1540  0.7865
  102MOL   H28638868   6.515   6.746   6.765 -2.3786 -1.0579 -0.8414
  102MOL   C28738869   6.330   6.549   6.768  0.7151 -0.7024 -0.2981
  102MOL   C28838870   6.262   6.519   6.894 -0.3627  0.2074  0.6132
  102MOL   O28938871   6.293   6.651   6.862 -0.1310  0.5686  0.2132
  102MOL   C29038872   6.327   6.453   7.008  0.4124 -0.0426 -1.0230
  102MOL   O29138873   6.272   6.494   7.127 -0.2415 -0.3701 -0.1485
  102MOL   C29238874   6.151   6.442   7.175 -0.3171  0.9896  0.0559
  102MOL   C29338875   6.094   6.326   7.120  0.3018  0.6717  0.0367
  102MOL   C29438876   5.971   6.275   7.172  0.1511 -0.0183  0.3725
  102MOL   C29538877   5.915   6.332   7.287 -0.3800 -0.1994 -0.0829
  102MOL   C29638878   5.976   6.443   7.343  0.2983  1.0047 -0.0899
  102MOL   C29738879   6.097   6.502   7.290 -0.3570  0.1257 -0.5756
  102MOL   H29838880   6.283   6.555   6.671 -1.3958 -1.6880  0.6296
  102MOL   H29938881   6.156   6.497   6.877  0.2524 -1.4440 -1.2973
  102MOL   H30038882   6.432   6.484   6.999 -0.3831  2.2358 -3.1618
  102MOL   H30138883   6.321   6.345   6.994 -0.4097 -0.2133  0.5867
  102MOL   H30238884   6.137   6.266   7.041  2.0547 -0.0315  1.4700
  102MOL   H30338885   5.921   6.186   7.136 -2.8491  1.4276  0.8607
  102MOL   H30438886   5.822   6.297   7.328  0.3385  0.1006  1.8543
  102MOL   H30538887   5.917   6.490   7.421 -1.9885 -0.5141 -0.8459
  102MOL   C30638888   6.160   6.625   7.360  0.4481  0.1631  0.0586
  102MOL   C30738889   6.165   6.761   7.292  0.6003  0.4847  0.0476
  102MOL   O30838890   6.056   6.722   7.375  0.1029  0.0409  0.0801
  102MOL   C30938891   6.131   6.784   7.146 -0.3978  0.0516  0.7047
  102MOL   O31038892   6.055   6.907   7.148  0.3295  0.8579  0.2426
  102MOL   C31138893   6.002   6.957   7.035 -0.3254 -0.1408 -0.7704
  102MOL   C31238894   6.070   6.944   6.910 -0.5133 -0.5664  0.0384
  102MOL   C31338895   6.023   7.002   6.794  0.1771 -0.1621  0.4833
  102MOL   C31438896   5.896   7.064   6.804  0.2755 -0.8048  0.5679
  102MOL   C31538897   5.819   7.071   6.926  0.0720  0.6169  0.5827
  102MOL   C31638898   5.873   7.020   7.042 -0.8132 -0.1528  0.4931
  102MOL   H31738899   6.218   6.597   7.448  0.6637  0.4448  0.0049
  102MOL   H31838900   6.240   6.827   7.335  1.4902  0.0474 -0.8231
  102MOL   H31938901   6.078   6.700   7.102  0.6613  1.1111 -2.7525
  102MOL   H32038902   6.228   6.806   7.102  0.5539 -1.8947  1.7499
  102MOL   H32138903   6.167   6.898   6.893 -0.4262  0.0630 -1.1992
  102MOL   H32238904   6.073   7.001   6.698 -0.0305  2.1883  0.3313
  102MOL   H32338905   5.858   7.114   6.716  0.7811 -0.2157  0.6811
  102MOL   H32438906   5.720   7.114   6.932  0.1098  0.5163  2.1742
  102MOL   C32538907   5.807   7.028   7.173  0.4051 -0.3692  0.0859
  102MOL   C32638908   5.779   7.163   7.244 -0.6703  0.0777 -0.3110
  102MOL   O32738909   5.679   7.089   7.178 -0.1213  0.2652  0.2616
  102MOL   C32838910   5.809   7.295   7.179 -0.2286  0.1218  0.0801
  102MOL   O32938911   5.755   7.411   7.239 -0.0111 -0.0313  0.1177
  102MOL   C33038912   5.798   7.447   7.367  0.7919  0.3761  0.1676
  102MOL   C33138913   5.926   7.431   7.409  0.1604 -0.6392  0.0487
  102MOL   C33238914   5.967   7.488   7.529  0.1024  0.0101  0.0783
  102MOL   C33338915   5.874   7.563   7.611 -0.1323  0.0464 -0.1118
  102MOL   C33438916   5.743   7.577   7.568 -0.4782  0.1663  0.3629
  102MOL   C33538917   5.703   7.515   7.446 -0.3782  0.2001 -0.3534
  102MOL   H33638918   5.817   6.936   7.230 -1.5734 -0.1791  0.7939
  102MOL   H33738919   5.779   7.166   7.353 -3.8114  1.2482 -0.3188
  102MOL   H33838920   5.764   7.297   7.080 -0.8314  3.7722  0.3657
  102MOL   H33938921   5.918   7.299   7.167 -0.1142 -1.5132  0.5334
  102MOL   H34038922   5.999   7.372   7.355 -2.1219 -0.1575 -3.7149
  102MOL   H34138923   6.069   7.470   7.556  0.0670  0.7514  0.7411
  102MOL   H34238924   5.910   7.630   7.688 -3.1230  1.7790 -0.1383
  102MOL   H34338925   5.673   7.638   7.622  2.3587  3.3815  0.5275
  102MOL   C34438926   5.565   7.531   7.397  0.4801 -0.4883  0.2131
  102MOL   C34538927   5.459   7.422   7.384 -0.2526 -0.4663 -0.5243
  102MOL   O34638928   5.465   7.512   7.499  0.9859  0.5252 -0.5073
  102MOL   C34738929   5.489   7.274   7.415  0.4227  0.4995  0.8326
  102MOL   O34838930   5.380   7.211   7.473 -0.0135 -0.6384 -0.1381
  102MOL   C34938931   5.291   7.151   7.389 -0.2844  0.7467  1.4017
  102MOL   C35038932   5.323   7.116   7.251 -0.0978  0.6431 -0.1928
  102MOL   C35138933   5.228   7.041   7.175  1.0359  0.7864  0.2589
  102MOL   C35238934   5.104   7.015   7.228  0.0264 -0.1071  0.8724
  102MOL   C35338935   5.071   7.054   7.362 -0.4474  0.0943  1.0973
  102MOL   C35438936   5.165   7.121   7.444 -0.0109 -0.0178  0.3488
  102MOL   H35538937   5.548   7.625   7.345  0.1250 -0.3427  0.5895
  102MOL   H35638938   5.371   7.436   7.322  1.8306  0.3479 -3.4559
  102MOL   H35738939   5.572   7.272   7.486 -0.8436 -0.5572  2.2946
  102MOL   H35838940   5.541   7.231   7.329  2.3994  0.7818  1.8476
  102MOL   H35938941   5.418   7.139   7.206  1.2610  1.3982  2.9990
  102MOL   H36038942   5.247   7.005   7.075 -1.1522  1.1563 -0.3246
  102MOL   H36138943   5.023   6.980   7.165 -1.5924  2.1242  1.6244
  102MOL   H36238944   4.973   7.033   7.403 -1.0513  1.7650  0.5685
  102MOL   C36338945   5.131   7.157   7.579  0.3388 -0.1340  0.1228
  102MOL   C36438946   5.115   7.299   7.631 -0.4827 -0.3036 -0.4625
  102MOL   O36538947   5.008   7.217   7.587 -0.2276 -0.1085 -0.0960
  102MOL   C36638948   5.127   7.418   7.539 -0.0413 -0.6762 -0.4710
  102MOL   O36738949   5.027   7.513   7.567  0.0505  0.3582 -0.2548
  102MOL   C36838950   5.045   7.604   7.665 -0.6742 -0.0957 -0.1777
  102MOL   C36938951   4.931   7.649   7.737  0.4927  0.0772 -0.6455
  102MOL   C37038952   4.932   7.758   7.827  0.1227 -0.1213  0.5402
  102MOL   C37138953   5.062   7.823   7.842  0.7271 -0.1567 -0.1943
  102MOL   C37238954   5.178   7.775   7.776 -0.1165 -0.6477 -0.1117
  102MOL   C37338955   5.173   7.670   7.685 -0.2062 -1.1527  0.4578
  102MOL   H37438956   5.148   7.077   7.651 -3.6838 -0.2052  1.0953
  102MOL   H37538957   5.115   7.326   7.736  2.1728  0.6188 -0.6802
  102MOL   H37638958   5.127   7.386   7.435 -1.6662 -0.4409 -0.5669
  102MOL   H37738959   5.226   7.462   7.546 -0.7065  0.8808 -0.6293
  102MOL   H37838960   4.835   7.601   7.730 -0.2833  1.8059 -2.5981
  102MOL   H37938961   4.833   7.785   7.859 -0.7365 -0.1212 -2.0016
  102MOL   H38038962   5.067   7.910   7.906 -1.0168  0.0688 -0.3365
  102MOL   H38138963   5.269   7.829   7.798 -0.5333 -0.7166  1.7952
  102MOL   H38238964   5.265   7.646   7.635  1.1306  0.2107  2.2047
  103MOL     C138965   2.664   6.990   2.285  0.0931  0.9829  0.6538
  103MOL     C238966   2.629   6.917   2.412 -0.3964  0.8367 -0.0918
  103MOL     O338967   2.702   6.850   2.303  0.1180 -0.1473  0.0594
  103MOL     C438968   2.487   6.869   2.441 -0.4449  0.4399  0.6692
  103MOL     O538969   2.384   6.933   2.367  0.2365  0.2812 -0.0101
  103MOL     C638970   2.322   6.865   2.264 -0.1671  0.1911  0.2462
  103MOL     C738971   2.391   6.772   2.184 -0.7296  0.6941  0.4697
  103MOL     C838972   2.336   6.720   2.067 -0.1781 -0.4256  0.5198
  103MOL     C938973   2.196   6.731   2.054 -0.0247 -1.1548 -0.1268
  103MOL    C1038974   2.118   6.813   2.141 -0.0786 -0.1813 -0.3270
  103MOL    C1138975   2.184   6.888   2.240 -0.2576 -0.4147  0.3297
  103MOL    H1238976   2.754   7.051   2.281  0.6732  0.1205  0.3351
  103MOL    H1338977   2.693   6.934   2.498 -1.5812  0.2613  0.9249
  103MOL    H1438978   2.461   6.914   2.537 -2.5312  0.1409  0.2813
  103MOL    H1538979   2.467   6.762   2.437  1.6591  0.0359  0.3357
  103MOL    H1638980   2.495   6.753   2.205 -0.7323 -1.0702 -1.0302
  103MOL    H1738981   2.393   6.668   1.991  0.9726  1.5165  0.0172
  103MOL    H1838982   2.141   6.683   1.974 -0.6875 -0.9641  0.2148
  103MOL    H1938983   2.013   6.833   2.125 -0.4864 -0.1387  2.2361
  103MOL    H2038984   2.584   7.009   2.213  0.5906  0.0041 -0.1692
  103MOL    C2138985   2.104   6.988   2.321  0.6257 -0.5704 -0.0406
  103MOL    C2238986   2.120   7.143   2.317  0.0891  1.1585 -0.7742
  103MOL    O2338987   2.017   7.078   2.246 -0.0925 -0.1188 -0.3391
  103MOL    C2438988   2.219   7.213   2.230 -0.1336  0.3844 -0.5982
  103MOL    O2538989   2.194   7.355   2.217 -0.0541  0.0541  0.3927
  103MOL    C2638990   2.280   7.437   2.147 -0.1501 -0.6286 -0.4738
  103MOL    C2738991   2.410   7.395   2.099  0.4911 -0.7346  0.0981
  103MOL    C2838992   2.488   7.486   2.023 -0.1825 -0.3152 -0.0187
  103MOL    C2938993   2.453   7.618   2.002 -0.0940  1.5083 -0.2483
  103MOL    C3038994   2.330   7.662   2.047  0.4106  0.1197  0.1105
  103MOL    C3138995   2.248   7.575   2.127 -0.4879  0.2474  0.3763
  103MOL    H3238996   2.051   6.938   2.401  0.8969 -0.3447  0.2804
  103MOL    H3338997   2.110   7.182   2.418  2.1752 -1.0414  0.3469
  103MOL    H3438998   2.215   7.163   2.133 -1.5923 -0.8196  0.0638
  103MOL    H3538999   2.317   7.192   2.274 -1.8392 -0.1612  3.2162
  103MOL    H3639000   2.442   7.293   2.111  1.1335 -0.3131  2.3181
  103MOL    H3739001   2.572   7.436   1.976  1.4206  1.4806  0.8703
  103MOL    H3839002   2.518   7.683   1.946  3.0656 -1.8681 -0.6887
  103MOL    H3939003   2.298   7.760   2.014  0.5433  0.2770  0.4407
  103MOL    C4039004   2.108   7.604   2.159  0.0066  0.3994 -0.0193
  103MOL    C4139005   2.068   7.632   2.303 -0.0529  0.0123  0.0992
  103MOL    O4239006   2.078   7.733   2.200  0.1599 -0.4541 -0.4705
  103MOL    C4339007   2.178   7.654   2.409  0.1840 -0.2836 -0.2353
  103MOL    O4439008   2.126   7.714   2.527 -0.6204  0.2018 -0.3925
  103MOL    C4539009   2.219   7.761   2.615 -0.2133 -0.4046  0.2148
  103MOL    C4639010   2.358   7.726   2.612  0.0761 -0.3539 -0.0291
  103MOL    C4739011   2.450   7.790   2.704  0.2030 -0.0820  0.7631
  103MOL    C4839012   2.402   7.884   2.796  0.1990 -0.5790 -0.0171
  103MOL    C4939013   2.264   7.900   2.812  0.7278  0.1815 -0.1521
  103MOL    C5039014   2.173   7.848   2.718  0.6408  0.1499 -0.0206
  103MOL    H5139015   2.041   7.555   2.089 -1.2161  1.6076  0.2810
  103MOL    H5239016   1.967   7.622   2.341 -0.2840  1.4621 -0.0936
  103MOL    H5339017   2.263   7.710   2.371 -0.0123  1.7555  2.1583
  103MOL    H5439018   2.223   7.557   2.429 -0.4732 -0.8595 -1.4668
  103MOL    H5539019   2.403   7.650   2.550  0.2793  0.5034 -0.9428
  103MOL    H5639020   2.556   7.769   2.694 -0.3178 -1.7488 -1.9607
  103MOL    H5739021   2.478   7.929   2.858 -0.6071 -0.6447  1.0237
  103MOL    H5839022   2.226   7.961   2.893  3.6489  1.2485  0.4643
  103MOL    C5939023   2.027   7.895   2.724  0.3310 -0.6603 -0.1523
  103MOL    C6039024   1.916   7.805   2.786 -0.1305  0.0186  0.6645
  103MOL    O6139025   1.977   7.907   2.866 -0.6289 -0.6013  0.2383
  103MOL    C6239026   1.948   7.661   2.823  0.4314  0.2737  0.3784
  103MOL    O6339027   1.857   7.609   2.927  0.0835 -0.0392  0.8848
  103MOL    C6439028   1.736   7.553   2.894 -0.2941 -0.6185 -0.6097
  103MOL    C6539029   1.680   7.550   2.766  0.3930 -0.2186  0.2757
  103MOL    C6639030   1.548   7.496   2.740  0.1802  0.2384  0.1014
  103MOL    C6739031   1.473   7.435   2.845 -0.4108 -0.2001 -0.0414
  103MOL    C6839032   1.535   7.435   2.972  0.1065 -0.2270  0.3341
  103MOL    C6939033   1.666   7.492   3.002 -0.1092  0.5049 -0.7949
  103MOL    H7039034   2.017   7.988   2.668 -2.0579 -0.6532  0.2433
  103MOL    H7139035   1.810   7.831   2.780  0.2121  1.1243 -0.7580
  103MOL    H7239036   2.055   7.661   2.841  0.4887 -0.8557  0.0822
  103MOL    H7339037   1.935   7.605   2.730 -0.5736  1.3655 -0.1585
  103MOL    H7439038   1.728   7.596   2.681 -2.5126  2.2209 -0.1364
  103MOL    H7539039   1.501   7.498   2.643 -0.3687 -0.5504  0.3437
  103MOL    H7639040   1.374   7.393   2.834 -0.2416 -0.4483 -0.6421
  103MOL    H7739041   1.463   7.399   3.044  0.7925 -3.3733 -0.4525
  103MOL    C7839042   1.727   7.489   3.149 -0.3250 -0.5436 -0.0939
  103MOL    C7939043   1.754   7.614   3.225 -1.2511  0.0809  0.3825
  103MOL    O8039044   1.634   7.536   3.251 -0.8228 -0.3103  0.2822
  103MOL    C8139045   1.727   7.762   3.169 -0.9839  0.4738 -0.1941
  103MOL    O8239046   1.751   7.851   3.275 -0.6031  0.5230 -0.3199
  103MOL    C8339047   1.650   7.907   3.339  0.1128 -0.1281 -1.1398
  103MOL    C8439048   1.515   7.860   3.347 -0.2650  0.2401  0.5150
  103MOL    C8539049   1.409   7.923   3.420  0.3052  0.3381  0.2364
  103MOL    C8639050   1.428   8.053   3.469 -0.0089  0.9925 -0.6784
  103MOL    C8739051   1.560   8.099   3.471 -0.4937 -0.3591 -0.6418
  103MOL    C8839052   1.670   8.033   3.403 -0.8525 -0.3357 -0.6426
  103MOL    H8939053   1.774   7.395   3.175  0.8865  0.9315  3.4015
  103MOL    H9039054   1.823   7.615   3.309  0.0183 -0.4950 -0.6313
  103MOL    H9139055   1.627   7.765   3.127 -1.1839  0.0548  0.2430
  103MOL    H9239056   1.808   7.763   3.097 -0.0438 -1.1268  0.7873
  103MOL    H9339057   1.492   7.763   3.304  2.1341 -0.8681  1.5793
  103MOL    H9439058   1.311   7.878   3.429  0.2226 -0.0236 -1.9994
  103MOL    H9539059   1.344   8.102   3.515 -0.1787  1.7550 -1.7709
  103MOL    H9639060   1.584   0.017   3.528  0.6207 -0.1644 -1.4018
  103MOL    C9739061   1.807   8.102   3.408  0.0147 -0.4366 -0.4525
  103MOL    C9839062   1.857   0.011   3.291 -0.1298  0.2068  0.3019
  103MOL    O9939063   1.798   0.072   3.404 -0.3416  0.3194 -0.1006
  103MOL   C10039064   1.785   0.033   3.160  0.4312  0.1571 -0.4394
  103MOL   O10139065   1.859   0.095   3.052 -0.3476  0.7834  0.0161
  103MOL   C10239066   1.894   0.225   3.054  0.7023 -0.3917  0.1837
  103MOL   C10339067   1.889   0.304   3.179 -0.3875  0.0465 -0.8553
  103MOL   C10439068   1.949   0.429   3.183  0.4992  0.0076  0.9293
  103MOL   C10539069   2.008   0.477   3.058  0.3925 -0.4158  0.3527
  103MOL   C10639070   2.008   0.405   2.938  0.3027  0.1914  0.4305
  103MOL   C10739071   1.952   0.275   2.937  0.1696 -0.0427 -0.0580
  103MOL   H10839072   1.866   8.083   3.498 -0.7376  3.3122  0.9302
  103MOL   H10939073   1.962   0.040   3.285  0.6647 -2.4610  0.5737
  103MOL   H11039074   1.699   0.096   3.184  0.8749  2.5729 -4.5803
  103MOL   H11139075   1.746   8.108   3.124  0.6341 -0.2922  0.5172
  103MOL   H11239076   1.841   0.257   3.263  0.3461  1.1224  0.1693
  103MOL   H11339077   1.947   0.491   3.271  0.7245  2.2507 -0.6117
  103MOL   H11439078   2.050   0.577   3.058  1.2122 -0.7606  0.7890
  103MOL   H11539079   2.040   0.438   2.840  0.7705 -1.5660 -0.0309
  103MOL   C11639080   1.965   0.187   2.819 -0.3686 -0.0983  0.5588
  103MOL   C11739081   1.856   0.161   2.719 -0.0052 -0.1223  0.8044
  103MOL   O11839082   1.958   0.260   2.696  0.3198 -0.1146 -0.2698
  103MOL   C11939083   1.720   0.206   2.761  0.0799  0.0971  0.3550
  103MOL   O12039084   1.619   0.195   2.662 -0.0432  0.1279 -0.6527
  103MOL   C12139085   1.593   0.301   2.580  0.7709 -0.3206  0.0541
  103MOL   C12239086   1.693   0.399   2.551  0.0418 -0.4273 -0.0088
  103MOL   C12339087   1.669   0.496   2.449  0.3539 -0.8227 -0.1899
  103MOL   C12439088   1.547   0.494   2.378  0.1172 -0.0560 -0.2663
  103MOL   C12539089   1.446   0.400   2.411 -0.1919  0.1200 -0.8723
  103MOL   C12639090   1.472   0.299   2.502 -0.4519  0.6566 -0.3244
  103MOL   H12739091   2.053   0.123   2.823 -0.5887 -0.5958 -2.0684
  103MOL   H12839092   1.861   0.061   2.676  0.7990  0.3015 -0.0911
  103MOL   H12939093   1.718   0.311   2.789  2.3459  0.1954  0.2351
  103MOL   H13039094   1.697   0.164   2.859  0.4451  1.8022  1.1880
  103MOL   H13139095   1.783   0.404   2.611  0.3705  0.4395 -0.5730
  103MOL   H13239096   1.743   0.570   2.421 -0.5848  0.3459  0.3545
  103MOL   H13339097   1.530   0.556   2.291 -1.2749 -0.3580 -0.2303
  103MOL   H13439098   1.360   0.401   2.347 -1.3530  0.4566  0.6490
  103MOL   C13539099   1.371   0.188   2.526 -1.0119 -0.1266 -0.1608
  103MOL   C13639100   1.258   0.207   2.628 -0.9544  0.7002  0.6965
  103MOL   O13739101   1.237   0.221   2.488  0.4014 -0.5329 -0.1981
  103MOL   C13839102   1.232   0.325   2.705 -0.1296 -0.2333 -0.4427
  103MOL   O13939103   1.211   0.296   2.840 -0.0309  0.7022 -0.5584
  103MOL   C14039104   1.311   0.301   2.932  0.8997  0.4907  1.0344
  103MOL   C14139105   1.444   0.346   2.913  0.7879 -0.3228  0.3093
  103MOL   C14239106   1.532   0.332   3.021  0.6315  0.8527 -0.1804
  103MOL   C14339107   1.492   0.275   3.145 -0.7693 -0.0305  0.4884
  103MOL   C14439108   1.361   0.248   3.166  0.8331 -0.2955 -0.4741
  103MOL   C14539109   1.271   0.251   3.062  0.1923 -0.4275  0.2893
  103MOL   H14639110   1.413   0.087   2.518  1.5350  0.8647  0.1038
  103MOL   H14739111   1.208   0.122   2.672  0.2859 -0.4375 -0.0536
  103MOL   H14839112   1.131   0.361   2.681  0.2424  0.5296 -0.8832
  103MOL   H14939113   1.300   0.409   2.694  0.7783 -0.7315  1.2613
  103MOL   H15039114   1.476   0.406   2.829  0.2046  2.2043  1.8383
  103MOL   H15139115   1.630   0.377   3.029  1.2160 -0.6695  1.7598
  103MOL   H15239116   1.565   0.265   3.224  0.8964  0.1720 -1.0180
  103MOL   H15339117   1.329   0.211   3.262 -0.0021  0.0458 -0.6167
  103MOL   C15439118   1.127   0.224   3.079 -0.1814 -0.4549  0.6029
  103MOL   C15539119   1.058   0.096   3.092 -0.1234  0.0539 -0.5025
  103MOL   O15639120   1.087   0.176   3.206 -0.4011 -0.2742 -0.1371
  103MOL   C15739121   1.138   8.134   3.076 -0.2929 -0.3859 -0.4506
  103MOL   O15839122   1.053   8.018   3.101 -0.6893  0.5872 -0.2748
  103MOL   C15939123   0.993   7.995   3.221 -0.8034 -0.9211  0.3232
  103MOL   C16039124   1.037   8.053   3.341  0.3317  0.3972 -0.2078
  103MOL   C16139125   0.978   8.024   3.460 -0.4234 -0.4692  1.1609
  103MOL   C16239126   0.865   7.939   3.468 -0.0765 -1.5157  0.3069
  103MOL   C16339127   0.817   7.877   3.351 -0.0465  0.4981  0.4215
  103MOL   C16439128   0.881   7.909   3.227 -0.7731 -0.4230 -0.3832
  103MOL   H16539129   1.070   0.309   3.042  2.2299  0.4763 -1.1189
  103MOL   H16639130   0.954   0.088   3.063  0.8444 -2.3776 -3.5165
  103MOL   H16739131   1.217   8.136   3.152 -0.2016  0.7768 -0.5656
  103MOL   H16839132   1.179   8.130   2.975 -1.1818  0.0442 -0.8303
  103MOL   H16939133   1.125   8.115   3.344  0.9897 -0.4347 -1.5610
  103MOL   H17039134   1.026   8.072   3.544  0.9188  0.2888 -0.0184
  103MOL   H17139135   0.819   7.910   3.561 -0.0070 -0.5282  0.6508
  103MOL   H17239136   0.728   7.815   3.356 -0.1324  0.3706 -1.9199
  103MOL   C17339137   0.832   7.851   3.096  0.1456  0.5198 -0.1602
  103MOL   C17439138   0.873   7.712   3.057  0.1763  0.3314 -0.3584
  103MOL   O17539139   0.744   7.741   3.104  0.2143 -0.3354 -0.2044
  103MOL   C17639140   0.966   7.623   3.144  0.3359 -0.4039 -0.2623
  103MOL   O17739141   0.947   7.486   3.115 -0.8198 -0.3880 -0.0891
  103MOL   C17839142   0.990   7.440   2.992 -0.2458  0.1366 -0.6760
  103MOL   C17939143   1.068   7.510   2.902  0.4358  0.4849  0.0839
  103MOL   C18039144   1.112   7.446   2.779  0.0090 -0.3333  0.0413
  103MOL   C18139145   1.059   7.323   2.740 -0.0824 -0.1713 -0.5148
  103MOL   C18239146   0.967   7.257   2.827 -0.7646  0.2257 -0.2771
  103MOL   C18339147   0.945   7.310   2.958 -0.0047 -0.0729  0.2866
  103MOL   H18439148   0.791   7.920   3.023 -0.9692  1.4938  1.3744
  103MOL   H18539149   0.879   7.699   2.949 -0.4995 -0.7053 -0.2808
  103MOL   H18639150   0.931   7.624   3.248 -2.3030  0.6659 -1.1169
  103MOL   H18739151   1.071   7.650   3.152  0.4064 -0.6290 -0.4433
  103MOL   H18839152   1.102   7.611   2.920  1.5523  0.3065 -0.9764
  103MOL   H18939153   1.185   7.487   2.710  0.3810 -1.7333 -0.4143
  103MOL   H19039154   1.092   7.276   2.649 -1.0937 -2.1583  0.1032
  103MOL   H19139155   0.924   7.163   2.799 -0.3712 -0.0043 -0.1185
  103MOL   C19239156   0.850   7.233   3.046  0.9326 -0.2421  0.1279
  103MOL   C19339157   0.706   7.266   3.050  0.6363  0.2953 -0.8800
  103MOL   O19439158   0.751   7.158   2.971  0.3069 -0.2657  0.3782
  103MOL   C19539159   0.639   7.380   2.970 -0.1863 -0.3223 -0.1977
  103MOL   O19639160   0.509   7.392   3.002  0.1706 -0.0794  0.1873
  103MOL   C19739161   0.436   7.491   2.935  0.2230  0.1018 -0.3997
  103MOL   C19839162   0.480   7.549   2.812 -0.4119 -0.3338 -0.6777
  103MOL   C19939163   0.400   7.638   2.744  0.1428  0.1061 -0.5014
  103MOL   C20039164   0.274   7.668   2.788  0.5509  0.7763 -0.0655
  103MOL   C20139165   0.227   7.611   2.907  0.5607  0.6605  0.0811
  103MOL   C20239166   0.310   7.530   2.987 -0.2408  0.0313  0.1848
  103MOL   H20339167   0.900   7.205   3.138 -0.0308  3.6730  1.9494
  103MOL   H20439168   0.661   7.241   3.146 -0.0391  0.3152 -1.1899
  103MOL   H20539169   0.647   7.349   2.866  1.7654  1.0420 -0.4798
  103MOL   H20639170   0.697   7.472   2.971  0.6865 -0.7901 -3.1301
  103MOL   H20739171   0.581   7.522   2.785  1.0612  1.3379  2.8169
  103MOL   H20839172   0.438   7.676   2.651 -0.1282  1.8586  0.0689
  103MOL   H20939173   0.210   7.731   2.729  0.2618  2.5286  2.0208
  103MOL   H21039174   0.128   7.626   2.947  0.8434 -3.4165  2.6300
  103MOL   C21139175   0.256   7.479   3.120 -0.2839 -0.2703 -0.2031
  103MOL   C21239176   0.313   7.512   3.263  0.4665 -0.1941 -0.5151
  103MOL   O21339177   0.223   7.598   3.197 -0.5289  0.3882 -0.3506
  103MOL   C21439178   0.460   7.564   3.278 -0.3262  0.6475  0.1674
  103MOL   O21539179   0.499   7.580   3.417  0.3400 -0.2055 -0.0500
  103MOL   C21639180   0.544   7.479   3.501 -0.5832 -0.0164  0.5411
  103MOL   C21739181   0.520   7.341   3.470 -0.3738  0.1355 -0.2123
  103MOL   C21839182   0.558   7.244   3.562 -0.0031  0.0030  0.2869
  103MOL   C21939183   0.619   7.287   3.679 -0.3477 -0.2495  0.2434
  103MOL   C22039184   0.645   7.419   3.711  0.4572  0.3681 -0.1296
  103MOL   C22139185   0.602   7.521   3.621  0.2294  0.5505 -0.4446
  103MOL   H22239186   0.181   7.400   3.112 -0.7141 -0.1157  1.8142
  103MOL   H22339187   0.267   7.453   3.342  3.0236 -0.1763  1.0255
  103MOL   H22439188   0.468   7.662   3.231  1.3801  0.4226 -0.0595
  103MOL   H22539189   0.529   7.496   3.227  0.1326  2.0327 -1.1131
  103MOL   H22639190   0.472   7.307   3.380  0.1292  1.3677 -0.9684
  103MOL   H22739191   0.545   7.139   3.538 -1.8047  0.5054 -1.0380
  103MOL   H22839192   0.646   7.213   3.753  2.3986 -1.4759 -1.8803
  103MOL   H22939193   0.689   7.448   3.805 -1.1292 -2.1187  1.4505
  103MOL   C23039194   0.641   7.661   3.648 -0.5704  0.0149  0.9098
  103MOL   C23139195   0.559   7.765   3.727 -0.5261 -0.7112 -1.0077
  103MOL   O23239196   0.662   7.693   3.783  0.4785 -0.2049  0.4181
  103MOL   C23339197   0.424   7.725   3.771  0.1505 -0.2556  0.4146
  103MOL   O23439198   0.349   7.830   3.835  0.7856  0.1384  0.8577
  103MOL   C23539199   0.395   7.868   3.956  0.1850  1.1021 -0.5087
  103MOL   C23639200   0.464   7.787   4.045 -0.1561  0.0567 -0.0264
  103MOL   C23739201   0.516   7.835   4.166 -0.0585  0.1580  0.4897
  103MOL   C23839202   0.476   7.964   4.213  0.7223  0.1804  0.1467
  103MOL   C23939203   0.402   8.049   4.127 -0.3167 -0.1007 -0.0464
  103MOL   C24039204   0.356   7.996   4.002 -0.5394  0.0937 -0.2999
  103MOL   H24139205   0.720   7.695   3.581  0.7385 -1.6165  1.5806
  103MOL   H24239206   0.587   7.860   3.682  0.1445 -0.3433  0.1858
  103MOL   H24339207   0.420   7.638   3.836 -1.4924 -1.1831 -0.9195
  103MOL   H24439208   0.374   7.698   3.678  0.7621  0.3572 -0.1002
  103MOL   H24539209   0.503   7.692   4.012 -0.1057  0.6968 -1.8695
  103MOL   H24639210   0.577   7.764   4.220 -0.6645  0.2587  1.3167
  103MOL   H24739211   0.518   7.990   4.309 -1.1615  1.1921  0.7365
  103MOL   H24839212   0.385   8.151   4.156  0.2200 -0.1903  0.5862
  103MOL   C24939213   0.275   8.093   3.915  0.5514 -0.1585 -0.6579
  103MOL   C25039214   0.127   8.084   3.885 -0.2292  0.5714  0.3156
  103MOL   O25139215   0.175   8.160   3.999 -0.3102 -0.1216 -0.3552
  103MOL   C25239216   0.046   7.959   3.913  0.0185  0.0750  0.6467
  103MOL   O25339217   8.080   7.991   3.954  0.4044 -0.0299 -0.2002
  103MOL   C25439218   7.980   8.003   3.860 -0.5759 -0.0531 -0.2724
  103MOL   C25539219   8.007   7.992   3.720 -0.7117 -0.2331  0.2630
  103MOL   C25639220   7.904   8.007   3.624  0.2242  0.1571 -0.2981
  103MOL   C25739221   7.773   8.038   3.673 -0.7097 -0.4711 -0.2664
  103MOL   C25839222   7.750   8.059   3.812  0.1715 -1.2335  0.1495
  103MOL   C25939223   7.853   8.041   3.905  0.5497 -0.2087  0.6363
  103MOL   H26039224   0.345   8.151   3.856 -3.1741  3.2086 -2.0150
  103MOL   H26139225   0.096   8.140   3.797 -2.9035 -1.3267 -0.0111
  103MOL   H26239226   0.101   7.905   3.990  0.9056 -0.3042 -0.2440
  103MOL   H26339227   0.053   7.882   3.836 -0.3650  2.5603 -1.9712
  103MOL   H26439228   8.107   7.981   3.680 -0.4355 -2.8497  1.5488
  103MOL   H26539229   7.922   8.016   3.518 -0.0316 -1.3735 -0.4715
  103MOL   H26639230   7.692   8.046   3.601  0.4732 -0.5667 -1.6484
  103MOL   H26739231   7.650   8.088   3.839  0.9578  3.4816 -1.5157
  103MOL   C26839232   7.823   8.073   4.048 -0.2035  0.2757  0.7363
  103MOL   C26939233   7.852   0.034   4.109  0.1291  0.1982  0.0736
  103MOL   O27039234   7.719   8.167   4.062 -0.6269 -0.6621 -0.1542
  103MOL   C27139235   7.906   0.153   4.032  0.2877 -0.0260  0.4247
  103MOL   O27239236   7.923   0.253   4.127 -0.0943 -0.1803 -0.2013
  103MOL   C27339237   8.036   0.326   4.103 -0.1942 -0.4469 -0.6963
  103MOL   C27439238   8.068   0.356   3.967  0.4872 -0.4741 -0.0843
  103MOL   C27539239   0.020   0.416   3.936  0.0469 -0.2017  0.4304
  103MOL   C27639240   0.109   0.439   4.040 -0.5562 -0.9302  0.5064
  103MOL   C27739241   0.084   0.401   4.175  0.3663  0.4003 -1.0903
  103MOL   C27839242   8.127   0.348   4.208  0.1889 -0.3636 -0.1744
  103MOL   H27939243   7.832   7.988   4.115  0.6116 -0.8752 -0.8059
  103MOL   H28039244   7.860   0.030   4.218  0.1109  0.5808  0.0869
  103MOL   H28139245   7.831   0.191   3.962 -0.1626  0.7708  1.3305
  103MOL   H28239246   7.992   0.112   3.978 -1.0577 -1.0977 -0.9503
  103MOL   H28339247   7.995   0.339   3.888  0.7061 -2.2666  0.0625
  103MOL   H28439248   0.041   0.456   3.838  2.5113 -2.1135  0.1190
  103MOL   H28539249   0.199   0.495   4.019 -0.6409 -0.2393  1.8804
  103MOL   H28639250   0.163   0.421   4.246 -0.8642  1.3165  0.0418
  103MOL   C28739251   8.092   0.321   4.360 -0.4038 -0.1345  0.0873
  103MOL   C28839252   8.114   0.183   4.422  0.2212  0.0814  0.1504
  103MOL   O28939253   0.038   0.294   4.443 -0.6256  0.7046 -0.0037
  103MOL   C29039254   8.161   0.063   4.344 -0.6461  0.5943  0.0175
  103MOL   O29139255   0.037   8.151   4.443  0.3867  0.3071  0.0889
  103MOL   C29239256   0.066   8.014   4.419  0.6138 -0.2078 -0.6719
  103MOL   C29339257   0.068   7.956   4.290 -0.1728  0.5457  0.3345
  103MOL   C29439258   0.093   7.819   4.278  0.0694 -0.3366  0.4854
  103MOL   C29539259   0.107   7.735   4.387  0.1492  0.2949  0.0159
  103MOL   C29639260   0.108   7.794   4.515 -0.2658 -0.6274  0.4707
  103MOL   C29739261   0.085   7.935   4.534 -0.7597 -0.3179  0.8112
  103MOL   H29839262   8.021   0.390   4.406 -0.4185 -0.6135  0.8019
  103MOL   H29939263   8.053   0.169   4.511  0.1034  0.7017  0.1649
  103MOL   H30039264   0.065   0.101   4.273 -0.8712 -1.5610 -1.4292
  103MOL   H30139265   8.070   0.025   4.298 -1.0635 -0.7550  1.9103
  103MOL   H30239266   0.048   8.015   4.202  2.3541  1.2627  0.1994
  103MOL   H30339267   0.093   7.777   4.179  1.2050  1.7098 -0.4110
  103MOL   H30439268   0.127   7.629   4.382  1.7576  0.5198  1.1761
  103MOL   H30539269   0.118   7.731   4.601  2.9879 -0.1210  0.5476
  103MOL   C30639270   0.081   8.004   4.672 -0.0326 -0.2059 -0.7161
  103MOL   C30739271   8.120   8.032   4.745 -0.5044  0.3675 -0.2710
  103MOL   O30839272   0.038   7.924   4.785 -0.4706  0.6067  0.3635
  103MOL   C30939273   7.984   8.005   4.695  0.0562  0.4921  0.1577
  103MOL   O31039274   7.873   8.021   4.779 -0.7517 -0.4300 -0.3970
  103MOL   C31139275   7.824   8.148   4.789  0.8112  0.0841 -0.3711
  103MOL   C31239276   7.884   0.103   4.751 -0.2410  0.0310 -0.1185
  103MOL   C31339277   7.815   0.227   4.757 -0.2987 -0.0703  0.7713
  103MOL   C31439278   7.684   0.231   4.809 -0.0028  0.3589  0.0056
  103MOL   C31539279   7.633   0.114   4.868 -0.5425 -0.0898  0.0991
  103MOL   C31639280   7.705   8.158   4.860 -0.3933 -0.0540 -0.1132
  103MOL   H31739281   0.163   8.075   4.679 -0.2993  0.0732 -0.3213
  103MOL   H31839282   8.120   8.126   4.800 -2.7522  0.6779 -0.7396
  103MOL   H31939283   7.987   7.897   4.676 -2.6327  0.3014  0.6751
  103MOL   H32039284   7.979   8.057   4.599  1.9255  0.5216  0.0470
  103MOL   H32139285   7.982   0.104   4.706 -0.2044 -0.0215 -0.0393
  103MOL   H32239286   7.859   0.320   4.725 -0.3878 -0.1079  0.5377
  103MOL   H32339287   7.626   0.321   4.826  0.8804  0.5960  1.9732
  103MOL   H32439288   7.535   0.114   4.914 -0.4885 -0.9265  0.2129
  103MOL   C32539289   7.641   8.041   4.917  0.1149  0.0251 -0.0904
  103MOL   C32639290   7.661   7.968   5.053 -0.1794 -0.5881 -0.2892
  103MOL   O32739291   7.571   8.080   5.036  0.2956  0.0922 -0.5097
  103MOL   C32839292   7.782   8.000   5.132  0.2573 -0.4373 -0.0067
  103MOL   O32939293   7.750   7.987   5.274  0.2212  0.5506 -0.1012
  103MOL   C33039294   7.860   7.988   5.361 -0.5515  0.5766 -0.1739
  103MOL   C33139295   7.996   7.991   5.327 -0.1637  0.5909 -0.2000
  103MOL   C33239296   8.100   7.975   5.418 -0.3429 -0.3104 -0.9891
  103MOL   C33339297   8.073   7.980   5.555 -0.6371 -0.4075  0.2547
  103MOL   C33439298   7.935   7.971   5.595 -0.2546  0.0593  0.1150
  103MOL   C33539299   7.833   7.963   5.496  0.4613 -0.5037  0.5517
  103MOL   H33639300   7.585   7.990   4.839  1.4864 -1.8259  0.1117
  103MOL   H33739301   7.617   7.870   5.068  0.7890 -0.9082  0.5052
  103MOL   H33839302   7.827   8.098   5.114 -1.0013 -0.1665 -1.8143
  103MOL   H33939303   7.856   7.929   5.095 -0.5650 -0.7230 -1.1329
  103MOL   H34039304   8.018   7.989   5.221 -1.4498 -2.2258 -0.4645
  103MOL   H34139305   0.032   7.977   5.383 -0.9999 -0.9884 -3.0401
  103MOL   H34239306   8.147   7.979   5.634 -1.2114  2.7721  0.9000
  103MOL   H34339307   7.910   7.967   5.700 -2.3168 -0.6715 -0.3737
  103MOL   C34439308   7.691   7.948   5.545 -0.2139 -0.3389  0.0203
  103MOL   C34539309   7.598   7.849   5.488 -0.1926 -0.2411 -0.0976
  103MOL   O34639310   7.654   7.839   5.619  0.6494  0.5339  0.6027
  103MOL   C34739311   7.642   7.738   5.393  0.3259 -0.0017  0.1844
  103MOL   O34839312   7.559   7.625   5.397 -0.0797 -0.3413  0.0136
  103MOL   C34939313   7.427   7.641   5.364  0.3152 -0.2998  0.1048
  103MOL   C35039314   7.385   7.738   5.268 -0.1450  0.6499  0.6944
  103MOL   C35139315   7.250   7.771   5.259  0.4659  0.8463 -0.0874
  103MOL   C35239316   7.151   7.711   5.343  0.6700  0.1632  0.0150
  103MOL   C35339317   7.191   7.612   5.437 -0.7925  0.1913  0.2966
  103MOL   C35439318   7.328   7.573   5.438  0.2663  0.0801 -0.8200
  103MOL   H35539319   7.650   8.041   5.583  1.0600  0.5857 -0.7883
  103MOL   H35639320   7.491   7.868   5.481 -0.4474 -2.0191 -1.3870
  103MOL   H35739321   7.743   7.702   5.414  1.1793  0.5736 -2.7151
  103MOL   H35839322   7.655   7.767   5.288 -0.0791 -3.4928 -0.9191
  103MOL   H35939323   7.450   7.787   5.197 -0.3943  2.2456  1.5539
  103MOL   H36039324   7.223   7.839   5.180  1.9237  1.1377 -0.3576
  103MOL   H36139325   7.046   7.733   5.331  0.6249  0.6108  1.1792
  103MOL   H36239326   7.123   7.552   5.496 -0.7685 -1.0283 -0.9100
  103MOL   C36339327   7.383   7.483   5.546  0.6022  0.4620  0.5575
  103MOL   C36439328   7.396   7.533   5.689 -0.4744  0.1236  0.3743
  103MOL   O36539329   7.288   7.442   5.648 -0.1351 -0.0312 -0.3652
  103MOL   C36639330   7.348   7.671   5.728  0.4491 -0.0014  0.3671
  103MOL   O36739331   7.375   7.677   5.871 -0.0344 -0.0364 -0.2418
  103MOL   C36839332   7.354   7.805   5.929  0.3742  0.2076  0.4317
  103MOL   C36939333   7.314   7.920   5.862 -1.3934 -0.4187  0.2865
  103MOL   C37039334   7.287   8.030   5.943 -0.0267  0.7027  0.1867
  103MOL   C37139335   7.311   8.033   6.083 -0.2178  0.0473  0.5026
  103MOL   C37239336   7.349   7.919   6.151 -0.3684 -0.5430 -0.0163
  103MOL   C37339337   7.362   7.801   6.074  0.6341  0.1119 -0.5913
  103MOL   H37439338   7.450   7.414   5.495  1.7936  2.4949 -0.7336
  103MOL   H37539339   7.471   7.476   5.744  0.8839  0.3998 -1.1631
  103MOL   H37639340   7.242   7.675   5.704  0.1787  1.0166  1.6681
  103MOL   H37739341   7.385   7.755   5.669 -1.1914 -0.3485 -1.1954
  103MOL   H37839342   7.304   7.937   5.756  1.5231 -1.1398 -0.1268
  103MOL   H37939343   7.265   8.124   5.895  0.5673 -0.0014 -1.4957
  103MOL   H38039344   7.278   8.121   6.136 -1.6205  0.1923 -0.5750
  103MOL   H38139345   7.369   7.916   6.257  1.8713  1.3679 -0.3644
  103MOL   H38239346   7.388   7.710   6.126  1.1521  0.3692 -0.3941
  104MOL     C139347   3.861   3.114   5.314  0.5746 -0.0465  0.2993
  104MOL     C239348   3.817   3.164   5.175 -0.2432 -0.1559 -0.9277
  104MOL     O339349   3.724   3.162   5.287 -0.0731  0.5830  0.1716
  104MOL     C439350   3.791   3.068   5.067 -0.3868  0.5177  0.0471
  104MOL     O539351   3.887   2.964   5.078 -0.2223  0.4263 -0.0228
  104MOL     C639352   4.008   2.980   5.018  0.2777  0.1783 -0.0261
  104MOL     C739353   4.065   3.106   4.970 -0.1213  0.9035 -0.2544
  104MOL     C839354   4.198   3.110   4.916 -0.4403 -0.2169 -0.1544
  104MOL     C939355   4.259   2.993   4.882 -0.7562  0.7013 -0.4641
  104MOL    C1039356   4.212   2.872   4.935 -0.1576 -0.7499 -0.4105
  104MOL    C1139357   4.090   2.866   5.008 -0.3165 -0.2468  0.5511
  104MOL    H1239358   3.919   3.174   5.384 -1.4984  0.7429  1.3712
  104MOL    H1339359   3.867   3.255   5.143  0.4546  0.2593  1.2470
  104MOL    H1439360   3.781   3.114   4.969  0.0254 -0.6834 -0.5727
  104MOL    H1539361   3.692   3.027   5.085  0.7495 -1.6993  1.5694
  104MOL    H1639362   4.007   3.196   4.985 -0.4893  0.4679  0.9262
  104MOL    H1739363   4.243   3.205   4.891  1.2703 -0.5978  1.4236
  104MOL    H1839364   4.354   2.997   4.830 -0.9555  0.4775 -0.8479
  104MOL    H1939365   4.278   2.788   4.921 -1.3981 -1.9338  0.7808
  104MOL    H2039366   3.867   3.006   5.327  0.9874  0.0011  0.5098
  104MOL    C2139367   4.054   2.743   5.076  0.1513 -0.0139  0.3187
  104MOL    C2239368   3.974   2.626   5.031  0.3875  0.6509 -0.5208
  104MOL    O2339369   4.118   2.630   5.013 -0.7619  0.2942 -0.1665
  104MOL    C2439370   3.905   2.601   4.902  0.1298  0.8557 -0.9135
  104MOL    O2539371   3.794   2.527   4.935  0.5882  0.2834 -0.0806
  104MOL    C2639372   3.707   2.490   4.828 -0.0326  0.0667  0.0185
  104MOL    C2739373   3.743   2.505   4.690 -0.2339 -0.3343 -0.4801
  104MOL    C2839374   3.656   2.464   4.588  0.3250  0.8389  0.9739
  104MOL    C2939375   3.530   2.411   4.624  0.1667 -0.0178  0.0470
  104MOL    C3039376   3.496   2.393   4.760 -0.0694  0.1879  0.1694
  104MOL    C3139377   3.584   2.425   4.862 -0.0740 -0.3260  0.0569
  104MOL    H3239378   4.062   2.754   5.184  1.7860  1.7873  0.0295
  104MOL    H3339379   3.948   2.562   5.115  0.1118  0.3769 -0.8125
  104MOL    H3439380   3.968   2.537   4.840  0.5053 -0.6016  0.9528
  104MOL    H3539381   3.884   2.693   4.847 -2.7046 -0.2934 -1.8202
  104MOL    H3639382   3.830   2.562   4.663 -0.7925  1.0722  0.6412
  104MOL    H3739383   3.679   2.495   4.487  0.7209 -2.8939 -0.1795
  104MOL    H3839384   3.453   2.385   4.553  1.2385 -1.3457 -0.6467
  104MOL    H3939385   3.412   2.333   4.793  0.1634  0.8308  1.9475
  104MOL    C4039386   3.549   2.397   4.995  0.5656 -0.0471 -0.5878
  104MOL    C4139387   3.520   2.500   5.099 -0.0823  0.7203  0.1430
  104MOL    O4239388   3.414   2.428   5.025  0.5902 -0.8395  0.4457
  104MOL    C4339389   3.516   2.648   5.075  0.0812 -0.1767  0.7508
  104MOL    O4439390   3.479   2.726   5.184  0.1127 -0.0338 -0.0019
  104MOL    C4539391   3.558   2.755   5.292  0.7519  0.2616 -0.0425
  104MOL    C4639392   3.698   2.737   5.280  0.5116 -0.2853  0.6817
  104MOL    C4739393   3.779   2.758   5.394 -0.0537  0.2847  0.0084
  104MOL    C4839394   3.714   2.795   5.516 -0.4678  0.2307 -0.0718
  104MOL    C4939395   3.576   2.820   5.522 -0.2153 -0.7422 -0.2892
  104MOL    C5039396   3.490   2.803   5.411 -1.0084 -0.3091  0.4845
  104MOL    H5139397   3.591   2.304   5.032 -0.0254  0.8044  2.3254
  104MOL    H5239398   3.533   2.484   5.206 -0.3444 -1.1675 -0.0955
  104MOL    H5339399   3.449   2.662   4.991  0.4737 -1.5884  0.1883
  104MOL    H5439400   3.606   2.694   5.033 -0.5662 -0.7350 -1.2832
  104MOL    H5539401   3.737   2.697   5.188 -0.6287 -0.7944  0.4182
  104MOL    H5639402   3.886   2.749   5.407 -0.1629  0.6806  1.2838
  104MOL    H5739403   3.773   2.795   5.607 -0.8631  3.0494  0.2316
  104MOL    H5839404   3.535   2.861   5.613 -1.5769 -2.4857 -0.0939
  104MOL    C5939405   3.345   2.832   5.402 -0.6719 -0.2008 -0.7015
  104MOL    C6039406   3.244   2.722   5.420  0.7350 -0.5971 -0.6364
  104MOL    O6139407   3.279   2.809   5.527  0.2696 -0.2528 -0.6336
  104MOL    C6239408   3.286   2.584   5.440  0.1068  0.7665  0.1002
  104MOL    O6339409   3.175   2.496   5.475 -0.1985 -0.6680 -0.0120
  104MOL    C6439410   3.117   2.427   5.367 -0.5307  0.3335  0.2500
  104MOL    C6539411   3.150   2.440   5.235 -0.0289 -0.0887  0.5629
  104MOL    C6639412   3.079   2.369   5.142  0.9817  0.0598 -0.2591
  104MOL    C6739413   2.973   2.279   5.179  0.4614 -0.3648 -0.2230
  104MOL    C6839414   2.946   2.260   5.313 -0.1245  0.0841 -0.7024
  104MOL    C6939415   3.021   2.330   5.408  0.5598  0.5730  0.5301
  104MOL    H7039416   3.322   2.928   5.357  0.3037  1.0340  1.3560
  104MOL    H7139417   3.140   2.738   5.393  0.6047  0.6260  0.5629
  104MOL    H7239418   3.353   2.581   5.525  0.7233 -0.9453 -0.4178
  104MOL    H7339419   3.353   2.543   5.364 -1.4846  0.7835 -1.3527
  104MOL    H7439420   3.225   2.509   5.201  0.5208 -0.8223  0.2582
  104MOL    H7539421   3.087   2.404   5.040  0.1024  2.1941  0.3667
  104MOL    H7639422   2.897   2.248   5.108  0.3204  3.0490 -1.6674
  104MOL    H7739423   2.861   2.200   5.341 -0.3376  1.0467  0.7630
  104MOL    C7839424   2.996   2.306   5.554  0.6622 -0.3311 -0.5811
  104MOL    C7939425   2.868   2.352   5.619 -0.1033  0.0024 -0.6564
  104MOL    O8039426   2.892   2.211   5.588  0.5580 -0.2246  0.1189
  104MOL    C8139427   2.742   2.407   5.554 -0.5586 -0.1639  0.4487
  104MOL    O8239428   2.763   2.469   5.428 -0.3199 -0.0125  0.1563
  104MOL    C8339429   2.659   2.528   5.367 -0.4444  0.1681 -0.2116
  104MOL    C8439430   2.530   2.485   5.397  0.3481 -0.4014  0.1984
  104MOL    C8539431   2.424   2.557   5.338  0.3704 -0.0261  0.2244
  104MOL    C8639432   2.444   2.664   5.250 -0.1807  0.4342 -0.0638
  104MOL    C8739433   2.575   2.698   5.216  0.4397 -0.6286  0.4680
  104MOL    C8839434   2.683   2.632   5.270 -0.6486  0.3958 -0.6039
  104MOL    H8939435   3.082   2.301   5.621 -0.0554 -0.7616  0.3237
  104MOL    H9039436   2.864   2.363   5.728 -1.7365  1.3409 -0.8296
  104MOL    H9139437   2.689   2.479   5.616  0.9544  0.2654  1.2523
  104MOL    H9239438   2.687   2.315   5.535  3.1234 -2.5882  0.9624
  104MOL    H9339439   2.502   2.413   5.472  2.6537 -2.8935 -1.2691
  104MOL    H9439440   2.325   2.515   5.347 -0.0273  0.5434 -1.3762
  104MOL    H9539441   2.358   2.716   5.211 -1.0067 -0.6560  0.2664
  104MOL    H9639442   2.592   2.770   5.137 -0.6750 -0.9570 -0.0801
  104MOL    C9739443   2.828   2.670   5.244  0.6800  0.4893  0.1776
  104MOL    C9839444   2.891   2.643   5.106 -0.0413  0.4266 -0.0365
  104MOL    O9939445   2.843   2.774   5.141  0.6415  0.8207 -0.4710
  104MOL   C10039446   2.820   2.588   4.982  0.1299 -0.3051 -0.6700
  104MOL   O10139447   2.908   2.519   4.900  0.2902 -0.2107 -0.2096
  104MOL   C10239448   2.857   2.469   4.788 -0.0375  0.1282  0.8307
  104MOL   C10339449   2.729   2.496   4.739 -0.5198  0.4116 -0.7297
  104MOL   C10439450   2.687   2.452   4.611  0.1071 -0.4751 -0.7346
  104MOL   C10539451   2.771   2.367   4.537  0.6322 -0.2363 -0.3366
  104MOL   C10639452   2.894   2.326   4.588 -0.2073  0.6243  0.1165
  104MOL   C10739453   2.943   2.387   4.709 -0.0011  0.0874 -0.0306
  104MOL   H10839454   2.899   2.676   5.326  0.8807  0.1279  0.0267
  104MOL   H10939455   3.000   2.645   5.098 -0.0469  0.4491 -0.1190
  104MOL   H11039456   2.781   2.671   4.923 -2.1755 -1.4724 -0.8260
  104MOL   H11139457   2.743   2.524   5.024  0.0448 -0.2096 -0.6771
  104MOL   H11239458   2.665   2.566   4.791  1.1964 -0.2230  2.3700
  104MOL   H11339459   2.586   2.461   4.575 -0.3273  0.2904  0.6574
  104MOL   H11439460   2.738   2.325   4.442 -0.2888 -0.7542  0.2029
  104MOL   H11539461   2.950   2.246   4.542 -1.2478 -1.7056  2.7585
  104MOL   C11639462   3.086   2.363   4.750  0.5013  0.1666  0.2765
  104MOL   C11739463   3.140   2.235   4.810 -0.2747 -0.7866 -0.4375
  104MOL   O11839464   3.143   2.256   4.671 -0.6948 -0.0136  0.1924
  104MOL   C11939465   3.067   2.114   4.846  0.2164 -0.4727 -0.0522
  104MOL   O12039466   3.135   1.988   4.840 -0.2286  0.9219  0.2019
  104MOL   C12139467   3.213   1.957   4.950 -0.0445 -0.2389 -0.6029
  104MOL   C12239468   3.240   2.039   5.059 -0.9367  0.7919 -0.3646
  104MOL   C12339469   3.338   2.004   5.154  0.3795  0.3085  0.0812
  104MOL   C12439470   3.402   1.880   5.144 -0.5081  0.3900  0.0012
  104MOL   C12539471   3.382   1.803   5.031 -0.2162 -0.4089  0.4497
  104MOL   C12639472   3.287   1.837   4.936 -0.2171 -0.4551  0.5547
  104MOL   H12739473   3.140   2.457   4.737 -1.3257  1.1835 -0.1492
  104MOL   H12839474   3.227   2.253   4.873 -0.7630 -1.0918  0.3359
  104MOL   H12939475   2.983   2.099   4.778 -0.7279 -0.2518  1.0455
  104MOL   H13039476   3.015   2.121   4.942 -0.0495 -1.9230 -0.0751
  104MOL   H13139477   3.192   2.134   5.075 -1.6996  0.7401 -2.2491
  104MOL   H13239478   3.341   2.067   5.241 -0.2458  1.6271 -0.8261
  104MOL   H13339479   3.465   1.847   5.225 -3.0335 -1.1469  1.4142
  104MOL   H13439480   3.439   1.712   5.014  0.5178 -0.2146  1.7637
  104MOL   C13539481   3.277   1.760   4.808  0.5731  0.3031  0.0020
  104MOL   C13639482   3.333   1.797   4.673  0.7784 -0.3156  0.7781
  104MOL   O13739483   3.405   1.718   4.769  0.5583  0.8700  0.3514
  104MOL   C13839484   3.402   1.930   4.632  0.0046 -0.1358  0.5923
  104MOL   O13939485   3.340   2.001   4.524 -0.5423  0.2672 -0.0660
  104MOL   C14039486   3.369   1.964   4.394  0.3043 -0.4764  0.2017
  104MOL   C14139487   3.462   1.865   4.360 -0.2739  0.3583  0.6365
  104MOL   C14239488   3.496   1.841   4.226 -0.4686  0.2270 -0.2378
  104MOL   C14339489   3.435   1.912   4.123 -0.3341 -0.3500  0.4699
  104MOL   C14439490   3.333   2.007   4.156 -0.1109  1.0535  0.2758
  104MOL   C14539491   3.301   2.035   4.292 -0.0890 -0.6579 -0.2652
  104MOL   H14639492   3.200   1.684   4.821  0.1138  0.6104 -0.8791
  104MOL   H14739493   3.287   1.740   4.592 -3.5295  1.6179  1.7364
  104MOL   H14839494   3.511   1.923   4.627  0.0163  1.0146 -0.9617
  104MOL   H14939495   3.390   1.996   4.718  1.7511  0.7691  0.1622
  104MOL   H15039496   3.519   1.811   4.435 -0.6748 -0.4769  0.3480
  104MOL   H15139497   3.574   1.771   4.200  0.6944  1.4000  0.0600
  104MOL   H15239498   3.460   1.886   4.022  0.0943  1.2583  0.1509
  104MOL   H15339499   3.288   2.050   4.067  1.5353 -0.5145 -1.3604
  104MOL   C15439500   3.197   2.139   4.320  0.2414 -0.5590  0.2692
  104MOL   C15539501   3.226   2.285   4.323  0.4895  0.3193 -0.0320
  104MOL   O15639502   3.161   2.225   4.209 -0.6734 -0.2543 -0.1626
  104MOL   C15739503   3.358   2.351   4.282  0.2548  0.0319 -0.7371
  104MOL   O15839504   3.360   2.490   4.328 -0.0328 -0.3810 -0.3593
  104MOL   C15939505   3.472   2.561   4.292  0.1199 -0.4469  0.0637
  104MOL   C16039506   3.556   2.521   4.188  0.0451 -0.5872 -0.6752
  104MOL   C16139507   3.671   2.589   4.157 -0.3666 -0.1290 -0.7371
  104MOL   C16239508   3.709   2.703   4.236 -0.3705 -0.7379 -0.2106
  104MOL   C16339509   3.619   2.754   4.327 -0.1822  0.2511 -0.1175
  104MOL   C16439510   3.503   2.681   4.359 -0.0783 -0.0718  0.6556
  104MOL   H16539511   3.109   2.098   4.371 -0.9334  0.1227 -1.1758
  104MOL   H16639512   3.167   2.345   4.392  1.4254 -0.1815  1.2230
  104MOL   H16739513   3.338   2.354   4.175 -0.6011 -0.4198 -0.6054
  104MOL   H16839514   3.443   2.288   4.307 -2.0616 -3.4497 -1.2263
  104MOL   H16939515   3.542   2.440   4.117  1.1479 -0.9614 -0.4800
  104MOL   H17039516   3.738   2.544   4.084 -1.7405 -0.8582 -1.5622
  104MOL   H17139517   3.805   2.746   4.213  0.1117 -2.5595 -1.7377
  104MOL   H17239518   3.642   2.846   4.379  0.5029 -0.8694  1.5900
  104MOL   C17339519   3.413   2.727   4.471 -0.0181 -0.1407  0.0775
  104MOL   C17439520   3.445   2.779   4.607 -0.3098  0.1717  0.3323
  104MOL   O17539521   3.444   2.868   4.492 -0.4754  0.4412 -0.1428
  104MOL   C17639522   3.572   2.786   4.674  0.1696 -0.0363 -0.4120
  104MOL   O17739523   3.567   2.918   4.736 -0.2036 -0.4925  0.2127
  104MOL   C17839524   3.666   3.010   4.712  0.2622 -1.0734  0.5596
  104MOL   C17939525   3.795   2.973   4.686  0.1834  0.1424 -0.2555
  104MOL   C18039526   3.893   3.070   4.656 -0.3018  0.1642 -0.4497
  104MOL   C18139527   3.860   3.209   4.657 -0.1045  0.2427 -0.0556
  104MOL   C18239528   3.721   3.244   4.661  0.6412 -0.0784 -0.5624
  104MOL   C18339529   3.625   3.144   4.696 -0.6665 -0.0954 -0.0555
  104MOL   H18439530   3.309   2.708   4.443 -0.1374  3.2228 -2.1575
  104MOL   H18539531   3.353   2.775   4.666  0.5488 -1.3654  1.5841
  104MOL   H18639532   3.652   2.780   4.601 -0.0767  0.2286 -0.7041
  104MOL   H18739533   3.590   2.709   4.749  0.7935  2.1524  1.7826
  104MOL   H18839534   3.822   2.871   4.708  0.9143  0.6187  1.0884
  104MOL   H18939535   4.000   3.055   4.655 -0.1932  0.8645  0.1293
  104MOL   H19039536   3.932   3.288   4.639 -0.3731  0.9570  1.8943
  104MOL   H19139537   3.690   3.347   4.656  0.0048 -0.2924 -1.0569
  104MOL   C19239538   3.481   3.177   4.704  0.1335  0.3092  0.4025
  104MOL   C19339539   3.415   3.210   4.833  0.4872  0.1870  0.3609
  104MOL   O19439540   3.469   3.313   4.745 -0.5349 -0.0128 -0.4017
  104MOL   C19539541   3.479   3.194   4.970  0.0095  0.0292 -0.6894
  104MOL   O19639542   3.388   3.245   5.077  0.4393  0.0879 -0.3618
  104MOL   C19739543   3.271   3.172   5.105  0.3962 -0.4275  0.4333
  104MOL   C19839544   3.258   3.037   5.061 -0.1629 -0.5275 -0.3782
  104MOL   C19939545   3.139   2.972   5.089 -0.9674  0.4533  0.3208
  104MOL   C20039546   3.034   3.040   5.151  0.1608 -0.1354 -0.0515
  104MOL   C20139547   3.045   3.174   5.194  0.5999 -0.0164 -0.1236
  104MOL   C20239548   3.166   3.241   5.167 -0.1827  0.6483 -0.0491
  104MOL   H20339549   3.429   3.158   4.610  1.6976  1.4539 -0.7243
  104MOL   H20439550   3.306   3.208   4.836  0.3037 -3.1043 -3.9296
  104MOL   H20539551   3.569   3.254   4.963 -0.4649  0.9301  0.6530
  104MOL   H20639552   3.521   3.097   4.991  0.3832  0.7070  1.8209
  104MOL   H20739553   3.337   2.977   5.016 -0.6834 -0.6978 -1.0623
  104MOL   H20839554   3.126   2.874   5.047  4.0865  0.2591 -1.1448
  104MOL   H20939555   2.938   2.992   5.164 -0.7844  1.9727  0.9566
  104MOL   H21039556   2.962   3.224   5.243  1.8471 -0.9363  3.0298
  104MOL   C21139557   3.170   3.380   5.214 -0.0100  0.6429  0.3179
  104MOL   C21239558   3.207   3.503   5.136  0.4553 -0.3319 -0.9266
  104MOL   O21339559   3.066   3.461   5.160 -0.2533 -0.2174 -0.8759
  104MOL   C21439560   3.251   3.507   4.995  0.1375  0.3830 -0.4583
  104MOL   O21539561   3.196   3.627   4.943 -0.4599 -0.8766 -0.0028
  104MOL   C21639562   3.264   3.707   4.847 -0.3786  0.3745  0.3587
  104MOL   C21739563   3.394   3.683   4.795  0.3603  0.3179  0.5064
  104MOL   C21839564   3.450   3.764   4.694 -0.3519 -0.0234  0.2220
  104MOL   C21939565   3.375   3.863   4.641 -0.4476 -1.0941  0.3371
  104MOL   C22039566   3.252   3.893   4.687  0.2269 -0.2715  0.0128
  104MOL   C22139567   3.190   3.818   4.795  0.5696  0.1303  0.4876
  104MOL   H22239568   3.180   3.397   5.321 -2.1893 -0.5968  0.7429
  104MOL   H22339569   3.233   3.586   5.202 -2.4505 -1.2198  1.4175
  104MOL   H22439570   3.208   3.421   4.944 -0.6102  1.1557 -1.1426
  104MOL   H22539571   3.360   3.495   5.001 -0.0620 -0.3619  2.5527
  104MOL   H22639572   3.447   3.598   4.834  0.3922 -0.5480 -1.3916
  104MOL   H22739573   3.550   3.745   4.657  0.2325 -0.2023  1.8665
  104MOL   H22839574   3.403   3.918   4.553  0.5729  0.4230  1.5737
  104MOL   H22939575   3.188   3.965   4.638 -1.1430 -0.6747  1.1535
  104MOL   C23039576   3.056   3.838   4.847  0.3165  0.2530  0.4092
  104MOL   C23139577   3.030   3.879   4.988 -0.3072  0.1378 -0.3630
  104MOL   O23239578   3.025   3.972   4.878  0.0458 -0.3158 -1.1217
  104MOL   C23339579   3.136   3.901   5.087  0.2328  0.4193  0.2109
  104MOL   O23439580   3.104   3.971   5.199 -0.1626 -0.6826 -0.7660
  104MOL   C23539581   3.038   3.929   5.311  0.3567  0.1684  0.4910
  104MOL   C23639582   2.998   3.796   5.320  0.0350 -0.0620 -0.2177
  104MOL   C23739583   2.944   3.757   5.444  0.6133 -0.0413 -0.2418
  104MOL   C23839584   2.933   3.845   5.555 -0.2510 -0.7825 -0.1553
  104MOL   C23939585   2.976   3.977   5.537  0.3459  0.1131  0.3818
  104MOL   C24039586   3.020   4.027   5.411 -0.5718  1.2841 -0.8489
  104MOL   H24139587   2.983   3.776   4.795  1.3856 -0.1474 -0.6393
  104MOL   H24239588   2.930   3.858   5.024 -0.8602  0.4878 -1.6669
  104MOL   H24339589   3.218   3.949   5.034 -1.9985  2.8635 -1.1199
  104MOL   H24439590   3.163   3.797   5.105 -3.1582 -0.1583  2.4709
  104MOL   H24539591   3.015   3.724   5.242 -1.4479  1.2644 -1.8020
  104MOL   H24639592   2.914   3.654   5.446  0.8924 -0.1113  2.0328
  104MOL   H24739593   2.896   3.811   5.651  2.8378  0.6146  1.6094
  104MOL   H24839594   2.973   4.044   5.621  0.2050  0.9516 -0.2750
  104MOL   C24939595   3.038   4.174   5.389  0.2549 -0.2510 -0.1577
  104MOL   C25039596   2.951   4.255   5.292  0.2387 -0.7876  0.0662
  104MOL   O25139597   2.924   4.241   5.435 -0.1207  0.2357  0.9852
  104MOL   C25239598   2.848   4.202   5.194 -0.4837 -0.0848  0.3480
  104MOL   O25339599   2.748   4.300   5.172  0.0289  0.6766  0.2326
  104MOL   C25439600   2.619   4.251   5.181 -0.4396  0.6009  0.2894
  104MOL   C25539601   2.546   4.261   5.303  0.5689  0.9662 -0.0690
  104MOL   C25639602   2.416   4.198   5.318 -0.0250  0.0938  0.5677
  104MOL   C25739603   2.361   4.135   5.204  0.5706 -0.7600  0.3973
  104MOL   C25839604   2.427   4.135   5.081  0.1874  0.1409  0.0895
  104MOL   C25939605   2.554   4.194   5.068 -0.4130 -0.0145  0.2929
  104MOL   H26039606   3.129   4.214   5.433  0.9314 -1.3545 -0.5480
  104MOL   H26139607   2.980   4.356   5.265  0.5308 -1.0352 -0.5369
  104MOL   H26239608   2.804   4.112   5.236 -1.7726  0.8999  1.1146
  104MOL   H26339609   2.903   4.181   5.101 -0.7449 -2.4817  0.6856
  104MOL   H26439610   2.593   4.310   5.387 -0.3846  2.8833 -0.6258
  104MOL   H26539611   2.364   4.198   5.413 -0.9735  0.2137  0.0437
  104MOL   H26639612   2.269   4.080   5.214 -0.3214  0.2744 -1.7121
  104MOL   H26739613   2.372   4.083   5.004 -1.1156  1.9709 -0.2280
  104MOL   C26839614   2.631   4.175   4.945  0.2871  0.5795  0.0127
  104MOL   C26939615   2.681   4.036   4.903 -0.0294  0.4529 -0.3489
  104MOL   O27039616   2.566   4.097   4.840  0.0744 -0.1254  0.9574
  104MOL   C27139617   2.643   3.899   4.970  0.0943  0.4163 -0.4903
  104MOL   O27239618   2.712   3.789   4.910  0.6914  0.4090 -0.0763
  104MOL   C27339619   2.628   3.700   4.842 -0.3063 -0.2747 -0.1194
  104MOL   C27439620   2.525   3.752   4.758 -0.0385 -0.3906  0.5479
  104MOL   C27539621   2.430   3.660   4.704 -0.1497 -0.0862  0.3386
  104MOL   C27639622   2.442   3.521   4.722  0.2290 -0.4965 -0.0159
  104MOL   C27739623   2.549   3.470   4.797 -0.6664  0.0091  0.1739
  104MOL   C27839624   2.644   3.561   4.851  0.6995 -0.1551 -0.0091
  104MOL   H27939625   2.689   4.264   4.922 -0.0749  0.6917 -0.4617
  104MOL   H28039626   2.761   4.044   4.830  1.3279  0.2521  1.0894
  104MOL   H28139627   2.535   3.887   4.971 -0.1028  1.9689 -1.0259
  104MOL   H28239628   2.655   3.900   5.078  0.9928  0.5149 -0.5818
  104MOL   H28339629   2.505   3.857   4.745 -0.1174 -0.4939 -0.1708
  104MOL   H28439630   2.350   3.688   4.636  0.9204 -0.8931 -1.3068
  104MOL   H28539631   2.367   3.454   4.681  2.3184 -0.5201 -4.0024
  104MOL   H28639632   2.548   3.362   4.793 -0.6370  0.0171 -0.0479
  104MOL   C28739633   2.757   3.504   4.941  0.2028 -0.1338 -0.5673
  104MOL   C28839634   2.742   3.441   5.078 -1.0346 -0.4367  0.6073
  104MOL   O28939635   2.761   3.364   4.957 -0.0431 -0.4705  0.6097
  104MOL   C29039636   2.606   3.415   5.142  0.2251 -0.1501  0.9720
  104MOL   O29139637   2.612   3.425   5.289  0.1853  0.4720  0.5372
  104MOL   C29239638   2.568   3.541   5.341 -0.0403  0.3950  0.0009
  104MOL   C29339639   2.582   3.666   5.270  0.9889 -0.0233  0.2814
  104MOL   C29439640   2.538   3.781   5.336 -0.4117 -0.4331  0.1949
  104MOL   C29539641   2.470   3.776   5.454  0.2016  0.1669  0.0777
  104MOL   C29639642   2.450   3.654   5.518  0.2231 -0.3388 -0.1192
  104MOL   C29739643   2.506   3.537   5.469 -0.8176 -0.4772 -0.0865
  104MOL   H29839644   2.848   3.555   4.911 -0.8588  2.2392  0.0449
  104MOL   H29939645   2.826   3.434   5.146  1.0257 -1.6418 -1.9902
  104MOL   H30039646   2.578   3.315   5.111  2.2687 -0.3452 -0.3829
  104MOL   H30139647   2.536   3.486   5.098  0.0592 -1.3244 -0.6923
  104MOL   H30239648   2.626   3.669   5.171  2.6062 -0.5388  0.9691
  104MOL   H30339649   2.559   3.874   5.284  0.0897 -0.9294 -0.4951
  104MOL   H30439650   2.423   3.864   5.495 -0.1587 -0.0630  0.1650
  104MOL   H30539651   2.411   3.648   5.618  0.7726  0.4057  0.1486
  104MOL   C30639652   2.496   3.407   5.541 -0.3220  0.3608  0.2805
  104MOL   C30739653   2.573   3.380   5.661  0.3774  0.4806  0.5618
  104MOL   O30839654   2.437   3.417   5.673 -0.1602  0.5235  0.7102
  104MOL   C30939655   2.665   3.475   5.729 -0.8525  0.8852  0.7569
  104MOL   O31039656   2.632   3.449   5.862  0.1241 -0.6029  0.1786
  104MOL   C31139657   2.697   3.351   5.942 -0.9323  0.0826 -0.5399
  104MOL   C31239658   2.795   3.258   5.890  1.2106 -1.1803  0.0188
  104MOL   C31339659   2.856   3.168   5.982 -0.2482  0.0525 -0.1631
  104MOL   C31439660   2.846   3.182   6.120  0.1839 -0.2032  0.5345
  104MOL   C31539661   2.757   3.276   6.170 -0.6241  0.5947  0.0696
  104MOL   C31639662   2.681   3.351   6.083 -0.0494  0.3522 -0.1334
  104MOL   H31739663   2.477   3.320   5.478  0.8501 -0.9476  1.6854
  104MOL   H31839664   2.594   3.278   5.693  1.4651  0.0524 -1.4412
  104MOL   H31939665   2.646   3.577   5.694  0.6690  0.0355 -2.7943
  104MOL   H32039666   2.766   3.462   5.691 -1.8112 -1.4905 -1.1265
  104MOL   H32139667   2.803   3.249   5.783 -0.6171  1.0650 -0.3609
  104MOL   H32239668   2.911   3.082   5.945 -0.2019 -0.9960  2.2426
  104MOL   H32339669   2.889   3.110   6.188 -0.8755 -2.6643 -1.3517
  104MOL   H32439670   2.732   3.287   6.274  0.9197  1.2355  0.3893
  104MOL   C32539671   2.588   3.454   6.131  0.3725  0.0270  0.3739
  104MOL   C32639672   2.433   3.443   6.128 -0.2602 -0.2455  0.0564
  104MOL   O32739673   2.512   3.397   6.238 -0.3559  0.1294  0.5210
  104MOL   C32839674   2.362   3.331   6.050 -0.0764 -0.3582 -0.4966
  104MOL   O32939675   2.226   3.367   6.034 -0.2834 -0.3374 -1.1829
  104MOL   C33039676   2.132   3.266   6.003  0.3825 -0.4623  0.0026
  104MOL   C33139677   2.166   3.129   5.998  0.0546 -0.1997  0.2645
  104MOL   C33239678   2.063   3.031   5.995  0.7683  0.0116 -0.1113
  104MOL   C33339679   1.936   3.073   5.960 -0.5278 -0.4646 -0.3591
  104MOL   C33439680   1.903   3.205   5.966  0.4547 -0.0391  0.0298
  104MOL   C33539681   1.994   3.308   5.984 -1.0667 -0.7248 -0.6920
  104MOL   H33639682   2.633   3.551   6.151  0.0515  0.0938  0.7999
  104MOL   H33739683   2.372   3.531   6.146  1.2393  0.8082 -0.0019
  104MOL   H33839684   2.364   3.242   6.113  0.7059 -1.3323 -1.8531
  104MOL   H33939685   2.423   3.309   5.962 -0.8264 -0.8921 -0.8944
  104MOL   H34039686   2.268   3.098   5.982 -0.7039 -1.0504 -3.2696
  104MOL   H34139687   2.082   2.925   5.985  1.2908  0.0607  0.3051
  104MOL   H34239688   1.858   3.002   5.939 -0.7717 -0.5005  0.6513
  104MOL   H34339689   1.800   3.231   5.946 -0.5663 -2.6655  1.5920
  104MOL   C34439690   1.958   3.460   5.980 -0.4522  0.0872 -0.1080
  104MOL   C34539691   1.966   3.549   5.852 -0.1585  0.3828 -0.2502
  104MOL   O34639692   1.841   3.489   5.899  0.1057 -0.1268 -0.5130
  104MOL   C34739693   2.035   3.493   5.724  0.1546 -0.5805 -0.1580
  104MOL   O34839694   1.963   3.536   5.606 -0.4866  0.1570  0.6410
  104MOL   C34939695   2.021   3.635   5.530  0.0088  0.1587 -1.0686
  104MOL   C35039696   2.095   3.745   5.589 -0.1087  0.2547  0.2212
  104MOL   C35139697   2.140   3.845   5.502 -0.0297 -0.2443 -0.3522
  104MOL   C35239698   2.128   3.842   5.361 -0.1371 -0.1881 -0.2187
  104MOL   C35339699   2.055   3.731   5.310 -0.8511 -0.5209  0.2882
  104MOL   C35439700   2.005   3.628   5.389  0.3144 -0.5421 -0.0137
  104MOL   H35539701   1.972   3.508   6.076  0.6920 -0.6070  0.0920
  104MOL   H35639702   1.953   3.657   5.849 -1.5971  0.3552  3.0122
  104MOL   H35739703   2.040   3.385   5.736  0.4184 -0.3092  2.3889
  104MOL   H35839704   2.140   3.520   5.737  0.2700 -1.7998  1.5300
  104MOL   H35939705   2.127   3.745   5.692  1.2426  0.3326 -0.1916
  104MOL   H36039706   2.197   3.926   5.547 -1.1285 -0.1363  0.8912
  104MOL   H36139707   2.166   3.919   5.296 -0.2878  1.1837  1.2812
  104MOL   H36239708   2.033   3.723   5.204  0.7060 -2.3937  0.0811
  104MOL   C36339709   1.913   3.527   5.329  0.5495  0.2434  0.0184
  104MOL   C36439710   1.767   3.522   5.361 -0.0126 -0.0977 -0.2558
  104MOL   O36539711   1.820   3.584   5.242 -0.4954 -0.1276  0.5705
  104MOL   C36639712   1.699   3.617   5.454  0.1447 -0.4810  0.5163
  104MOL   O36739713   1.552   3.602   5.452  0.2717 -0.3637  0.1980
  104MOL   C36839714   1.497   3.503   5.528 -0.5716  0.6605  0.3806
  104MOL   C36939715   1.573   3.400   5.594 -0.0190 -0.2311 -0.2005
  104MOL   C37039716   1.502   3.303   5.677  0.2707  0.1457  0.1151
  104MOL   C37139717   1.364   3.308   5.674  0.3575 -0.1493 -0.2409
  104MOL   C37239718   1.291   3.403   5.600 -0.3216  0.0488 -0.2859
  104MOL   C37339719   1.359   3.496   5.525  0.0703  0.0126  0.8319
  104MOL   H37439720   1.962   3.443   5.279  0.1881  0.4700 -0.7312
  104MOL   H37539721   1.714   3.431   5.334 -0.0741  0.0142 -0.5123
  104MOL   H37639722   1.734   3.718   5.428  0.1400 -0.4186  0.7493
  104MOL   H37739723   1.735   3.594   5.554  0.9435 -3.6012 -0.4567
  104MOL   H37839724   1.679   3.380   5.599 -0.2131 -1.3707 -0.6372
  104MOL   H37939725   1.554   3.224   5.729 -0.3484  0.5656  1.3704
  104MOL   H38039726   1.315   3.226   5.725 -1.6841  0.9143 -0.4896
  104MOL   H38139727   1.184   3.408   5.586 -0.1614  3.3354 -0.6609
  104MOL   H38239728   1.307   3.567   5.461 -0.2902  1.1409  2.3463
  105MOL     C139729   5.217   1.084   1.812  0.0346  0.2972 -0.0986
  105MOL     C239730   5.267   1.202   1.897 -0.6400  0.1331  0.2942
  105MOL     O339731   5.241   1.219   1.755  0.2803  0.0304  0.0405
  105MOL     C439732   5.408   1.213   1.933 -0.0525 -0.2163 -0.1448
  105MOL     O539733   5.420   1.197   2.067  0.3961 -0.4235 -0.3442
  105MOL     C639734   5.543   1.230   2.124 -0.6717 -0.0687 -1.0491
  105MOL     C739735   5.661   1.245   2.048  0.4150  0.2634  0.2214
  105MOL     C839736   5.789   1.262   2.110  0.4029 -0.3483 -0.4153
  105MOL     C939737   5.793   1.273   2.251  0.0450  0.6206 -0.6798
  105MOL    C1039738   5.676   1.250   2.324 -0.5138 -0.2354  0.0419
  105MOL    C1139739   5.548   1.225   2.264 -0.0954  0.4097 -0.1616
  105MOL    H1239740   5.113   1.053   1.812 -0.4271  1.6667 -2.7876
  105MOL    H1339741   5.195   1.257   1.956 -1.3957  1.2334 -1.5957
  105MOL    H1439742   5.440   1.314   1.905 -0.4228  0.2071  0.9455
  105MOL    H1539743   5.469   1.139   1.881  2.1815 -0.1772  2.3371
  105MOL    H1639744   5.669   1.249   1.940  0.3970 -0.4857  0.1927
  105MOL    H1739745   5.880   1.283   2.056 -0.0426 -0.3017 -1.1449
  105MOL    H1839746   5.891   1.286   2.295  0.0139 -1.8279  0.1954
  105MOL    H1939747   5.679   1.254   2.432 -1.7991  2.5252  0.0193
  105MOL    H2039748   5.291   1.009   1.780 -3.1745 -2.8804 -0.3924
  105MOL    C2139749   5.422   1.193   2.347  0.4152  0.4800 -0.3564
  105MOL    C2239750   5.374   1.046   2.361 -0.7453  0.4014  0.1877
  105MOL    O2339751   5.444   1.116   2.461 -0.2600 -0.1762 -0.4721
  105MOL    C2439752   5.451   0.933   2.295  0.2048  0.9422 -0.3086
  105MOL    O2539753   5.386   0.821   2.353 -0.2506  0.5938 -0.2735
  105MOL    C2639754   5.411   0.699   2.287  0.0294 -0.1376 -0.4780
  105MOL    C2739755   5.511   0.678   2.194 -1.2424  0.1570 -0.1225
  105MOL    C2839756   5.543   0.551   2.135 -0.2240 -0.5125 -0.5267
  105MOL    C2939757   5.470   0.440   2.179 -0.2206 -0.5812  0.6631
  105MOL    C3039758   5.367   0.453   2.273 -0.1685 -0.3677 -0.6139
  105MOL    C3139759   5.337   0.586   2.327 -0.4397  0.3962 -0.2196
  105MOL    H3239760   5.356   1.278   2.362 -1.0986 -0.4833 -1.4244
  105MOL    H3339761   5.272   1.020   2.390 -0.1022  0.3741  2.5308
  105MOL    H3439762   5.554   0.925   2.330 -1.5886 -2.2328  4.6358
  105MOL    H3539763   5.447   0.940   2.186  0.3482  1.7449 -0.2650
  105MOL    H3639764   5.571   0.758   2.154 -0.6363 -0.8343 -1.2216
  105MOL    H3739765   5.621   0.538   2.062 -0.7599 -1.3955 -0.9525
  105MOL    H3839766   5.502   0.343   2.145 -0.0279 -0.0801 -0.6237
  105MOL    H3939767   5.313   0.368   2.311  0.3470 -0.4515 -0.0702
  105MOL    C4039768   5.237   0.596   2.440  0.7358 -0.1620  0.1627
  105MOL    C4139769   5.112   0.678   2.434  0.5249  0.4909  0.1723
  105MOL    O4239770   5.114   0.532   2.407 -0.1438 -0.1427 -0.2652
  105MOL    C4339771   5.078   0.766   2.322  0.4324 -0.7687  0.0890
  105MOL    O4439772   4.951   0.836   2.359 -0.4751  0.1474  0.4898
  105MOL    C4539773   4.885   0.919   2.276 -0.2761 -0.5734  0.0061
  105MOL    C4639774   4.923   0.940   2.137  0.1289 -0.4170  0.4207
  105MOL    C4739775   4.859   1.030   2.058 -0.0390 -0.6297  0.1116
  105MOL    C4839776   4.748   1.093   2.106  0.3141  0.1495 -0.7692
  105MOL    C4939777   4.703   1.069   2.235  0.3502 -0.1356  0.4476
  105MOL    C5039778   4.775   0.994   2.328  0.4740  0.7630 -0.8260
  105MOL    H5139779   5.269   0.583   2.543 -1.4065 -0.0525  0.8685
  105MOL    H5239780   5.071   0.703   2.532  1.6083 -0.6365  0.9295
  105MOL    H5339781   5.068   0.709   2.230  3.7274 -2.6242  0.8020
  105MOL    H5439782   5.159   0.837   2.306  1.1959 -1.6610 -0.0395
  105MOL    H5539783   5.011   0.892   2.096 -0.3580 -1.5376  0.6886
  105MOL    H5639784   4.884   1.033   1.953  1.2084 -2.3606  0.3207
  105MOL    H5739785   4.677   1.146   2.044  0.1547  0.6769 -0.1504
  105MOL    H5839786   4.615   1.121   2.271  0.7205  0.2526  0.7908
  105MOL    C5939787   4.726   0.976   2.471 -0.2650  0.0759  0.0726
  105MOL    C6039788   4.814   1.008   2.591  0.4473 -0.1785  0.6318
  105MOL    O6139789   4.715   1.104   2.536 -0.7094  0.9774  0.2199
  105MOL    C6239790   4.955   1.064   2.585  0.3271 -0.4972 -0.3343
  105MOL    O6339791   5.049   0.979   2.647 -0.0351  0.2235  0.7448
  105MOL    C6439792   5.046   0.966   2.787  0.4360  0.3401  0.2894
  105MOL    C6539793   4.961   1.047   2.871  0.4399 -0.4852 -0.2222
  105MOL    C6639794   4.967   1.021   3.008  0.1151 -0.4140 -0.4915
  105MOL    C6739795   5.048   0.918   3.062  0.1184  0.3688  0.2463
  105MOL    C6839796   5.136   0.846   2.979  0.2277 -0.1060  0.3513
  105MOL    C6939797   5.141   0.874   2.843  0.6328 -0.2312  0.5900
  105MOL    H7039798   4.636   0.916   2.475  1.8094 -3.0131  2.1733
  105MOL    H7139799   4.787   0.957   2.683  0.8013 -1.6800 -0.0869
  105MOL    H7239800   4.948   1.163   2.629 -1.1543 -1.0608  0.7092
  105MOL    H7339801   4.994   1.088   2.485 -0.2374 -0.5713 -0.5728
  105MOL    H7439802   4.901   1.127   2.830  0.6857 -0.8220 -1.2714
  105MOL    H7539803   4.902   1.073   3.077  1.3277 -1.2502  1.3466
  105MOL    H7639804   5.056   0.904   3.169 -2.4753 -1.2703  0.2618
  105MOL    H7739805   5.210   0.777   3.017 -1.0991 -0.7068  1.8761
  105MOL    C7839806   5.251   0.821   2.754  0.7610  0.8012 -0.0655
  105MOL    C7939807   5.379   0.890   2.718  0.4215 -0.7808  0.4652
  105MOL    O8039808   5.375   0.788   2.824 -0.1378  0.4445 -0.1769
  105MOL    C8139809   5.401   1.030   2.763 -0.1564 -0.1071 -0.6861
  105MOL    O8239810   5.536   1.065   2.748  0.7414 -0.5218 -0.4792
  105MOL    C8339811   5.579   1.190   2.790  0.6075  0.0881  0.0776
  105MOL    C8439812   5.495   1.305   2.773 -0.6096  0.2612 -0.2506
  105MOL    C8539813   5.551   1.434   2.788 -0.0690  1.0161  0.1268
  105MOL    C8639814   5.683   1.447   2.828 -0.8901  0.3731 -0.0887
  105MOL    C8739815   5.765   1.333   2.840 -0.0687 -0.8205 -0.1021
  105MOL    C8839816   5.715   1.205   2.830 -0.9205 -0.0583  0.0550
  105MOL    H8939817   5.208   0.736   2.702 -0.7073  0.4439  1.6732
  105MOL    H9039818   5.433   0.862   2.629  2.7823 -2.8141  2.4620
  105MOL    H9139819   5.366   1.033   2.866  1.1610  0.9066 -0.2516
  105MOL    H9239820   5.334   1.093   2.705  1.5019  1.8289 -0.5584
  105MOL    H9339821   5.393   1.293   2.738 -1.3605 -0.1121  1.9632
  105MOL    H9439822   5.484   1.517   2.771 -2.7768 -1.2956 -0.9802
  105MOL    H9539823   5.725   1.546   2.840 -2.2519  1.1662 -1.5748
  105MOL    H9639824   5.869   1.345   2.866 -0.5811 -0.8306  2.0215
  105MOL    C9739825   5.805   1.082   2.842  0.1719 -0.1353  0.1410
  105MOL    C9839826   5.872   1.014   2.724 -0.1999 -0.3051  0.7018
  105MOL    O9939827   5.947   1.099   2.814  0.3126  0.0532  0.0958
  105MOL   C10039828   5.854   1.066   2.576 -0.5551 -0.1268  0.2067
  105MOL   O10139829   5.915   0.972   2.482  0.2230 -0.3467 -0.1477
  105MOL   C10239830   6.043   0.976   2.443  0.1173 -0.2511  0.2592
  105MOL   C10339831   6.139   1.072   2.489 -0.3066  0.9660  0.3373
  105MOL   C10439832   6.272   1.067   2.444  0.6107 -0.2000  0.7363
  105MOL   C10539833   6.308   0.973   2.344 -0.1536 -0.2074  0.5447
  105MOL   C10639834   6.218   0.879   2.299  0.2477 -0.3608 -0.0318
  105MOL   C10739835   6.087   0.875   2.353 -0.1185  0.3552  0.0353
  105MOL   H10839836   5.793   1.031   2.937 -1.1584 -0.2858 -0.0984
  105MOL   H10939837   5.899   0.909   2.733 -0.0886 -0.3928 -0.5929
  105MOL   H11039838   5.892   1.168   2.568 -4.1969  1.2961  0.1457
  105MOL   H11139839   5.748   1.071   2.552 -0.3127  1.9009 -0.5132
  105MOL   H11239840   6.109   1.144   2.563  0.2862  1.2094  0.3408
  105MOL   H11339841   6.340   1.131   2.498  1.6186 -0.4844 -0.1940
  105MOL   H11439842   6.411   0.965   2.311 -0.4249  0.4199 -0.4876
  105MOL   H11539843   6.249   0.816   2.217 -0.3471 -1.3802  0.5201
  105MOL   C11639844   5.984   0.776   2.311  0.1686  0.1444 -0.0586
  105MOL   C11739845   5.904   0.783   2.182 -0.5643  0.3125  0.5036
  105MOL   O11839846   6.009   0.684   2.204  0.4924  0.4708  0.1037
  105MOL   C11939847   5.931   0.888   2.071 -0.8667 -0.1494  0.0954
  105MOL   O12039848   5.900   0.834   1.937 -0.1411 -0.2129  0.1959
  105MOL   C12139849   5.769   0.825   1.900  0.4068 -0.3351 -0.2382
  105MOL   C12239850   5.663   0.895   1.966  0.3376 -0.7856  0.3057
  105MOL   C12339851   5.540   0.873   1.924 -0.6936  0.0632 -0.9286
  105MOL   C12439852   5.502   0.795   1.815 -0.6064  0.0318  0.2532
  105MOL   C12539853   5.605   0.732   1.742  0.5175 -0.1803 -0.7720
  105MOL   C12639854   5.738   0.746   1.787 -0.5038  0.0173 -0.8487
  105MOL   H12739855   5.932   0.747   2.401  2.2853 -2.6651  0.3162
  105MOL   H12839856   5.799   0.757   2.199 -0.2763  1.3465  4.4177
  105MOL   H12939857   6.037   0.913   2.077 -0.3113 -1.7255 -2.1220
  105MOL   H13039858   5.875   0.977   2.098 -3.0652 -1.8268  1.2116
  105MOL   H13139859   5.694   0.963   2.044 -0.8618 -0.6081  0.6309
  105MOL   H13239860   5.468   0.925   1.985  0.6232 -0.4002  1.0804
  105MOL   H13339861   5.398   0.785   1.791 -0.6144 -1.1691  0.7553
  105MOL   H13439862   5.585   0.667   1.658  1.2583 -0.8662 -0.4229
  105MOL   C13539863   5.843   0.668   1.718 -0.0161 -0.5920 -0.2462
  105MOL   C13639864   5.931   0.561   1.774 -0.3153  0.8336  0.9036
  105MOL   O13739865   5.810   0.535   1.702  0.6492  0.1406 -0.1772
  105MOL   C13839866   5.925   0.520   1.919  0.4700 -0.2413 -0.4591
  105MOL   O13939867   5.955   0.386   1.959  0.0169 -0.4132 -0.0316
  105MOL   C14039868   5.858   0.284   1.970 -0.6405 -0.5101  0.1557
  105MOL   C14139869   5.738   0.290   1.901 -0.9667  0.7017 -0.1053
  105MOL   C14239870   5.648   0.179   1.899 -0.1412 -0.0522  0.0083
  105MOL   C14339871   5.670   0.069   1.985  0.0118 -0.2460 -0.3982
  105MOL   C14439872   5.785   0.070   2.070  0.8952  0.1978 -0.2167
  105MOL   C14539873   5.881   0.171   2.048 -0.2615 -0.1951 -0.0274
  105MOL   H14639874   5.873   0.713   1.623 -2.0168  0.4691 -0.4162
  105MOL   H14739875   6.014   0.518   1.718 -0.9478 -1.9847  2.0045
  105MOL   H14839876   5.827   0.538   1.963  0.7511  1.6835 -0.5891
  105MOL   H14939877   5.978   0.597   1.975  2.3248 -2.1969  0.5281
  105MOL   H15039878   5.720   0.377   1.840 -0.2686  0.2462 -0.9759
  105MOL   H15139879   5.565   0.174   1.829  1.3317 -1.9829 -1.6438
  105MOL   H15239880   5.603   8.154   1.980  0.5656 -0.7276  0.2372
  105MOL   H15339881   5.796   8.159   2.140 -0.6307 -0.3036 -0.5365
  105MOL   C15439882   6.005   0.168   2.138  0.4993  0.1525 -0.1557
  105MOL   C15539883   6.016   0.256   2.262  0.7522 -0.0288 -0.1976
  105MOL   O15639884   5.970   0.124   2.274 -0.4048 -0.0281  0.1352
  105MOL   C15739885   5.913   0.353   2.308  0.5140 -0.3697 -0.2052
  105MOL   O15839886   5.942   0.389   2.444 -0.1024 -0.0581 -0.0470
  105MOL   C15939887   5.877   0.496   2.499  0.7301  0.0174  0.1936
  105MOL   C16039888   5.755   0.551   2.452 -0.1031 -0.1496 -0.7593
  105MOL   C16139889   5.686   0.646   2.530 -0.3382 -0.8467 -0.0521
  105MOL   C16239890   5.746   0.698   2.644 -0.7506 -0.8435 -0.4003
  105MOL   C16339891   5.872   0.650   2.687  0.0061 -0.2460 -0.5252
  105MOL   C16439892   5.932   0.539   2.621  0.4796  0.6497  0.8008
  105MOL   H16539893   6.078   0.103   2.090  0.7012  1.0016 -1.0225
  105MOL   H16639894   6.112   0.271   2.310  0.3071  0.9038  0.4091
  105MOL   H16739895   5.816   0.314   2.276 -0.2923  1.3097  0.1559
  105MOL   H16839896   5.929   0.442   2.248 -0.3562 -1.1244 -1.5851
  105MOL   H16939897   5.705   0.497   2.373 -0.2306 -0.7037 -0.2989
  105MOL   H17039898   5.588   0.684   2.507 -0.1542 -1.0471 -1.2188
  105MOL   H17139899   5.700   0.785   2.688  0.4385 -0.6995  0.5631
  105MOL   H17239900   5.909   0.685   2.782 -0.7184  1.5348 -0.8818
  105MOL   C17339901   6.056   0.469   2.671  0.7126 -0.4133 -1.1632
  105MOL   C17439902   6.195   0.522   2.683  0.0810  0.4911  0.5812
  105MOL   O17539903   6.106   0.528   2.796  0.6239  0.3787  0.2481
  105MOL   C17639904   6.241   0.654   2.623 -0.1148 -0.6406  1.0440
  105MOL   O17739905   6.381   0.634   2.587  0.1073 -0.4886  0.8385
  105MOL   C17839906   6.412   0.563   2.467  0.6985 -0.3899  0.6437
  105MOL   C17939907   6.320   0.522   2.364  1.1972  0.0684 -0.0253
  105MOL   C18039908   6.361   0.450   2.251 -0.5228 -0.5995 -0.2674
  105MOL   C18139909   6.499   0.412   2.238  0.6316 -0.3245  0.2709
  105MOL   C18239910   6.584   0.444   2.338  0.3438 -0.0084 -0.2427
  105MOL   C18339911   6.541   0.524   2.443 -0.3451  0.1932 -0.3747
  105MOL   H18439912   6.025   0.365   2.675  0.2505 -0.2477 -0.4528
  105MOL   H18539913   6.271   0.444   2.688  2.2179  2.4227 -1.0213
  105MOL   H18639914   6.240   0.730   2.701  0.3437 -1.8393  2.2381
  105MOL   H18739915   6.176   0.698   2.548  1.3663 -0.7564 -0.3352
  105MOL   H18839916   6.221   0.565   2.359  0.8825 -0.6914 -0.2720
  105MOL   H18939917   6.282   0.425   2.182  0.9599 -1.0609 -1.8682
  105MOL   H19039918   6.544   0.357   2.157  0.6095 -1.4455  1.0064
  105MOL   H19139919   6.687   0.410   2.339  0.3660  0.0554 -0.3880
  105MOL   C19239920   6.643   0.579   2.537 -0.7359  0.0044 -0.3463
  105MOL   C19339921   6.724   0.489   2.635 -0.3269  0.3760  0.2082
  105MOL   O19439922   6.776   0.528   2.511 -0.6849 -0.4075  0.0522
  105MOL   C19539923   6.700   0.341   2.661 -0.2525  0.3767 -0.2674
  105MOL   O19639924   6.796   0.284   2.746  0.1696  0.1659 -0.2712
  105MOL   C19739925   6.787   0.313   2.885  0.1945 -0.4447 -0.0020
  105MOL   C19839926   6.675   0.380   2.943 -0.0907 -0.3635  0.1869
  105MOL   C19939927   6.666   0.397   3.085 -0.4713 -0.1368 -0.0376
  105MOL   C20039928   6.773   0.352   3.172  0.8411 -0.0101 -0.7427
  105MOL   C20139929   6.885   0.291   3.110  0.2590  0.2584  0.3718
  105MOL   C20239930   6.889   0.264   2.970  0.0119  0.0143 -0.0149
  105MOL   H20339931   6.640   0.688   2.535 -2.3829 -0.0334 -0.9889
  105MOL   H20439932   6.770   0.544   2.717  2.0990 -0.0596 -0.8232
  105MOL   H20539933   6.708   0.288   2.566  1.8010 -0.6559  0.4541
  105MOL   H20639934   6.597   0.322   2.693 -0.7032  2.6150 -0.2879
  105MOL   H20739935   6.601   0.429   2.881 -0.7313 -0.6635  0.7075
  105MOL   H20839936   6.580   0.442   3.133 -1.0463 -1.4853  0.2205
  105MOL   H20939937   6.769   0.363   3.279  1.3328 -0.3423 -0.6884
  105MOL   H21039938   6.958   0.258   3.183  0.5278  3.0924  1.4558
  105MOL   C21139939   6.993   0.171   2.923  0.4518  0.3979  0.6236
  105MOL   C21239940   7.123   0.230   2.878  0.0101 -0.5240 -0.6923
  105MOL   O21339941   7.106   0.174   3.012 -0.8883 -0.2348  0.1847
  105MOL   C21439942   7.157   0.374   2.867  0.4950  0.2092 -0.0960
  105MOL   O21539943   7.273   0.404   2.791 -0.1974  0.6285 -0.2961
  105MOL   C21639944   7.394   0.380   2.839  0.2902 -0.3292 -0.2429
  105MOL   C21739945   7.416   0.295   2.952  0.5728 -0.7002  0.1028
  105MOL   C21839946   7.544   0.260   2.992 -0.0089 -0.4599 -0.0593
  105MOL   C21939947   7.658   0.309   2.921 -0.7265 -0.3808  0.0443
  105MOL   C22039948   7.638   0.390   2.808 -0.5566  0.7742  0.3106
  105MOL   C22139949   7.510   0.427   2.767  0.1212  1.1726 -0.4792
  105MOL   H22239950   6.958   0.070   2.901  0.9126 -0.2697  2.8407
  105MOL   H22339951   7.177   0.166   2.808 -0.2388 -0.8420 -0.5939
  105MOL   H22439952   7.133   0.432   2.956  0.0980  0.4448 -0.3566
  105MOL   H22539953   7.079   0.407   2.799 -1.6238 -0.0222  2.1658
  105MOL   H22639954   7.338   0.255   3.014  0.4362 -2.8267 -1.3764
  105MOL   H22739955   7.554   0.200   3.081 -0.9568 -2.7585 -1.4626
  105MOL   H22839956   7.756   0.268   2.941  0.0449  1.3957 -0.0388
  105MOL   H22939957   7.723   0.420   2.749  1.1979 -1.4723  1.6225
  105MOL   C23039958   7.483   0.520   2.655 -0.0059  0.6470 -0.0320
  105MOL   C23139959   7.529   0.660   2.662 -0.2514 -0.4139  0.1951
  105MOL   O23239960   7.609   0.557   2.590 -0.5530 -0.2595 -0.3886
  105MOL   C23339961   7.606   0.720   2.775 -0.0901  0.3893 -0.0896
  105MOL   O23439962   7.655   0.844   2.726  0.0887  0.8777 -0.3687
  105MOL   C23539963   7.573   0.954   2.731 -0.2089  0.2709  0.0791
  105MOL   C23639964   7.432   0.947   2.768 -0.2076 -0.5730  0.4703
  105MOL   C23739965   7.350   1.067   2.758 -0.0374  0.6035 -0.6105
  105MOL   C23839966   7.410   1.183   2.720  0.0394 -0.3387 -0.3728
  105MOL   C23939967   7.545   1.194   2.677 -0.8510 -0.1047  0.0364
  105MOL   C24039968   7.628   1.081   2.693  0.6591  0.2139  0.6535
  105MOL   H24139969   7.393   0.497   2.598  0.8774 -1.4104 -0.6569
  105MOL   H24239970   7.476   0.729   2.598  0.1379  0.1349  0.4620
  105MOL   H24339971   7.686   0.656   2.813  1.4864  1.9557 -0.7369
  105MOL   H24439972   7.539   0.741   2.858 -0.5610  1.6736 -0.7785
  105MOL   H24539973   7.388   0.856   2.805 -0.2550  0.2999  2.6345
  105MOL   H24639974   7.252   1.058   2.801  0.4088 -3.5152 -0.2177
  105MOL   H24739975   7.351   1.273   2.726 -0.0093 -0.2731 -1.6758
  105MOL   H24839976   7.592   1.289   2.656  0.1113 -0.1778  1.7577
  105MOL   C24939977   7.771   1.107   2.666 -0.1056 -0.0884  0.4368
  105MOL   C25039978   7.836   1.047   2.543  0.3801  1.3537 -0.2691
  105MOL   O25139979   7.803   1.190   2.548  0.2428  0.3516 -0.0743
  105MOL   C25239980   7.771   0.962   2.436 -0.5723  0.1533  0.2856
  105MOL   O25339981   7.772   1.011   2.297 -0.1560  0.4868 -0.2392
  105MOL   C25439982   7.878   0.973   2.209 -0.3909  0.2776  0.0588
  105MOL   C25539983   7.987   0.883   2.247  0.9433 -0.0085 -0.0336
  105MOL   C25639984   8.083   0.839   2.160  0.4932  0.5556 -0.6924
  105MOL   C25739985   8.084   0.881   2.026  0.3718 -0.1337  0.0300
  105MOL   C25839986   7.986   0.976   1.988 -0.5109 -0.0885  0.5129
  105MOL   C25939987   7.881   1.017   2.072 -0.2471 -0.0711  0.0109
  105MOL   H26039988   7.837   1.112   2.752 -1.0474  0.7839  1.1177
  105MOL   H26139989   7.941   1.020   2.551  0.1434 -0.0632 -1.6197
  105MOL   H26239990   7.665   0.953   2.460 -0.2480  0.8146  2.0162
  105MOL   H26339991   7.799   0.857   2.441 -0.9672 -0.0547 -1.3139
  105MOL   H26439992   7.995   0.852   2.350 -0.4265 -1.2371 -0.2774
  105MOL   H26539993   8.152   0.771   2.208  0.1764  0.0712 -0.9230
  105MOL   H26639994   8.154   0.834   1.959  0.6177  2.6723 -1.7559
  105MOL   H26739995   7.985   1.019   1.889  0.2525  0.6207  0.8071
  105MOL   C26839996   7.778   1.105   2.016  0.4095  1.0904 -1.1664
  105MOL   C26939997   7.749   1.252   2.060 -0.6297  0.8674 -0.3312
  105MOL   O27039998   7.826   1.210   1.938 -0.4358 -0.2547 -0.4256
  105MOL   C27139999   7.817   1.319   2.181  0.4478 -0.3668  0.6541
  105MOL   O27240000   7.840   1.459   2.156 -0.1854  0.3271 -0.7636
  105MOL   C27340001   7.901   1.537   2.250  0.6319  0.3913  0.4109
  105MOL   C27440002   7.944   1.494   2.376 -0.2212 -0.0524  0.6929
  105MOL   C27540003   8.003   1.584   2.466 -0.0842 -0.0287 -0.9662
  105MOL   C27640004   8.000   1.721   2.438  0.2213  0.3967  0.1192
  105MOL   C27740005   7.955   1.765   2.311  0.6090  0.5308 -0.2620
  105MOL   C27840006   7.918   1.672   2.210 -0.6038 -0.0677 -0.4767
  105MOL   H27940007   7.705   1.036   1.975  0.0171  0.0561  1.2419
  105MOL   H28040008   7.653   1.296   2.033  0.5879  2.5479 -2.0571
  105MOL   H28140009   7.897   1.262   2.227  0.2761  0.7898  2.4329
  105MOL   H28240010   7.742   1.313   2.259  0.3585  1.9115  0.8019
  105MOL   H28340011   7.948   1.389   2.403  0.7817  0.3564  2.1525
  105MOL   H28440012   8.053   1.547   2.554  1.3648  0.5489 -1.5453
  105MOL   H28540013   8.038   1.793   2.509 -1.7514  1.2762  0.3113
  105MOL   H28640014   7.966   1.869   2.287 -2.6138  1.1307  0.7351
  105MOL   C28740015   7.888   1.729   2.072  0.1019  0.7559 -0.1546
  105MOL   C28840016   7.764   1.806   2.031 -0.9142 -0.1961  0.2630
  105MOL   O28940017   7.891   1.867   2.064  0.6134  0.0509 -0.7006
  105MOL   C29040018   7.654   1.826   2.123 -0.4034  0.1981 -0.3898
  105MOL   O29140019   7.549   1.894   2.067 -0.1638  0.3757 -0.5954
  105MOL   C29240020   7.566   2.027   2.027  0.1526  0.0625  0.0415
  105MOL   C29340021   7.615   2.128   2.113 -0.5406 -0.1013  0.2188
  105MOL   C29440022   7.616   2.258   2.063  0.0596 -0.4632 -0.4441
  105MOL   C29540023   7.584   2.288   1.929  0.0564  0.2051  0.2586
  105MOL   C29640024   7.531   2.184   1.845  0.1664 -0.5438  0.0219
  105MOL   C29740025   7.524   2.053   1.896  0.1799  0.4838 -0.1268
  105MOL   H29840026   7.948   1.687   1.991 -1.4661  1.3561 -1.6690
  105MOL   H29940027   7.735   1.805   1.926 -0.9464 -1.7013  0.2781
  105MOL   H30040028   7.689   1.882   2.210 -1.0593 -0.5713  0.3761
  105MOL   H30140029   7.614   1.728   2.148 -1.6071  0.6330 -0.5458
  105MOL   H30240030   7.645   2.100   2.213  1.8299 -0.7012 -0.6352
  105MOL   H30340031   7.664   2.337   2.117  2.3592 -0.7129 -2.0338
  105MOL   H30440032   7.586   2.391   1.897  0.1592 -0.1473 -0.8943
  105MOL   H30540033   7.503   2.201   1.743  1.5057  0.6124 -0.1634
  105MOL   C30640034   7.477   1.936   1.808 -0.1575  0.7198 -0.6054
  105MOL   C30740035   7.336   1.927   1.754  0.1561  0.0022 -0.0308
  105MOL   O30840036   7.443   1.987   1.680  0.1949  0.5081  0.0090
  105MOL   C30940037   7.212   2.019   1.784  0.2613 -0.4322 -0.4580
  105MOL   O31040038   7.218   2.113   1.891 -0.0872  0.0628  0.1667
  105MOL   C31140039   7.201   2.068   2.017 -0.0681 -0.2481  0.7580
  105MOL   C31240040   7.204   1.935   2.061 -0.2153  0.3352  0.8495
  105MOL   C31340041   7.188   1.898   2.194  0.8317 -0.3725  0.1317
  105MOL   C31440042   7.174   1.999   2.290 -0.0620  0.3103 -0.0882
  105MOL   C31540043   7.183   2.139   2.255  0.1108  0.1431  0.2392
  105MOL   C31640044   7.188   2.166   2.119  0.3595  0.1015  0.2828
  105MOL   H31740045   7.554   1.865   1.782 -0.6462  0.6635 -1.9207
  105MOL   H31840046   7.304   1.838   1.701  1.1713  0.8199 -2.0907
  105MOL   H31940047   7.127   1.952   1.795  0.2214 -0.1266  1.2079
  105MOL   H32040048   7.190   2.086   1.701 -0.2417  0.1544  0.1446
  105MOL   H32140049   7.212   1.857   1.987  0.6631  1.8548 -0.7217
  105MOL   H32240050   7.174   1.802   2.240 -0.0340 -0.7736 -0.9613
  105MOL   H32340051   7.152   1.978   2.394 -0.9995 -0.4999 -0.4444
  105MOL   H32440052   7.176   2.218   2.328  0.0833  0.8304 -0.5085
  105MOL   C32540053   7.206   2.305   2.076 -0.0638  0.0467 -0.1189
  105MOL   C32640054   7.092   2.391   2.029 -0.3240  0.6221 -0.6389
  105MOL   O32740055   7.136   2.399   2.163  0.7480 -0.3146  0.1616
  105MOL   C32840056   6.949   2.343   2.005 -0.5331 -0.3578  0.2457
  105MOL   O32940057   6.877   2.443   1.921 -0.3913  0.5102  0.1777
  105MOL   C33040058   6.894   2.437   1.783  0.0287 -0.1507  0.2244
  105MOL   C33140059   6.987   2.353   1.713 -0.3061 -0.2659  0.6137
  105MOL   C33240060   6.981   2.338   1.573 -0.5394 -0.8119 -0.1089
  105MOL   C33340061   6.896   2.431   1.499 -0.2631  0.2892 -0.1117
  105MOL   C33440062   6.809   2.513   1.572 -0.7684 -0.7823 -0.2963
  105MOL   C33540063   6.812   2.528   1.711 -0.1491  0.3296  0.3162
  105MOL   H33640064   7.310   2.329   2.052 -0.1969 -0.7781 -1.6031
  105MOL   H33740065   7.131   2.465   1.959  0.5454  0.8727  0.1049
  105MOL   H33840066   6.892   2.328   2.097  1.5187  0.3634  1.6778
  105MOL   H33940067   6.946   2.243   1.961 -0.7049  0.3526 -1.3694
  105MOL   H34040068   7.050   2.287   1.772 -0.2149  0.2819  1.1251
  105MOL   H34140069   7.049   2.277   1.516  0.6867 -1.6291  2.1706
  105MOL   H34240070   6.893   2.439   1.391 -1.8296 -0.1089 -0.1104
  105MOL   H34340071   6.751   2.585   1.517  0.2922  0.5306  0.2804
  105MOL   C34440072   6.706   2.610   1.778 -0.3626 -0.0460 -0.7009
  105MOL   C34540073   6.740   2.741   1.843  0.0600 -0.2136 -0.8511
  105MOL   O34640074   6.666   2.741   1.720 -0.0419  0.6907  0.0307
  105MOL   C34740075   6.885   2.788   1.831 -0.3665 -0.0476 -0.6913
  105MOL   O34840076   6.902   2.904   1.921 -0.1459 -0.1369 -0.2107
  105MOL   C34940077   6.823   3.015   1.912 -0.4966  0.3247 -0.2417
  105MOL   C35040078   6.749   3.056   1.797  0.3112  0.2386 -0.1928
  105MOL   C35140079   6.673   3.175   1.792 -0.4820 -0.0538 -0.7110
  105MOL   C35240080   6.665   3.243   1.910  0.1207  0.2994  0.2715
  105MOL   C35340081   6.737   3.211   2.027  0.8604 -0.8271 -0.0507
  105MOL   C35440082   6.823   3.102   2.024 -0.1498 -0.3563  0.3691
  105MOL   H35540083   6.620   2.549   1.805  1.2005 -2.3551 -0.8057
  105MOL   H35640084   6.682   2.772   1.930  2.4761  0.4063  0.5886
  105MOL   H35740085   6.914   2.815   1.729 -0.4292 -1.1388 -0.9990
  105MOL   H35840086   6.944   2.702   1.862  0.5049  0.7024 -0.2358
  105MOL   H35940087   6.759   2.995   1.708 -0.2940 -0.0336 -0.0804
  105MOL   H36040088   6.623   3.198   1.698  0.0040 -0.9641 -1.2041
  105MOL   H36140089   6.605   3.330   1.930 -1.4640 -0.5798 -0.5703
  105MOL   H36240090   6.731   3.274   2.115  1.1273 -1.6046  0.5294
  105MOL   C36340091   6.920   3.086   2.141 -0.3108  0.0792  0.4214
  105MOL   C36440092   7.064   3.132   2.138 -0.5232  0.3491  0.3501
  105MOL   O36540093   6.963   3.208   2.205  0.2354  0.0862  0.0041
  105MOL   C36640094   7.133   3.189   2.019  0.6331  0.2359  0.3795
  105MOL   O36740095   7.273   3.186   2.047  0.3038  0.2321 -0.3390
  105MOL   C36840096   7.353   3.243   1.947  0.1595  0.3780 -0.3928
  105MOL   C36940097   7.301   3.282   1.822  0.0593  0.5749 -0.3489
  105MOL   C37040098   7.392   3.315   1.718  0.6783  0.3061  0.4117
  105MOL   C37140099   7.529   3.301   1.736  0.1076  0.9263 -0.8769
  105MOL   C37240100   7.580   3.260   1.860  0.0397  0.2612  0.0616
  105MOL   C37340101   7.491   3.239   1.968  0.2066  0.2356 -0.0243
  105MOL   H37440102   6.894   3.002   2.205 -0.8319  1.0521  1.5089
  105MOL   H37540103   7.132   3.071   2.197 -0.1839  0.9529  0.5858
  105MOL   H37640104   7.102   3.293   2.022  0.7289  0.2461  1.1212
  105MOL   H37740105   7.105   3.149   1.921  2.4742  2.9700 -1.3210
  105MOL   H37840106   7.195   3.301   1.813 -0.6174 -2.2882  0.9109
  105MOL   H37940107   7.357   3.344   1.620  1.3480  0.3720  0.1920
  105MOL   H38040108   7.601   3.320   1.657  1.8993  1.0635  0.7572
  105MOL   H38140109   7.683   3.238   1.884 -0.5501 -2.1893  0.4975
  105MOL   H38240110   7.528   3.214   2.066 -1.0356 -0.9163  0.1677
  106MOL     C140111   1.456   6.539   5.137  0.0699  0.3615 -0.9132
  106MOL     C240112   1.596   6.480   5.146 -0.1966 -0.2395  0.1936
  106MOL     O340113   1.487   6.436   5.228  0.1526  0.5089  1.0617
  106MOL     C440114   1.699   6.562   5.220 -0.4261  0.3981  0.1215
  106MOL     O540115   1.643   6.684   5.275 -0.0563  0.2801 -0.2189
  106MOL     C640116   1.716   6.806   5.281  0.1593 -0.8261 -0.0295
  106MOL     C740117   1.860   6.811   5.270 -0.3953  1.0104 -0.8009
  106MOL     C840118   1.933   6.931   5.277 -0.4315  0.5562  0.0718
  106MOL     C940119   1.860   7.051   5.285 -0.8777 -0.5543 -0.0859
  106MOL    C1040120   1.721   7.046   5.297  0.0015 -0.6975  0.0311
  106MOL    C1140121   1.647   6.924   5.299 -0.4358  0.2919 -0.4353
  106MOL    H1240122   1.391   6.513   5.053 -2.3891  1.3595  0.6229
  106MOL    H1340123   1.639   6.406   5.079  1.9604  0.1189  1.1641
  106MOL    H1440124   1.778   6.586   5.149 -0.5691  1.6001  0.3502
  106MOL    H1540125   1.736   6.501   5.302  2.7735  1.1718 -0.6776
  106MOL    H1640126   1.907   6.714   5.268 -3.2130 -0.4414  0.3287
  106MOL    H1740127   2.041   6.934   5.280 -0.4320 -0.6353  2.7826
  106MOL    H1840128   1.913   7.146   5.288 -0.0214 -0.9961 -1.0455
  106MOL    H1940129   1.653   7.130   5.304 -2.5981 -2.5378 -2.1420
  106MOL    H2040130   1.434   6.634   5.184 -0.5476  0.1669 -0.8008
  106MOL    C2140131   1.497   6.943   5.312  0.0245 -0.7221  0.4174
  106MOL    C2240132   1.425   6.998   5.433 -0.7287 -0.3869 -0.2237
  106MOL    O2340133   1.433   7.073   5.312 -0.1461 -0.4751 -0.0879
  106MOL    C2440134   1.491   7.043   5.561 -0.1228  0.2285 -0.0225
  106MOL    O2540135   1.394   7.117   5.636 -0.0169 -0.2824 -0.1451
  106MOL    C2640136   1.294   7.052   5.706 -0.5630 -0.1086 -0.0256
  106MOL    C2740137   1.310   6.927   5.768  0.2710 -0.0807 -0.1442
  106MOL    C2840138   1.217   6.877   5.861 -0.2354 -0.2972 -0.1516
  106MOL    C2940139   1.101   6.945   5.887  0.2609  0.3507  0.2052
  106MOL    C3040140   1.081   7.068   5.829  0.9295  0.1107  0.0374
  106MOL    C3140141   1.177   7.124   5.743 -0.1763  0.2388  0.5668
  106MOL    H3240142   1.437   6.872   5.255 -1.3362 -0.5063  1.5434
  106MOL    H3340143   1.324   6.964   5.453 -0.3675 -1.3498 -0.0458
  106MOL    H3440144   1.582   7.101   5.544  0.1004  0.2567  1.2259
  106MOL    H3540145   1.534   6.958   5.613 -0.7297 -0.5436 -0.7551
  106MOL    H3640146   1.396   6.868   5.742  1.2589  1.3909 -0.3012
  106MOL    H3740147   1.233   6.787   5.919  0.3934 -0.0066  0.1281
  106MOL    H3840148   1.036   6.904   5.964  2.2127  1.0583  2.2955
  106MOL    H3940149   0.997   7.133   5.849  1.5742  0.6734  0.9482
  106MOL    C4040150   1.169   7.271   5.706  0.0693 -1.0137  0.0477
  106MOL    C4140151   1.146   7.313   5.559  0.4476 -0.1085  0.3809
  106MOL    O4240152   1.045   7.326   5.653  0.1332 -0.7543 -0.1370
  106MOL    C4340153   1.113   7.210   5.449 -0.7029 -0.6070  0.2963
  106MOL    O4440154   1.089   7.271   5.326 -0.0332 -0.3312  0.1329
  106MOL    C4540155   0.969   7.264   5.261 -0.0012  0.2093  0.0582
  106MOL    C4640156   0.847   7.198   5.309 -0.5266 -0.0226  0.3797
  106MOL    C4740157   0.729   7.203   5.227 -0.1735 -0.3982  0.1454
  106MOL    C4840158   0.724   7.266   5.100  0.0847  0.3247  0.0371
  106MOL    C4940159   0.845   7.320   5.053 -0.2152  0.5875 -0.0709
  106MOL    C5040160   0.963   7.321   5.131  0.5301  0.2376 -0.5336
  106MOL    H5140161   1.231   7.340   5.764 -0.2163 -1.9217  1.4603
  106MOL    H5240162   1.189   7.410   5.531  0.8164 -0.0909  1.0099
  106MOL    H5340163   1.034   7.143   5.485  0.2012 -1.5926  0.4811
  106MOL    H5440164   1.199   7.147   5.428  0.3010  1.5958 -2.3277
  106MOL    H5540165   0.850   7.155   5.408  2.5724 -1.2323 -0.1812
  106MOL    H5640166   0.638   7.154   5.259 -0.7513  0.9812  0.6672
  106MOL    H5740167   0.634   7.276   5.041  2.5674  1.0457 -3.8145
  106MOL    H5840168   0.845   7.383   4.966 -0.8368  1.6095  0.6591
  106MOL    C5940169   1.085   7.389   5.086 -0.2658  0.2719 -0.5456
  106MOL    C6040170   1.195   7.302   5.027  1.1137  0.2794 -0.5036
  106MOL    O6140171   1.102   7.380   4.944 -0.5106  0.2796  0.4442
  106MOL    C6240172   1.181   7.152   5.027 -0.3462  0.1429 -0.2818
  106MOL    O6340173   1.272   7.091   4.933 -0.5151  0.3835  0.0059
  106MOL    C6440174   1.270   6.961   4.911 -0.1280 -0.0336 -0.1930
  106MOL    C6540175   1.210   6.877   5.011 -0.3308 -0.0899  0.3300
  106MOL    C6640176   1.202   6.738   4.985  0.7040  0.2122 -0.1420
  106MOL    C6740177   1.252   6.685   4.865 -0.5128 -0.1004 -0.5931
  106MOL    C6840178   1.320   6.770   4.780  0.2827  0.0974 -0.1124
  106MOL    C6940179   1.332   6.907   4.798 -0.1906 -0.8002 -0.6561
  106MOL    H7040180   1.106   7.484   5.133 -2.2558  1.5474 -2.1215
  106MOL    H7140181   1.295   7.344   5.016  1.1396  0.3778  0.1411
  106MOL    H7240182   1.078   7.124   5.003 -0.1102 -0.8886 -0.0929
  106MOL    H7340183   1.215   7.120   5.126 -0.1772 -0.3986 -0.5123
  106MOL    H7440184   1.172   6.909   5.107 -0.3693 -3.0098  1.3223
  106MOL    H7540185   1.169   6.667   5.059  1.6522 -0.7778 -0.6664
  106MOL    H7640186   1.236   6.582   4.838 -2.4892  0.1397 -0.4470
  106MOL    H7740187   1.378   6.737   4.695  0.6316  1.1655 -0.3015
  106MOL    C7840188   1.398   6.988   4.689  0.2453  0.5253 -0.1416
  106MOL    C7940189   1.523   7.070   4.716  0.4503  0.0495  0.6928
  106MOL    O8040190   1.533   6.934   4.669  0.4866  0.4775  1.2115
  106MOL    C8140191   1.578   7.101   4.855  0.6398  0.8485 -0.1816
  106MOL    O8240192   1.702   7.174   4.857  0.2740 -0.5296  0.7755
  106MOL    C8340193   1.823   7.108   4.843 -0.0951 -0.0509 -0.6098
  106MOL    C8440194   1.837   6.965   4.840 -0.5767  0.1720 -0.3814
  106MOL    C8540195   1.963   6.902   4.831 -0.1586 -0.3847 -0.1816
  106MOL    C8640196   2.081   6.982   4.818 -0.3337  0.0002  0.3028
  106MOL    C8740197   2.072   7.126   4.817  0.2701 -0.4635  0.6131
  106MOL    C8840198   1.943   7.186   4.836  0.3436 -0.6462 -0.2054
  106MOL    H8940199   1.347   7.001   4.594  1.3967 -0.1996 -0.8675
  106MOL    H9040200   1.545   7.145   4.640  0.4874  2.0694  2.6424
  106MOL    H9140201   1.585   7.014   4.920  1.7891  0.4216 -0.8850
  106MOL    H9240202   1.501   7.160   4.906 -1.9225 -2.5891  0.0734
  106MOL    H9340203   1.751   6.899   4.834  1.5719 -2.8075  0.4649
  106MOL    H9440204   1.968   6.795   4.822 -2.8398 -0.4675 -1.2760
  106MOL    H9540205   2.178   6.935   4.808  1.0832  2.6747  1.0898
  106MOL    H9640206   2.161   7.184   4.802  0.8462 -1.0305  1.7923
  106MOL    C9740207   1.930   7.333   4.839  0.0944  0.2369 -0.2564
  106MOL    C9840208   1.919   7.410   4.966 -0.1305  0.2288  0.7651
  106MOL    O9940209   2.044   7.398   4.903  0.2439  0.7326  0.4064
  106MOL   C10040210   1.895   7.329   5.095  0.2523  0.3428  0.6095
  106MOL   O10140211   1.880   7.419   5.213  0.5569  0.1071  0.2860
  106MOL   C10240212   1.760   7.422   5.283 -0.3552 -0.1611  0.2084
  106MOL   C10340213   1.636   7.391   5.230 -0.4216  0.6649  0.5880
  106MOL   C10440214   1.524   7.393   5.307 -0.2439 -0.5074 -0.1865
  106MOL   C10540215   1.529   7.429   5.442 -0.2785  0.5210 -0.6046
  106MOL   C10640216   1.658   7.464   5.494 -0.6076  0.1875 -0.1807
  106MOL   C10740217   1.774   7.464   5.416  0.3655  0.2464  0.4640
  106MOL   H10840218   1.926   7.376   4.739  0.6965 -1.9850 -1.2747
  106MOL   H10940219   1.884   7.513   4.968 -0.1168  0.2232  1.5849
  106MOL   H11040220   1.984   7.269   5.115 -1.8894 -3.0203  0.3825
  106MOL   H11140221   1.811   7.261   5.086  0.3191 -0.2054  3.6360
  106MOL   H11240222   1.620   7.362   5.127 -1.4309  0.0551  0.9107
  106MOL   H11340223   1.422   7.374   5.278 -0.9722  0.4318  1.6960
  106MOL   H11440224   1.441   7.431   5.505  1.0967  2.8376  1.2825
  106MOL   H11540225   1.656   7.482   5.601 -1.1810  1.1121 -0.3409
  106MOL   C11640226   1.906   7.504   5.479  0.5722  0.0308  0.5961
  106MOL   C11740227   1.932   7.620   5.569 -1.0348 -0.1348 -0.6230
  106MOL   O11840228   1.890   7.491   5.622  0.9849  0.5054 -0.9298
  106MOL   C11940229   1.841   7.738   5.587  0.3782 -0.1168 -0.5397
  106MOL   O12040230   1.753   7.780   5.482 -0.1004  0.4990  0.1647
  106MOL   C12140231   1.814   7.831   5.368 -0.0522 -0.5432 -0.2453
  106MOL   C12240232   1.935   7.899   5.374 -0.7485 -0.3518  0.0955
  106MOL   C12340233   1.996   7.956   5.263 -0.2410 -0.3899 -0.4198
  106MOL   C12440234   1.924   7.954   5.142  0.4232  0.5036 -0.5229
  106MOL   C12540235   1.799   7.882   5.128 -0.4928  0.0384  0.4939
  106MOL   C12640236   1.744   7.824   5.245 -0.2308  0.8596 -0.0008
  106MOL   H12740237   1.993   7.455   5.437  1.7441  2.3720  0.2102
  106MOL   H12840238   2.038   7.638   5.587 -0.6518 -1.7263 -1.2436
  106MOL   H12940239   1.893   7.819   5.638  0.8321 -0.3463 -0.6450
  106MOL   H13040240   1.769   7.705   5.662 -0.1162 -1.5143 -1.6224
  106MOL   H13140241   1.984   7.919   5.467  0.9140 -2.3057 -0.3393
  106MOL   H13240242   2.088   8.012   5.268 -0.2973 -0.1949 -1.4270
  106MOL   H13340243   1.964   8.005   5.056  1.8219 -1.8103 -1.2940
  106MOL   H13440244   1.741   7.873   5.037 -0.4473  1.4157  0.3223
  106MOL   C13540245   1.625   7.735   5.234  0.6678  0.3614 -0.5104
  106MOL   C13640246   1.490   7.757   5.302 -0.0793 -0.2383 -0.0854
  106MOL   O13740247   1.517   7.808   5.173  0.3788 -0.5794 -0.4880
  106MOL   C13840248   1.460   7.860   5.406 -0.1140 -0.7263  0.1299
  106MOL   O13940249   1.320   7.890   5.400 -0.0849  0.4864 -0.0169
  106MOL   C14040250   1.222   7.809   5.461  0.4298 -0.1525 -0.1927
  106MOL   C14140251   1.251   7.721   5.568  0.7763 -0.3343 -0.3182
  106MOL   C14240252   1.153   7.640   5.629  0.0284  0.5927 -0.4586
  106MOL   C14340253   1.025   7.635   5.572 -0.2868  0.0686 -0.0155
  106MOL   C14440254   0.992   7.726   5.469 -0.3662  0.4698 -0.4678
  106MOL   C14540255   1.091   7.812   5.407  0.7546 -0.2484  0.1090
  106MOL   H14640256   1.640   7.645   5.175 -0.8605  0.4087 -0.9909
  106MOL   H14740257   1.422   7.672   5.304 -0.2214 -0.1175  0.1765
  106MOL   H14840258   1.528   7.944   5.396  0.9000 -1.5677 -0.2266
  106MOL   H14940259   1.483   7.822   5.506 -0.7772 -2.5757 -0.3986
  106MOL   H15040260   1.345   7.719   5.621  0.0711  0.7415  1.0056
  106MOL   H15140261   1.169   7.577   5.715 -4.0945 -1.6704 -1.2316
  106MOL   H15240262   0.947   7.582   5.624  1.1157  0.5088  2.6347
  106MOL   H15340263   0.893   7.741   5.429 -0.2833  0.6414 -0.6099
  106MOL   C15440264   1.054   7.901   5.291  0.2785 -0.0558 -0.1874
  106MOL   C15540265   1.089   7.874   5.145  0.1430 -0.6080 -0.2192
  106MOL   O15640266   0.963   7.831   5.205 -0.7906 -0.0803 -0.2059
  106MOL   C15740267   1.193   7.774   5.100 -0.1038 -0.4997 -0.4076
  106MOL   O15840268   1.149   7.727   4.976 -0.5496 -0.0443 -0.1816
  106MOL   C15940269   1.190   7.796   4.862 -0.8330  0.0019  0.4869
  106MOL   C16040270   1.277   7.912   4.856 -0.0750 -0.0618  0.1001
  106MOL   C16140271   1.302   7.979   4.735  0.4107  0.1412 -0.3028
  106MOL   C16240272   1.254   7.925   4.605  0.3411  0.1348 -0.3217
  106MOL   C16340273   1.171   7.810   4.616 -0.8182 -0.7017 -0.1340
  106MOL   C16440274   1.138   7.745   4.739 -0.6298  0.8091 -0.2936
  106MOL   H16540275   1.009   7.987   5.340 -0.8422  0.6062 -2.3195
  106MOL   H16640276   1.063   7.947   5.068  2.2068  1.0774  0.6280
  106MOL   H16740277   1.199   7.688   5.167 -0.7337 -1.1896 -1.2258
  106MOL   H16840278   1.292   7.817   5.110 -0.7753  0.4634  3.0000
  106MOL   H16940279   1.328   7.948   4.945 -0.2546 -2.3817  1.1892
  106MOL   H17040280   1.369   8.063   4.731 -0.6080  0.9290 -1.2100
  106MOL   H17140281   1.271   7.964   4.505 -1.4149  0.2359 -0.5954
  106MOL   H17240282   1.132   7.774   4.522  0.0976  0.7857 -1.0913
  106MOL   C17340283   1.059   7.624   4.740  0.0908  0.3541 -0.5715
  106MOL   C17440284   0.914   7.624   4.777  0.5664  0.1374 -0.0549
  106MOL   O17540285   0.956   7.621   4.644 -0.1015  0.3469  0.6354
  106MOL   C17640286   0.841   7.743   4.830 -0.1675 -1.1088  0.8225
  106MOL   O17740287   0.705   7.731   4.829  0.9738 -0.4104 -0.3344
  106MOL   C17840288   0.652   7.689   4.951  0.2575 -0.2345  0.7610
  106MOL   C17940289   0.728   7.636   5.064  0.3627 -0.0675 -0.6954
  106MOL   C18040290   0.667   7.587   5.178 -0.4647 -0.7854 -0.0168
  106MOL   C18140291   0.526   7.581   5.182  0.6241  0.6422 -0.9813
  106MOL   C18240292   0.451   7.630   5.071  0.4045  0.7944  1.0021
  106MOL   C18340293   0.512   7.686   4.954  0.1718  0.6191 -0.8313
  106MOL   H18440294   1.113   7.531   4.753 -0.5659  0.3514  2.3191
  106MOL   H18540295   0.862   7.533   4.806 -0.9333  0.3705 -1.8940
  106MOL   H18640296   0.869   7.824   4.763 -3.9139 -0.1426  0.3633
  106MOL   H18740297   0.881   7.776   4.927  1.2395 -0.5028  0.0608
  106MOL   H18840298   0.836   7.631   5.069  0.5124  0.1216 -3.1156
  106MOL   H18940299   0.729   7.544   5.255  0.2381  1.4180  0.6866
  106MOL   H19040300   0.479   7.522   5.259  2.2789 -0.6455 -0.9207
  106MOL   H19140301   0.343   7.625   5.065  0.4895  1.1630 -1.1385
  106MOL   C19240302   0.427   7.730   4.834 -0.3095 -0.7066  0.3186
  106MOL   C19340303   0.426   7.643   4.715  0.9948  0.3647  0.5028
  106MOL   O19440304   0.314   7.649   4.811  0.0228 -0.7549 -0.1997
  106MOL   C19540305   0.502   7.507   4.714  0.2406  0.5532 -0.3174
  106MOL   O19640306   0.494   7.442   4.586 -0.0740  0.3010 -0.5024
  106MOL   C19740307   0.576   7.494   4.487  0.3239 -0.4893  0.9740
  106MOL   C19840308   0.653   7.613   4.495 -0.1215  0.3863 -0.1066
  106MOL   C19940309   0.749   7.646   4.400  0.3562 -0.7065  0.2789
  106MOL   C20040310   0.763   7.570   4.286  0.7088 -0.1619  0.2605
  106MOL   C20140311   0.684   7.456   4.273 -0.5009 -0.0612  0.1206
  106MOL   C20240312   0.592   7.416   4.370  1.2700  0.0798 -0.3086
  106MOL   H20340313   0.423   7.839   4.828 -0.6894 -0.8316 -2.0801
  106MOL   H20440314   0.392   7.680   4.618 -0.7881 -3.4448 -0.4419
  106MOL   H20540315   0.457   7.441   4.787  1.1307 -1.8983 -1.8909
  106MOL   H20640316   0.609   7.504   4.735  0.4278 -1.0232 -1.3903
  106MOL   H20740317   0.643   7.680   4.580  1.0350  0.1828  0.2025
  106MOL   H20840318   0.817   7.728   4.419 -1.1778  0.7685 -0.4448
  106MOL   H20940319   0.841   7.597   4.217  0.1067 -0.6270 -0.6141
  106MOL   H21040320   0.700   7.396   4.185  0.6762  1.7513 -0.9214
  106MOL   C21140321   0.521   7.289   4.351  0.7171  0.2884  0.7691
  106MOL   C21240322   0.370   7.285   4.348 -0.5317 -0.4711 -0.4215
  106MOL   O21340323   0.442   7.293   4.229 -0.5952 -0.2188  0.3027
  106MOL   C21440324   0.282   7.405   4.374 -0.1011  0.0320 -1.2220
  106MOL   O21540325   0.146   7.383   4.333  0.2713  0.1323  0.1581
  106MOL   C21640326   0.104   7.398   4.202 -0.5321 -0.5626 -0.1308
  106MOL   C21740327   0.165   7.479   4.106  0.0793 -0.0821  0.0320
  106MOL   C21840328   0.113   7.490   3.979 -0.0686  0.3743 -0.1473
  106MOL   C21940329   8.168   7.417   3.942 -0.3044  0.0033 -0.0618
  106MOL   C22040330   8.101   7.335   4.034  0.2710  0.5390 -0.4274
  106MOL   C22140331   8.159   7.323   4.167  0.0434  0.4879 -0.5204
  106MOL   H22240332   0.594   7.214   4.379 -0.0105 -0.5672  0.3756
  106MOL   H22340333   0.327   7.188   4.370  2.8893 -2.0614 -0.4105
  106MOL   H22440334   0.329   7.493   4.330  0.8032 -0.5531 -1.4348
  106MOL   H22540335   0.275   7.424   4.481  2.2075  1.0317 -1.2305
  106MOL   H22640336   0.246   7.548   4.127  2.3284 -1.4312 -3.6924
  106MOL   H22740337   0.153   7.560   3.907 -1.7138  1.3868 -0.1220
  106MOL   H22840338   8.122   7.430   3.845 -2.3434  0.9046  1.0027
  106MOL   H22940339   8.015   7.275   4.008  1.1901  0.2230 -2.8731
  106MOL   C23040340   8.077   7.237   4.259  0.2705 -0.0385  0.0838
  106MOL   C23140341   7.990   7.314   4.351 -0.9330 -0.1059 -0.5732
  106MOL   O23240342   7.934   7.243   4.240 -0.2834  0.5187 -0.3320
  106MOL   C23340343   7.999   7.467   4.361 -0.5589  0.3528 -0.3825
  106MOL   O23440344   7.897   7.505   4.449 -0.5794 -0.1545 -0.1178
  106MOL   C23540345   7.850   7.632   4.445  0.0135 -0.8492 -0.3863
  106MOL   C23640346   7.911   7.745   4.384 -0.0774 -0.4938  0.0351
  106MOL   C23740347   7.855   7.874   4.380  0.5152  0.1416 -0.2437
  106MOL   C23840348   7.726   7.892   4.436  0.7060  1.2361 -0.2354
  106MOL   C23940349   7.657   7.782   4.492  0.3330 -0.7933  0.3995
  106MOL   C24040350   7.718   7.657   4.505 -0.0477  0.0322 -0.2569
  106MOL   H24140351   8.112   7.134   4.263  3.3098  0.9525  0.4590
  106MOL   H24240352   7.966   7.262   4.444 -0.1850  0.5494 -0.0026
  106MOL   H24340353   7.983   7.503   4.259 -1.4718  1.5974  0.1834
  106MOL   H24440354   8.099   7.496   4.395 -0.6037  2.4102 -1.8670
  106MOL   H24540355   8.011   7.733   4.344 -0.4272 -0.3254 -0.9119
  106MOL   H24640356   7.910   7.961   4.349  2.8127 -1.1373  0.1441
  106MOL   H24740357   7.670   7.983   4.424 -2.3801 -0.8161 -2.1153
  106MOL   H24840358   7.559   7.794   4.535 -1.0816 -2.8844 -2.0662
  106MOL   C24940359   7.645   7.540   4.573 -0.0002  0.1702 -0.0192
  106MOL   C25040360   7.682   7.498   4.704 -0.3417 -0.6959  0.2221
  106MOL   O25140361   7.561   7.571   4.684 -0.2698 -0.2850 -0.0401
  106MOL   C25240362   7.800   7.557   4.773 -0.3206 -0.1291 -0.5860
  106MOL   O25340363   7.801   7.517   4.909 -0.0470 -0.4473 -0.1029
  106MOL   C25440364   7.885   7.585   4.994 -0.3973 -0.1526 -0.1838
  106MOL   C25540365   7.997   7.663   4.948 -0.0176 -0.4130  0.7876
  106MOL   C25640366   8.077   7.715   5.053 -0.5234  0.4913 -0.5324
  106MOL   C25740367   8.062   7.692   5.191 -1.4921 -0.1484  0.3566
  106MOL   C25840368   7.954   7.610   5.232 -0.3238 -0.6906 -0.1475
  106MOL   C25940369   7.863   7.562   5.132  0.2427 -0.6341 -0.1559
  106MOL   H26040370   7.593   7.471   4.507  0.3222  1.1759 -1.3642
  106MOL   H26140371   7.663   7.392   4.718 -1.8772 -0.5206 -0.4354
  106MOL   H26240372   7.802   7.665   4.758  1.2491 -0.2552 -1.3443
  106MOL   H26340373   7.896   7.530   4.729 -1.5649 -2.4833 -1.9259
  106MOL   H26440374   8.010   7.678   4.841 -1.1001  0.4953  0.7808
  106MOL   H26540375   8.166   7.767   5.022 -0.1359 -0.4482 -1.0277
  106MOL   H26640376   8.136   7.732   5.258 -0.9239 -1.6242  0.6418
  106MOL   H26740377   7.935   7.584   5.335  0.1502 -0.0260  0.1104
  106MOL   C26840378   7.751   7.468   5.173  0.0949 -0.0816 -0.0069
  106MOL   C26940379   7.786   7.329   5.223 -0.1605  0.4818 -0.0082
  106MOL   O27040380   7.763   7.441   5.315  0.6919 -0.2398  0.0412
  106MOL   C27140381   7.926   7.285   5.226 -0.1467  0.1660  0.1081
  106MOL   O27240382   7.921   7.146   5.263 -0.1898  0.5114 -0.0406
  106MOL   C27340383   8.039   7.073   5.273 -0.2280  0.3902  0.1565
  106MOL   C27440384   8.151   7.097   5.183 -0.3830 -0.5140  0.8267
  106MOL   C27540385   0.104   7.028   5.206 -0.0580 -0.0745 -0.8863
  106MOL   C27640386   0.112   6.942   5.314 -0.1329  0.5950 -0.4278
  106MOL   C27740387   8.168   6.911   5.397  0.0575 -0.3750  0.5827
  106MOL   C27840388   8.053   6.987   5.382 -0.3032  0.4868  0.5131
  106MOL   H27940389   7.651   7.495   5.142  0.3190 -0.5006 -1.1109
  106MOL   H28040390   7.705   7.256   5.220 -0.4884  0.9055 -2.2619
  106MOL   H28140391   7.980   7.345   5.299  1.7790 -0.5044 -0.7260
  106MOL   H28240392   7.972   7.297   5.128 -2.2415 -2.1949 -1.2170
  106MOL   H28340393   8.164   7.169   5.103  1.1109 -1.3835  0.2610
  106MOL   H28440394   0.194   7.048   5.150  0.3361 -1.1554 -0.6522
  106MOL   H28540395   0.200   6.885   5.337 -1.3903 -0.7108  1.3337
  106MOL   H28640396   0.013   6.835   5.473  1.5430  1.6522  2.3717
  106MOL   C28740397   7.951   6.987   5.489  0.0490 -0.3317  0.3488
  106MOL   C28840398   7.836   6.895   5.485 -0.0862 -0.1957  0.0469
  106MOL   O28940399   7.949   6.862   5.562 -0.1887  0.7940  0.2531
  106MOL   C29040400   7.802   6.802   5.371  0.1694  0.2008  0.2129
  106MOL   O29140401   7.749   6.672   5.423 -0.4119  0.4010  0.1733
  106MOL   C29240402   7.697   6.577   5.341 -0.0620 -0.1641  0.0289
  106MOL   C29340403   7.722   6.583   5.207  0.6065 -0.3670 -0.4332
  106MOL   C29440404   7.690   6.479   5.125  0.6442  0.5079  0.2703
  106MOL   C29540405   7.613   6.369   5.172 -0.3843 -0.5971  0.1359
  106MOL   C29640406   7.565   6.380   5.308 -0.2390  0.0504 -0.0915
  106MOL   C29740407   7.615   6.482   5.397  0.2791  0.9654 -0.2830
  106MOL   H29840408   7.934   7.077   5.546  1.6033 -1.3011  2.3886
  106MOL   H29940409   7.757   6.927   5.552 -0.7822  0.4129 -1.0608
  106MOL   H30040410   7.893   6.782   5.315 -1.0943 -1.6020 -1.2364
  106MOL   H30140411   7.721   6.845   5.312  0.8968  1.1034 -0.1338
  106MOL   H30240412   7.790   6.656   5.166 -0.4122 -0.2320 -1.9499
  106MOL   H30340413   7.721   6.486   5.021  0.7118 -0.8416  0.1978
  106MOL   H30440414   7.572   6.302   5.098  0.0837  1.2099 -1.7828
  106MOL   H30540415   7.495   6.309   5.351 -0.5352  0.0327 -0.5994
  106MOL   C30640416   7.572   6.483   5.538 -0.2923  0.0712  0.6286
  106MOL   C30740417   7.496   6.598   5.607 -0.7169 -0.1990 -0.2628
  106MOL   O30840418   7.434   6.489   5.547  0.2540 -0.2246  0.3155
  106MOL   C30940419   7.489   6.735   5.534 -0.2829 -0.9782 -1.1859
  106MOL   O31040420   7.377   6.816   5.582 -0.3395  0.3322  0.0881
  106MOL   C31140421   7.350   6.939   5.531  0.3962 -0.4575 -0.7494
  106MOL   C31240422   7.407   6.977   5.412  0.7701  0.4550  0.2192
  106MOL   C31340423   7.372   7.103   5.353  0.4655 -0.7460  0.0391
  106MOL   C31440424   7.272   7.187   5.412  0.3788 -0.3753  0.0438
  106MOL   C31540425   7.206   7.142   5.527  0.6805 -0.7197 -0.4298
  106MOL   C31640426   7.243   7.024   5.592 -0.2181  0.8109  0.1975
  106MOL   H31740427   7.615   6.402   5.598 -1.0210 -0.5860  0.2673
  106MOL   H31840428   7.505   6.599   5.715  0.7332 -0.4800 -0.3621
  106MOL   H31940429   7.484   6.728   5.425  1.0626 -0.4165 -1.2841
  106MOL   H32040430   7.581   6.788   5.554 -1.0680 -0.7648  2.0083
  106MOL   H32140431   7.477   6.915   5.358 -0.1329 -2.2012  2.0505
  106MOL   H32240432   7.416   7.130   5.259 -1.4925  0.2041 -0.6385
  106MOL   H32340433   7.246   7.282   5.367  0.0197 -0.0608  0.9172
  106MOL   H32440434   7.132   7.213   5.561  2.0453  1.4816 -1.9481
  106MOL   C32540435   7.168   6.989   5.721  0.6064  0.1247  0.1285
  106MOL   C32640436   7.158   7.053   5.855  0.0327  0.1832 -0.3911
  106MOL   O32740437   7.064   7.079   5.754  0.2036  0.4622 -0.0767
  106MOL   C32840438   7.256   7.161   5.897 -0.4405 -0.0470  0.2377
  106MOL   O32940439   7.389   7.161   5.833 -0.1750  0.3668  0.4277
  106MOL   C33040440   7.479   7.063   5.869  0.6205 -0.2561 -0.3773
  106MOL   C33140441   7.464   6.977   5.980  0.2499  0.0177 -0.4602
  106MOL   C33240442   7.555   6.875   6.012  0.0524 -0.1880  0.4360
  106MOL   C33340443   7.661   6.849   5.925 -0.2257  0.6269  0.0592
  106MOL   C33440444   7.681   6.935   5.824 -0.3746 -0.3980 -0.5416
  106MOL   C33540445   7.594   7.047   5.804  0.3408 -0.4135  1.2865
  106MOL   H33640446   7.153   6.882   5.714  0.5077  0.2233 -1.3615
  106MOL   H33740447   7.116   7.001   5.941 -0.7292  0.2228 -0.7339
  106MOL   H33840448   7.265   7.145   6.004  1.2734  0.0319  0.1248
  106MOL   H33940449   7.203   7.255   5.877  0.5780  0.7153  1.0735
  106MOL   H34040450   7.378   6.975   6.044  0.8754  0.4946  0.4052
  106MOL   H34140451   7.538   6.808   6.095 -0.1286  0.1872  0.6997
  106MOL   H34240452   7.723   6.765   5.952 -2.2653 -0.3369  1.9328
  106MOL   H34340453   7.773   6.906   5.777  0.7042  0.0474  1.2601
  106MOL   C34440454   7.634   7.149   5.690 -0.5683  0.0064  1.0865
  106MOL   C34540455   7.700   7.279   5.726 -0.0916  0.1827 -0.4800
  106MOL   O34640456   7.774   7.163   5.674 -0.7384  0.3264 -0.3448
  106MOL   C34740457   7.724   7.315   5.875  0.2372 -0.2882 -0.2291
  106MOL   O34840458   7.838   7.404   5.875  0.2587 -0.1556  0.0071
  106MOL   C34940459   7.927   7.410   5.987 -0.0811  0.2302  0.0616
  106MOL   C35040460   7.887   7.369   6.115  0.2884 -0.6973  0.4329
  106MOL   C35140461   7.975   7.372   6.224 -0.3260  1.1620 -1.0570
  106MOL   C35240462   8.099   7.431   6.213 -0.9113 -0.4306 -0.9727
  106MOL   C35340463   8.142   7.487   6.088 -0.4839 -0.4183 -0.5327
  106MOL   C35440464   8.054   7.476   5.970 -0.7128 -0.5056 -0.9994
  106MOL   H35540465   7.576   7.130   5.600 -1.1204  2.5043  0.8761
  106MOL   H35640466   7.701   7.356   5.648 -1.1864  0.3939 -0.2813
  106MOL   H35740467   7.752   7.220   5.920  1.1472 -0.1609 -0.5000
  106MOL   H35840468   7.639   7.357   5.929  0.6715 -0.4585  0.5910
  106MOL   H35940469   7.787   7.331   6.126 -0.1866 -0.4585 -2.6870
  106MOL   H36040470   7.944   7.337   6.322  1.6682  1.3168 -0.3447
  106MOL   H36140471   8.156   7.457   6.301  0.1224  0.6587 -1.9316
  106MOL   H36240472   0.072   7.526   6.079 -0.4316  0.0643  1.9322
  106MOL   C36340473   8.077   7.532   5.842 -0.1606  0.4731 -0.3320
  106MOL   C36440474   8.086   7.684   5.809 -0.1836 -0.2165 -0.1304
  106MOL   O36540475   0.034   7.599   5.833 -0.6212  0.2548 -1.0836
  106MOL   C36640476   8.068   7.793   5.909 -1.0357 -0.4382  0.3923
  106MOL   O36740477   7.925   7.800   5.915 -0.2130  0.1759  0.3297
  106MOL   C36840478   7.870   7.909   5.981  0.1522  0.1984  0.5913
  106MOL   C36940479   7.949   7.997   6.049  0.5811  0.2659 -0.8718
  106MOL   C37040480   7.896   8.116   6.111 -1.1044 -0.4912  0.4347
  106MOL   C37140481   7.758   8.141   6.081  0.2770 -0.3364  0.4647
  106MOL   C37240482   7.677   8.049   6.010  0.2611 -0.6750 -0.6917
  106MOL   C37340483   7.737   7.927   5.965 -0.3369  0.2709 -0.2549
  106MOL   H37440484   8.054   7.460   5.764 -0.1776 -0.9175  0.9218
  106MOL   H37540485   8.079   7.711   5.704 -1.7893  2.5196  0.6440
  106MOL   H37640486   8.118   7.880   5.866  1.7089 -2.3584 -0.3719
  106MOL   H37740487   8.117   7.759   6.000 -1.2713 -0.7449  0.4079
  106MOL   H37840488   8.056   7.980   6.057  0.7123  1.4406 -0.1040
  106MOL   H37940489   7.964   0.004   6.172  0.4663 -1.3180 -0.5085
  106MOL   H38040490   7.711   0.058   6.125 -1.8206 -0.7191 -0.9842
  106MOL   H38140491   7.571   8.071   6.006  0.3810  0.1220  0.4702
  106MOL   H38240492   7.678   7.855   5.909 -1.2542  0.8731 -0.0788
  107MOL     C140493   1.622   0.543   4.953  0.2269  0.8587  0.4215
  107MOL     C240494   1.591   0.437   5.049 -0.4248 -0.3227 -0.1062
  107MOL     O340495   1.570   0.415   4.910  0.2883 -0.2720  0.7176
  107MOL     C440496   1.472   0.432   5.139 -0.0310 -0.5955  0.0518
  107MOL     O540497   1.479   0.540   5.233  0.0878 -0.3411  0.1396
  107MOL     C640498   1.373   0.560   5.315  0.7327 -0.5548 -0.6332
  107MOL     C740499   1.250   0.483   5.309 -0.3171  0.0186  0.4911
  107MOL     C840500   1.149   0.520   5.397 -0.5648  0.5157  0.0512
  107MOL     C940501   1.154   0.632   5.476 -0.1399 -0.1821 -0.6826
  107MOL    C1040502   1.268   0.712   5.481  0.1356 -0.2342 -0.1458
  107MOL    C1140503   1.378   0.677   5.398 -0.1342  0.3284 -0.6156
  107MOL    H1240504   1.726   0.566   4.929  0.4288 -0.6067 -0.1478
  107MOL    H1340505   1.681   0.398   5.098 -0.7237  1.5435  2.0258
  107MOL    H1440506   1.456   0.335   5.186  3.5524 -1.0071  0.6016
  107MOL    H1540507   1.396   0.466   5.069 -0.7412  0.4974  1.3308
  107MOL    H1640508   1.243   0.390   5.254 -1.0307  0.1123  0.4140
  107MOL    H1740509   1.053   0.469   5.399 -0.5880  0.5482 -0.3205
  107MOL    H1840510   1.067   0.662   5.533 -0.0378  0.8153 -1.0264
  107MOL    H1940511   1.275   0.806   5.532  0.6483  0.2047 -1.0136
  107MOL    H2040512   1.551   0.619   4.920  1.6644  2.2530  0.4873
  107MOL    C2140513   1.501   0.760   5.400  0.1433  1.2161 -0.9559
  107MOL    C2240514   1.544   0.860   5.289  0.3683  0.4854  0.1919
  107MOL    O2340515   1.477   0.906   5.409  0.1163  0.1643  0.1674
  107MOL    C2440516   1.464   0.857   5.157  0.3133 -0.3331 -0.0293
  107MOL    O2540517   1.461   0.987   5.097 -0.5724 -0.1974  0.2185
  107MOL    C2640518   1.532   1.024   4.991 -0.2013 -0.6273 -0.1242
  107MOL    C2740519   1.623   0.946   4.917  0.2477 -0.1231 -0.1982
  107MOL    C2840520   1.697   0.995   4.807  0.2448  0.3904  0.1814
  107MOL    C2940521   1.672   1.129   4.768 -0.0171  0.1045  0.4404
  107MOL    C3040522   1.573   1.207   4.835 -0.2815 -0.9581  1.0734
  107MOL    C3140523   1.509   1.158   4.945 -0.5642 -0.7356  0.6735
  107MOL    H3240524   1.574   0.719   5.469 -1.9534 -0.2614  0.4612
  107MOL    H3340525   1.648   0.893   5.292 -0.0762  1.8767  0.8149
  107MOL    H3440526   1.358   0.832   5.164  1.1288 -3.4295  2.1833
  107MOL    H3540527   1.502   0.773   5.099 -0.1414 -0.5107 -0.0704
  107MOL    H3640528   1.647   0.847   4.955  1.5061  0.2625  0.0537
  107MOL    H3740529   1.766   0.933   4.752 -1.9751 -3.4687  1.4981
  107MOL    H3840530   1.735   1.167   4.689  3.3300 -2.0898  1.9545
  107MOL    H3940531   1.549   1.307   4.801 -0.5277 -1.8837 -1.5625
  107MOL    C4040532   1.411   1.239   5.025  0.0049 -0.0986 -0.0864
  107MOL    C4140533   1.428   1.322   5.152 -0.8764 -0.1578 -0.4597
  107MOL    O4240534   1.447   1.380   5.025 -0.0165 -0.1292  0.1687
  107MOL    C4340535   1.557   1.312   5.232 -0.1876 -0.4708 -0.1493
  107MOL    O4440536   1.539   1.382   5.353 -0.1436 -0.6220  0.5122
  107MOL    C4540537   1.497   1.305   5.463 -0.2271 -0.3342 -0.7733
  107MOL    C4640538   1.420   1.190   5.454  0.2509 -0.3967  0.4008
  107MOL    C4740539   1.362   1.135   5.571  0.3159 -0.4848  0.1517
  107MOL    C4840540   1.387   1.192   5.700  0.6660 -0.5368  0.7968
  107MOL    C4940541   1.466   1.306   5.706 -0.6111  0.6222  0.0405
  107MOL    C5040542   1.521   1.367   5.589  0.3455  0.0579 -0.1870
  107MOL    H5140543   1.307   1.216   5.005  0.7022 -1.8793 -1.7683
  107MOL    H5240544   1.337   1.351   5.205 -1.9996  0.7867 -2.8592
  107MOL    H5340545   1.648   1.346   5.182 -0.1631 -1.6626 -0.9283
  107MOL    H5440546   1.576   1.207   5.254  1.0216 -0.4316 -0.9934
  107MOL    H5540547   1.397   1.149   5.356 -3.2700 -0.0459  1.0041
  107MOL    H5640548   1.290   1.055   5.567  0.4154 -0.5607 -0.1356
  107MOL    H5740549   1.337   1.162   5.791 -0.0520  0.4322  0.7277
  107MOL    H5840550   1.481   1.361   5.798 -2.3069 -0.9548  1.2910
  107MOL    C5940551   1.607   1.498   5.584  0.1056 -1.2297 -0.4918
  107MOL    C6040552   1.526   1.627   5.572 -1.0136  0.1718  0.5877
  107MOL    O6140553   1.588   1.586   5.698  0.2808  0.9108  0.2032
  107MOL    C6240554   1.369   1.627   5.586 -0.5573  0.7475 -0.5939
  107MOL    O6340555   1.315   1.757   5.550 -0.1977 -0.4066 -0.9015
  107MOL    C6440556   1.298   1.782   5.418  0.3207  0.6493 -0.4495
  107MOL    C6540557   1.329   1.692   5.311  0.8825 -0.0168 -0.0895
  107MOL    C6640558   1.303   1.721   5.177 -0.1700  0.4859  0.0362
  107MOL    C6740559   1.251   1.846   5.146  0.0541 -0.0967 -0.8427
  107MOL    C6840560   1.213   1.934   5.247 -0.1934 -0.3819 -0.5473
  107MOL    C6940561   1.241   1.906   5.384  0.4230 -0.0221 -0.1510
  107MOL    H7040562   1.709   1.488   5.547 -0.3148  0.7203 -2.3124
  107MOL    H7140563   1.570   1.715   5.525  0.4354 -0.2789  1.0641
  107MOL    H7240564   1.344   1.613   5.691  1.9552 -1.3753 -0.2163
  107MOL    H7340565   1.328   1.544   5.529  1.0434  0.2852 -1.1086
  107MOL    H7440566   1.364   1.593   5.336  0.8058 -0.2659 -0.9821
  107MOL    H7540567   1.333   1.647   5.104 -0.1274  0.0847  0.4583
  107MOL    H7640568   1.232   1.868   5.042  0.4592 -0.2030 -0.9427
  107MOL    H7740569   1.175   2.030   5.216 -1.8662 -1.1280 -0.8519
  107MOL    C7840570   1.202   2.008   5.488  0.1748 -0.0284  0.5590
  107MOL    C7940571   1.298   2.066   5.593 -0.1853 -0.0745  0.6479
  107MOL    O8040572   1.268   2.131   5.470  0.3133 -1.0787 -0.3889
  107MOL    C8140573   1.447   2.025   5.617 -0.1069 -0.7733  0.6690
  107MOL    O8240574   1.536   2.131   5.647 -0.1143  0.4574 -0.0153
  107MOL    C8340575   1.668   2.106   5.631  0.6370  0.1944  0.6811
  107MOL    C8440576   1.717   1.989   5.693 -0.3270  0.0363 -0.3687
  107MOL    C8540577   1.851   1.963   5.698  0.6785  0.1552  0.4193
  107MOL    C8640578   1.938   2.060   5.640 -0.5088  0.7591  0.3667
  107MOL    C8740579   1.895   2.173   5.569 -0.1704 -0.4184 -0.1204
  107MOL    C8840580   1.758   2.196   5.570 -0.4257  0.3713 -0.4800
  107MOL    H8940581   1.095   2.017   5.502  0.1315  2.2860 -0.9924
  107MOL    H9040582   1.242   2.111   5.674 -0.0415  0.4012  0.4815
  107MOL    H9140583   1.490   1.984   5.526  0.6151  2.8895 -0.7511
  107MOL    H9240584   1.456   1.961   5.705  0.9203  2.6149  3.1549
  107MOL    H9340585   1.659   1.922   5.754  0.0405  0.4293  0.4138
  107MOL    H9440586   1.881   1.872   5.747 -0.4302 -0.3238  0.2101
  107MOL    H9540587   2.045   2.046   5.640 -0.7522 -1.3565 -1.5354
  107MOL    H9640588   1.969   2.234   5.520 -1.4125  1.3677  0.1733
  107MOL    C9740589   1.706   2.320   5.502 -0.4829  0.7325  0.1243
  107MOL    C9840590   1.666   2.455   5.573  0.0333  1.4841 -0.5280
  107MOL    O9940591   1.790   2.434   5.498 -0.2541 -0.3710  0.4400
  107MOL   C10040592   1.689   2.484   5.719 -0.5091  0.1209 -0.4719
  107MOL   O10140593   1.666   2.618   5.751  0.4494 -0.4338  0.2583
  107MOL   C10240594   1.662   2.665   5.880 -0.1063 -0.8283  0.0384
  107MOL   C10340595   1.664   2.585   5.998  0.1214 -0.1730  0.5682
  107MOL   C10440596   1.643   2.637   6.126  0.1685  0.4649 -0.1153
  107MOL   C10540597   1.640   2.781   6.142 -0.0113  0.7551  0.3054
  107MOL   C10640598   1.634   2.857   6.031  0.4179  0.1543  0.5099
  107MOL   C10740599   1.651   2.805   5.902  0.6524  0.1259  0.3894
  107MOL   H10840600   1.663   2.288   5.407  2.3547  0.4353 -1.0993
  107MOL   H10940601   1.588   2.516   5.530 -1.2245  1.3327  1.4737
  107MOL   H11040602   1.783   2.452   5.765  0.2390  0.7003 -1.5730
  107MOL   H11140603   1.616   2.418   5.766 -0.8627  0.9533  0.1605
  107MOL   H11240604   1.669   2.477   5.990  1.2184 -0.1620  0.9874
  107MOL   H11340605   1.638   2.576   6.215  0.9377 -2.0744 -1.7485
  107MOL   H11440606   1.611   2.816   6.240 -0.3855 -1.4741  1.0241
  107MOL   H11540607   1.615   2.963   6.045 -2.3611 -0.2643  0.1439
  107MOL   C11640608   1.640   2.900   5.785 -0.2780 -0.4087 -0.4825
  107MOL   C11740609   1.512   2.960   5.732 -0.1005 -0.2027 -0.1790
  107MOL   O11840610   1.589   3.032   5.828 -0.0676 -0.2650  0.1055
  107MOL   C11940611   1.370   2.928   5.780  0.4446 -0.8098  0.2276
  107MOL   O12040612   1.269   2.977   5.685  0.6308 -0.6949  0.2094
  107MOL   C12140613   1.217   2.890   5.592 -0.8280 -0.2903  0.8406
  107MOL   C12240614   1.202   2.751   5.599  0.4597 -0.4374 -0.4788
  107MOL   C12340615   1.153   2.679   5.487  0.6883 -0.3302  0.2921
  107MOL   C12440616   1.119   2.745   5.369 -0.5582  1.5322 -0.8164
  107MOL   C12540617   1.123   2.885   5.366  0.1099 -0.2956 -0.0754
  107MOL   C12640618   1.169   2.964   5.476 -0.2962  0.2707  0.7276
  107MOL   H12740619   1.728   2.914   5.722  0.2168  0.1961  0.3331
  107MOL   H12840620   1.513   3.020   5.641 -1.0684 -0.6502 -0.4935
  107MOL   H12940621   1.357   2.984   5.873  2.1582 -0.8056  0.4782
  107MOL   H13040622   1.365   2.822   5.804  0.5386 -1.3373 -1.9707
  107MOL   H13140623   1.241   2.702   5.688  0.2497  1.1928  0.5263
  107MOL   H13240624   1.133   2.573   5.497 -0.5985 -0.1843 -0.6651
  107MOL   H13340625   1.072   2.690   5.289  0.2259 -2.1451  1.1372
  107MOL   H13440626   1.087   2.936   5.278 -0.5866 -1.2828 -0.3655
  107MOL   C13540627   1.195   3.110   5.462 -0.3254 -0.3723  0.4178
  107MOL   C13640628   1.295   3.153   5.358 -0.2838  0.5668  0.3958
  107MOL   O13740629   1.152   3.159   5.335 -0.3867  0.3839 -0.1423
  107MOL   C13840630   1.368   3.058   5.266  0.1962 -0.3185 -0.3604
  107MOL   O13940631   1.462   3.112   5.179 -0.2353  0.1594  0.0157
  107MOL   C14040632   1.592   3.150   5.213  0.5411  0.0954 -0.1907
  107MOL   C14140633   1.626   3.131   5.346  0.0590 -0.3274 -0.2199
  107MOL   C14240634   1.764   3.143   5.383  0.9141  0.1260  0.5615
  107MOL   C14340635   1.865   3.186   5.293  0.4829  0.0540 -0.6326
  107MOL   C14440636   1.826   3.217   5.159  0.4514  0.7137 -0.2522
  107MOL   C14540637   1.687   3.197   5.119 -0.1526 -0.3955  0.0091
  107MOL   H14640638   1.167   3.173   5.547 -2.4518  0.7648 -1.0791
  107MOL   H14740639   1.348   3.248   5.363  2.0431 -0.6441 -0.3186
  107MOL   H14840640   1.298   3.015   5.195  1.1445 -0.0414 -1.4685
  107MOL   H14940641   1.410   2.975   5.322  0.8306  0.0866 -0.2311
  107MOL   H15040642   1.561   3.084   5.418 -0.6055  1.0990  0.1386
  107MOL   H15140643   1.799   3.112   5.480  3.3578 -1.6082 -0.8426
  107MOL   H15240644   1.967   3.191   5.329  0.7136 -1.1503 -1.1065
  107MOL   H15340645   1.904   3.254   5.094  0.0376  0.4371 -0.9171
  107MOL   C15440646   1.635   3.230   4.982 -0.0347  0.0577  0.2010
  107MOL   C15540647   1.566   3.350   4.944  0.4214  0.3439 -0.4030
  107MOL   O15640648   1.705   3.334   4.923  0.5889  0.1206 -0.1066
  107MOL   C15740649   1.532   3.462   5.036  0.4244  0.0722  0.2814
  107MOL   O15840650   1.546   3.592   4.975 -0.0200  0.4282 -1.2903
  107MOL   C15940651   1.521   3.692   5.066 -0.3261  1.1306  0.3943
  107MOL   C16040652   1.395   3.704   5.137  0.1812  0.0386  0.4645
  107MOL   C16140653   1.367   3.817   5.213 -0.0651 -0.1513  0.1392
  107MOL   C16240654   1.464   3.912   5.226  0.4353 -0.6036 -0.7455
  107MOL   C16340655   1.587   3.903   5.158 -0.3137 -0.4363  0.0901
  107MOL   C16440656   1.617   3.791   5.078  0.1118 -0.3644 -0.5355
  107MOL   H16540657   1.629   3.138   4.924 -2.3279  0.1127  0.2877
  107MOL   H16640658   1.523   3.353   4.844  1.1681  0.3378 -0.7281
  107MOL   H16740659   1.581   3.458   5.133 -0.7257 -0.2016  0.8541
  107MOL   H16840660   1.429   3.449   5.068  0.2630 -1.4162 -0.7568
  107MOL   H16940661   1.321   3.627   5.123  1.5754 -0.8711 -2.1866
  107MOL   H17040662   1.274   3.822   5.267 -0.0778  0.4374  0.0686
  107MOL   H17140663   1.442   4.007   5.271  2.1052  0.4094 -1.9969
  107MOL   H17240664   1.652   3.990   5.162 -0.4584 -0.3900  2.2032
  107MOL   C17340665   1.749   3.792   5.014  0.4968  0.6641 -0.5010
  107MOL   C17440666   1.776   3.791   4.866  0.5857 -0.4928  0.0082
  107MOL   O17540667   1.781   3.912   4.944 -0.4671  0.3344  0.3207
  107MOL   C17640668   1.671   3.784   4.756  0.2585  0.5410  0.1618
  107MOL   O17740669   1.702   3.874   4.645 -0.8809  0.0756  0.7431
  107MOL   C17840670   1.607   3.876   4.544  0.6377 -0.2067 -0.4626
  107MOL   C17940671   1.490   3.789   4.541 -0.4573  0.0838 -0.2007
  107MOL   C18040672   1.388   3.793   4.447 -0.0085  0.0098 -0.1795
  107MOL   C18140673   1.398   3.891   4.347 -0.0275  0.1982  0.1680
  107MOL   C18240674   1.511   3.980   4.344 -0.0285 -0.2959 -0.1042
  107MOL   C18340675   1.614   3.977   4.444  0.0208  0.7822  0.6593
  107MOL   H18440676   1.824   3.758   5.085  0.4488  1.2678 -0.1622
  107MOL   H18540677   1.873   3.751   4.835  0.8175  1.9251 -2.6386
  107MOL   H18640678   1.577   3.820   4.799  1.1643 -0.1411  2.7988
  107MOL   H18740679   1.664   3.677   4.735 -1.9046  1.0295 -1.7578
  107MOL   H18840680   1.482   3.708   4.613  1.2506 -0.8845 -1.0547
  107MOL   H18940681   1.315   3.716   4.466  0.3454  0.3400  2.6732
  107MOL   H19040682   1.330   3.885   4.263  2.8018 -1.2943 -2.1017
  107MOL   H19140683   1.514   4.050   4.261 -1.9006 -0.9563 -0.7575
  107MOL   C19240684   1.730   4.075   4.440 -0.1258 -0.1667 -0.9303
  107MOL   C19340685   1.819   4.108   4.322  0.8016 -0.6420 -0.1994
  107MOL   O19440686   1.708   4.191   4.356 -0.3946 -0.2867 -0.5298
  107MOL   C19540687   1.803   4.031   4.193 -0.2127 -0.2968 -0.2243
  107MOL   O19640688   1.926   4.020   4.116  0.7287 -0.1557 -0.2097
  107MOL   C19740689   1.956   4.135   4.047 -0.1224  0.5662  0.1952
  107MOL   C19840690   1.872   4.249   4.024 -0.2431  0.5822  0.2278
  107MOL   C19940691   1.918   4.361   3.952  0.3203  0.5075 -0.1362
  107MOL   C20040692   2.044   4.347   3.886 -0.8946  1.0908  0.2469
  107MOL   C20140693   2.123   4.236   3.902  0.0003  0.0510 -0.0868
  107MOL   C20240694   2.079   4.126   3.978  0.4162  0.6889 -0.1879
  107MOL   H20340695   1.782   4.103   4.532 -0.1022  0.5765 -1.1628
  107MOL   H20440696   1.906   4.174   4.327  0.7061 -0.5093 -0.2924
  107MOL   H20540697   1.721   4.068   4.131  0.3294  1.9228  0.3375
  107MOL   H20640698   1.774   3.929   4.217 -0.1358 -0.4809 -0.9058
  107MOL   H20740699   1.777   4.250   4.074  0.3974  0.6841  1.4435
  107MOL   H20840700   1.855   4.448   3.939 -1.1967 -0.7854 -1.6400
  107MOL   H20940701   2.088   4.429   3.831  0.6810  0.6269  0.7783
  107MOL   H21040702   2.220   4.227   3.855  0.1940  0.2411  0.2745
  107MOL   C21140703   2.169   4.012   3.995  0.4011 -0.3764 -0.0089
  107MOL   C21240704   2.142   3.891   3.914 -0.0358  0.6652 -0.2399
  107MOL   O21340705   2.261   3.975   3.896  0.2440 -0.8553 -0.4680
  107MOL   C21440706   2.034   3.886   3.801  0.3043  0.1006 -0.0108
  107MOL   O21540707   2.053   3.770   3.720  0.5592 -0.3744 -0.3749
  107MOL   C21640708   2.059   3.799   3.587  0.2912  0.4099 -0.1745
  107MOL   C21740709   1.961   3.876   3.521  0.0326 -0.6525  0.1014
  107MOL   C21840710   1.975   3.909   3.383 -0.4379  0.4096  0.0151
  107MOL   C21940711   2.091   3.877   3.312  0.0576 -0.5669 -0.4087
  107MOL   C22040712   2.187   3.795   3.372 -0.2731 -0.4803  0.6901
  107MOL   C22140713   2.168   3.756   3.512 -0.6290 -0.0692 -0.6291
  107MOL   H22240714   2.197   3.993   4.098 -0.4887 -0.1692  0.2833
  107MOL   H22340715   2.178   3.799   3.960  0.8600  0.7554 -0.7410
  107MOL   H22440716   2.030   3.986   3.757 -2.6927  0.5358  1.1524
  107MOL   H22540717   1.938   3.885   3.852 -0.2848 -0.6848 -1.1049
  107MOL   H22640718   1.876   3.908   3.580  1.5716 -0.8891  2.5157
  107MOL   H22740719   1.903   3.962   3.320 -1.1553 -0.4266  0.1250
  107MOL   H22840720   2.098   3.908   3.208 -0.9033  2.0701  0.2751
  107MOL   H22940721   2.277   3.758   3.325  0.5209 -0.4876  2.1988
  107MOL   C23040722   2.268   3.664   3.579  0.6685  0.1335  0.0922
  107MOL   C23140723   2.249   3.518   3.627 -0.2771  0.4021 -0.0739
  107MOL   O23240724   2.296   3.550   3.492  0.1436  0.0967  0.1224
  107MOL   C23340725   2.109   3.449   3.637 -0.8774  0.3557  0.6698
  107MOL   O23440726   2.111   3.323   3.699 -0.1255  0.1199 -0.2852
  107MOL   C23540727   2.062   3.302   3.827 -0.1942 -0.3314  0.1186
  107MOL   C23640728   1.991   3.397   3.906  0.0547  0.3937 -0.6870
  107MOL   C23740729   1.943   3.368   4.038  0.1805  0.0275 -0.0583
  107MOL   C23840730   1.930   3.232   4.070  0.2524  0.5614 -0.0529
  107MOL   C23940731   2.003   3.136   3.992 -0.0088 -0.1371  0.0811
  107MOL   C24040732   2.070   3.172   3.878 -0.3909 -0.3740  0.2545
  107MOL   H24140733   2.358   3.717   3.609 -0.3073  1.3764  0.8893
  107MOL   H24240734   2.321   3.481   3.700 -1.1138 -0.5675  0.2701
  107MOL   H24340735   2.078   3.430   3.535 -1.4896 -1.0549  1.1004
  107MOL   H24440736   2.037   3.518   3.683 -1.1169  0.2312  0.4825
  107MOL   H24540737   1.986   3.499   3.873 -0.2332  0.2326 -1.1429
  107MOL   H24640738   1.903   3.446   4.102 -1.2629 -1.4420  0.8843
  107MOL   H24740739   1.886   3.204   4.165 -0.8654 -0.7648 -0.9538
  107MOL   H24840740   2.006   3.036   4.031  0.0587 -0.0771  0.2302
  107MOL   C24940741   2.153   3.069   3.800 -0.0264 -0.2228  0.1774
  107MOL   C25040742   2.305   3.055   3.807 -0.2351 -0.1062  0.2322
  107MOL   O25140743   2.219   2.975   3.883 -0.0748 -0.6921 -0.1522
  107MOL   C25240744   2.398   3.151   3.882 -0.0907 -0.2382 -0.1453
  107MOL   O25340745   2.526   3.088   3.863  0.2471  0.1248  0.6116
  107MOL   C25440746   2.625   3.107   3.953 -0.3381 -0.2350  0.6878
  107MOL   C25540747   2.621   3.198   4.065  0.2399  0.3071 -0.7051
  107MOL   C25640748   2.729   3.213   4.160  0.0424 -0.0242  1.1704
  107MOL   C25740749   2.842   3.124   4.143  0.4147 -0.4940 -0.4644
  107MOL   C25840750   2.846   3.035   4.031  0.5704 -0.0019  0.9065
  107MOL   C25940751   2.737   3.025   3.938 -0.4372  0.8446  0.4962
  107MOL   H26040752   2.086   3.013   3.735  0.3940 -0.8679  0.2867
  107MOL   H26140753   2.352   3.006   3.722  0.1987  2.0321 -0.8155
  107MOL   H26240754   2.372   3.167   3.986 -1.8382 -1.2485 -0.4161
  107MOL   H26340755   2.394   3.247   3.830  0.8254 -0.3980 -0.5382
  107MOL   H26440756   2.537   3.266   4.076 -0.8633 -1.1505 -0.0368
  107MOL   H26540757   2.738   3.290   4.235  3.2960  0.4547  0.3767
  107MOL   H26640758   2.912   3.124   4.225 -0.6666 -0.0540  0.4839
  107MOL   H26740759   2.926   2.963   4.032  0.1263 -0.4896  1.8877
  107MOL   C26840760   2.743   2.914   3.837  0.4962  0.2333 -0.4453
  107MOL   C26940761   2.724   2.921   3.684 -1.1636 -0.8382 -0.6335
  107MOL   O27040762   2.847   2.937   3.740 -0.7348  0.2643 -0.2094
  107MOL   C27140763   2.689   3.044   3.596 -0.9282 -0.1417  0.8204
  107MOL   O27240764   2.687   3.024   3.456  0.6064 -0.2169  0.0617
  107MOL   C27340765   2.792   2.982   3.380 -0.5713  0.2038 -0.5225
  107MOL   C27440766   2.924   2.989   3.437  0.1700  0.3948 -0.0870
  107MOL   C27540767   3.035   2.957   3.354 -0.4703 -0.1294  0.1605
  107MOL   C27640768   3.021   2.916   3.221  0.1117 -0.3032 -0.2700
  107MOL   C27740769   2.897   2.909   3.162  0.1227 -0.5973  0.1779
  107MOL   C27840770   2.782   2.947   3.237 -0.0288  0.5069 -0.4088
  107MOL   H27940771   2.764   2.818   3.883  1.6756  0.2493 -0.9222
  107MOL   H28040772   2.716   2.824   3.634  1.0519 -1.3761  0.0148
  107MOL   H28140773   2.753   3.129   3.621 -1.1977  0.6730 -1.1301
  107MOL   H28240774   2.590   3.085   3.616 -1.2184  0.4449 -1.5821
  107MOL   H28340775   2.941   3.023   3.537 -0.1319 -0.6537  0.3344
  107MOL   H28440776   3.138   2.971   3.383 -0.0698 -0.1963 -1.1679
  107MOL   H28540777   3.112   2.888   3.171  0.7324  0.4953  0.3927
  107MOL   H28640778   2.895   2.883   3.057  1.6187 -0.6631  0.1541
  107MOL   C28740779   2.648   2.942   3.176 -0.6940 -0.7406  0.4970
  107MOL   C28840780   2.600   3.051   3.078 -0.1897  0.1891 -0.7395
  107MOL   O28940781   2.641   2.917   3.033 -0.3654  0.0023  0.0581
  107MOL   C29040782   2.695   3.161   3.043  0.7839  0.4138  0.4722
  107MOL   O29140783   2.628   3.259   2.953  0.0962 -0.1969 -0.1239
  107MOL   C29240784   2.554   3.363   3.013  0.5197 -0.6477 -0.3378
  107MOL   C29340785   2.565   3.391   3.153 -0.3062  0.1506  0.7071
  107MOL   C29440786   2.470   3.468   3.222  0.0285 -0.0612 -0.6955
  107MOL   C29540787   2.365   3.520   3.148  0.0227 -0.4984  0.5433
  107MOL   C29640788   2.358   3.510   3.005  0.5146 -1.2659 -0.2786
  107MOL   C29740789   2.457   3.433   2.941 -0.0085  0.5461  0.5616
  107MOL   H29840790   2.578   2.899   3.248 -0.7548 -0.0902  0.8329
  107MOL   H29940791   2.494   3.073   3.067 -0.3591  0.4182  1.0670
  107MOL   H30040792   2.773   3.115   2.981 -0.0315 -0.2463 -0.0824
  107MOL   H30140793   2.751   3.199   3.128  0.9230  2.8314 -0.6591
  107MOL   H30240794   2.641   3.345   3.214 -0.8744 -1.1406  0.4524
  107MOL   H30340795   2.483   3.490   3.327 -0.7228 -1.0151 -0.3918
  107MOL   H30440796   2.289   3.579   3.197  0.4541 -0.8739  1.6699
  107MOL   H30540797   2.286   3.561   2.943  0.5295  0.6744  1.2469
  107MOL   C30640798   2.454   3.421   2.791 -0.0370 -0.2020 -0.2404
  107MOL   C30740799   2.376   3.297   2.739 -0.4427 -0.1310  1.0852
  107MOL   O30840800   2.322   3.433   2.734  0.2737  0.1646 -0.1311
  107MOL   C30940801   2.313   3.190   2.827 -0.0096  0.5360 -0.0315
  107MOL   O31040802   2.190   3.145   2.775 -0.4179  0.0440 -0.0400
  107MOL   C31140803   2.112   3.061   2.859 -0.7448  0.5441 -0.3488
  107MOL   C31240804   2.146   3.018   2.989  0.0285 -0.3777 -0.7475
  107MOL   C31340805   2.064   2.930   3.054 -0.7070  0.3876 -0.1703
  107MOL   C31440806   1.943   2.883   2.995 -0.4208  0.1569 -0.0299
  107MOL   C31540807   1.904   2.940   2.875  0.2307 -0.7687  0.7640
  107MOL   C31640808   1.995   3.020   2.797 -0.5724 -0.0797  0.0528
  107MOL   H31740809   2.546   3.431   2.734 -0.1297 -1.5368 -0.6492
  107MOL   H31840810   2.398   3.249   2.644 -0.2940 -1.6046  1.8410
  107MOL   H31940811   2.297   3.239   2.923  1.1899  1.1421 -0.1301
  107MOL   H32040812   2.381   3.107   2.846 -0.0605  1.0357  2.5636
  107MOL   H32140813   2.231   3.062   3.039 -0.5491 -0.0932 -0.0265
  107MOL   H32240814   2.103   2.883   3.143 -1.2122  0.1143 -0.0946
  107MOL   H32340815   1.878   2.812   3.045 -1.0885  0.1506 -0.8901
  107MOL   H32440816   1.808   2.908   2.838 -0.0266 -0.3067  1.0193
  107MOL   C32540817   1.951   3.061   2.658 -0.0034 -0.0084 -0.4672
  107MOL   C32640818   1.994   2.970   2.547 -0.6465  0.4167 -0.3918
  107MOL   O32740819   1.855   2.967   2.594  1.0728 -0.5337 -0.3554
  107MOL   C32840820   2.067   2.837   2.568  0.1744  0.1372  0.1702
  107MOL   O32940821   2.144   2.815   2.450 -0.0005 -0.2496  0.2457
  107MOL   C33040822   2.079   2.767   2.337 -0.3444  0.5691  0.9029
  107MOL   C33140823   1.943   2.726   2.322  1.0571 -0.2755 -0.4739
  107MOL   C33240824   1.890   2.690   2.196  0.4953  0.3008  0.2937
  107MOL   C33340825   1.970   2.703   2.082  0.4818  0.5829  0.1034
  107MOL   C33440826   2.102   2.737   2.097  0.0020  0.3546 -0.1254
  107MOL   C33540827   2.157   2.770   2.220 -0.0562 -0.2563 -1.0735
  107MOL   H33640828   1.932   3.164   2.627 -0.3894  0.3568  0.9473
  107MOL   H33740829   2.025   3.024   2.458  0.8995 -0.5426 -0.4687
  107MOL   H33840830   1.989   2.762   2.579  0.0474  0.4959  1.9238
  107MOL   H33940831   2.133   2.838   2.655  1.1510  0.9464 -0.5686
  107MOL   H34040832   1.873   2.733   2.404  0.3316  3.0131 -1.3022
  107MOL   H34140833   1.788   2.656   2.196  0.2482  0.9008 -2.1432
  107MOL   H34240834   1.916   2.683   1.990 -1.0148 -2.5466  1.6102
  107MOL   H34340835   2.162   2.732   2.007  0.7066  0.9377  0.3049
  107MOL   C34440836   2.302   2.816   2.240  0.2752  0.7920  0.1821
  107MOL   C34540837   2.418   2.728   2.190 -0.0986 -0.4778  0.4619
  107MOL   O34640838   2.365   2.838   2.111 -0.3602  0.4050 -0.6788
  107MOL   C34740839   2.397   2.583   2.149  0.2484 -0.3424 -0.2536
  107MOL   O34840840   2.514   2.499   2.184  0.0253  1.1013 -0.0619
  107MOL   C34940841   2.623   2.496   2.098 -0.5356  0.6054  0.2041
  107MOL   C35040842   2.624   2.530   1.958 -0.2898  0.2766  0.6811
  107MOL   C35140843   2.738   2.516   1.877 -0.0345  0.3451 -0.1996
  107MOL   C35240844   2.853   2.460   1.928 -0.7932 -0.3367  0.2651
  107MOL   C35340845   2.855   2.418   2.063  0.3215  0.3128  0.0813
  107MOL   C35440846   2.743   2.436   2.150 -0.1567 -0.1935  1.2810
  107MOL   H35540847   2.326   2.899   2.306  0.9410  1.6390 -1.0866
  107MOL   H35640848   2.514   2.745   2.239 -0.1808 -0.6291  0.6774
  107MOL   H35740849   2.376   2.578   2.042  1.9919  0.9635 -0.6729
  107MOL   H35840850   2.309   2.540   2.196  0.8122 -0.4255  0.7486
  107MOL   H35940851   2.538   2.577   1.911  0.7981 -1.2937 -3.0578
  107MOL   H36040852   2.736   2.549   1.774  3.0343 -0.6633 -0.6453
  107MOL   H36140853   2.939   2.444   1.864 -0.8041  1.2646 -0.1593
  107MOL   H36240854   2.942   2.372   2.107  0.8849  2.1087  0.9072
  107MOL   C36340855   2.755   2.409   2.301 -0.5565 -0.1002  0.2003
  107MOL   C36440856   2.703   2.283   2.363 -0.1439  0.1331  0.6308
  107MOL   O36540857   2.844   2.301   2.327 -0.2750 -0.1714 -0.1176
  107MOL   C36640858   2.631   2.182   2.273  0.1794 -0.3687  0.2896
  107MOL   O36740859   2.507   2.133   2.325 -0.2443 -0.1148 -0.2148
  107MOL   C36840860   2.500   2.045   2.430 -0.7307  0.9435 -0.9876
  107MOL   C36940861   2.605   1.972   2.487 -0.0239 -0.0331  0.0254
  107MOL   C37040862   2.583   1.899   2.607  0.3871  0.9091  0.1142
  107MOL   C37140863   2.451   1.895   2.665  0.8629 -0.3309 -0.1763
  107MOL   C37240864   2.345   1.952   2.599 -0.4256 -0.8528 -0.1373
  107MOL   C37340865   2.373   2.033   2.488  0.0919 -0.1755  0.7873
  107MOL   H37440866   2.764   2.505   2.352 -1.0678 -0.5129  1.0683
  107MOL   H37540867   2.675   2.302   2.467  1.0722  2.6071  0.5365
  107MOL   H37640868   2.690   2.093   2.252 -0.7616 -0.4600 -2.1054
  107MOL   H37740869   2.608   2.232   2.179  0.1590  1.3019  1.1650
  107MOL   H37840870   2.701   1.969   2.437  0.3103  2.0397  0.4862
  107MOL   H37940871   2.665   1.847   2.654  1.2040  0.3156 -1.9442
  107MOL   H38040872   2.451   1.843   2.761 -0.8166 -2.2851 -1.1861
  107MOL   H38140873   2.245   1.959   2.640 -0.1944  2.9943 -0.1322
  107MOL   H38240874   2.289   2.073   2.433 -1.4234 -3.5259  0.5666
  108MOL     C140875   7.012   2.120   3.406 -0.4196  0.3277 -0.0470
  108MOL     C240876   7.126   2.105   3.489 -0.1669  0.2045  0.0723
  108MOL     O340877   7.005   2.021   3.505 -0.0241  0.3987 -0.6914
  108MOL     C440878   7.151   2.204   3.602 -0.1896  0.5182  0.4495
  108MOL     O540879   7.268   2.194   3.687 -0.4747  0.2100  0.1091
  108MOL     C640880   7.283   2.286   3.787  0.3024  0.2254  0.2457
  108MOL     C740881   7.199   2.399   3.811 -0.5494  0.2227 -0.3168
  108MOL     C840882   7.207   2.471   3.931  0.4920  0.6128  0.1982
  108MOL     C940883   7.310   2.439   4.024  0.4249  0.2227 -1.0006
  108MOL    C1040884   7.398   2.337   3.988  0.3984 -0.1220  0.0948
  108MOL    C1140885   7.391   2.254   3.877  0.2479  0.5034 -0.3237
  108MOL    H1240886   7.011   2.079   3.305  1.4959 -1.4736  0.6342
  108MOL    H1340887   7.210   2.053   3.444 -0.9652  0.1209 -1.3254
  108MOL    H1440888   7.064   2.210   3.668 -1.3447 -0.8407 -0.9017
  108MOL    H1540889   7.161   2.293   3.541  1.5877 -0.2102 -0.3555
  108MOL    H1640890   7.119   2.424   3.742  0.0832  0.9623 -0.7908
  108MOL    H1740891   7.136   2.547   3.958  0.4408  0.8999 -0.7116
  108MOL    H1840892   7.321   2.486   4.120 -0.3684  0.3607 -0.9672
  108MOL    H1940893   7.474   2.319   4.063 -1.4530  1.2438  2.3951
  108MOL    H2040894   6.937   2.198   3.417  1.1648  1.5658  2.3865
  108MOL    C2140895   7.465   2.129   3.876  0.0324 -0.3253 -0.7893
  108MOL    C2240896   7.552   2.081   3.758  0.3619 -0.2019 -0.9175
  108MOL    O2340897   7.604   2.162   3.868  0.5506 -0.1833 -0.0248
  108MOL    C2440898   7.537   2.136   3.619  0.9481  0.6177 -0.0984
  108MOL    O2540899   7.669   2.145   3.563  0.4350  0.4567  0.2925
  108MOL    C2640900   7.757   2.244   3.609  0.4169 -0.2464  0.6174
  108MOL    C2740901   7.710   2.367   3.667  0.5933  0.4936 -0.0555
  108MOL    C2840902   7.801   2.475   3.693 -0.1970  0.1310  0.0269
  108MOL    C2940903   7.937   2.447   3.672  0.0484  0.7986  0.0479
  108MOL    C3040904   7.984   2.329   3.620  0.2296  0.4021  0.5771
  108MOL    C3140905   7.893   2.228   3.580  0.3953  0.4112 -0.6395
  108MOL    H3240906   7.438   2.063   3.958  0.1827 -0.6842 -1.0265
  108MOL    H3340907   7.588   1.979   3.757  1.4574  0.1367  1.3472
  108MOL    H3440908   7.490   2.234   3.620 -0.2151  0.0725  0.3999
  108MOL    H3540909   7.472   2.068   3.565 -0.3421  0.1695  1.9716
  108MOL    H3640910   7.607   2.375   3.698  0.2418 -0.8879 -0.8062
  108MOL    H3740911   7.771   2.571   3.731 -2.9506 -0.8223  0.3879
  108MOL    H3840912   8.013   2.521   3.692 -1.0972  2.2041 -0.7411
  108MOL    H3940913   8.092   2.318   3.621  0.1502 -0.7457 -1.2274
  108MOL    C4040914   7.930   2.104   3.510 -0.0364 -0.3306  0.5771
  108MOL    C4140915   7.913   2.069   3.364  0.4029  0.3607  0.7324
  108MOL    O4240916   8.036   2.124   3.415  0.0096 -0.1882  0.1526
  108MOL    C4340917   7.836   2.152   3.262  0.4050 -0.2030  0.3780
  108MOL    O4440918   7.779   2.079   3.144  0.4109  0.5475 -0.9800
  108MOL    C4540919   7.861   2.031   3.042  0.8296 -0.6296 -0.4111
  108MOL    C4640920   7.999   2.042   3.056 -0.3199  0.1555  0.3965
  108MOL    C4740921   8.086   1.982   2.959  0.0861 -0.8660 -0.5166
  108MOL    C4840922   8.030   1.924   2.842 -0.0260 -0.1795  0.1232
  108MOL    C4940923   7.891   1.920   2.829 -0.5110 -0.0812  0.0420
  108MOL    C5040924   7.805   1.964   2.928 -0.7751  0.4047  0.1828
  108MOL    H5140925   7.924   2.013   3.568 -0.9239 -2.2995 -2.4988
  108MOL    H5240926   7.927   1.963   3.341  0.6658  0.0132  2.4393
  108MOL    H5340927   7.891   2.239   3.225  0.1989  1.0180  2.8631
  108MOL    H5440928   7.759   2.203   3.318  0.4729  0.1977  0.1129
  108MOL    H5540929   8.056   2.100   3.128  1.4944  0.1046 -0.9639
  108MOL    H5640930   0.024   1.992   2.961 -0.0171  0.4123 -0.5727
  108MOL    H5740931   8.095   1.876   2.771 -0.3105 -0.1052 -0.1892
  108MOL    H5840932   7.850   1.879   2.737 -0.4635 -1.8229  0.7853
  108MOL    C5940933   7.656   1.957   2.905 -0.3497 -0.0059  0.1753
  108MOL    C6040934   7.561   2.079   2.876 -0.3850 -0.2388 -0.1600
  108MOL    O6140935   7.612   1.994   2.772  0.0740 -0.3263  0.6775
  108MOL    C6240936   7.619   2.215   2.878 -0.0483  0.2666 -0.1674
  108MOL    O6340937   7.518   2.310   2.842 -0.6202 -0.3162  0.5300
  108MOL    C6440938   7.478   2.320   2.709 -0.4023 -0.4154  0.6466
  108MOL    C6540939   7.537   2.250   2.603 -0.1582  0.6100 -0.1012
  108MOL    C6640940   7.494   2.275   2.466  0.0897 -0.1500  0.3479
  108MOL    C6740941   7.396   2.373   2.436  0.2479 -0.6621 -0.8113
  108MOL    C6840942   7.350   2.445   2.545  0.7758 -0.2728  0.3356
  108MOL    C6940943   7.381   2.414   2.681  0.6587  0.6773  0.1810
  108MOL    H7040944   7.625   1.855   2.923  2.6495 -1.8393 -4.4095
  108MOL    H7140945   7.462   2.069   2.919  0.1547 -0.2845  1.0821
  108MOL    H7240946   7.713   2.223   2.826  1.3310  1.4633  2.4033
  108MOL    H7340947   7.640   2.238   2.983  4.6198 -0.2159 -0.8883
  108MOL    H7440948   7.626   2.190   2.615 -1.1163 -0.6046  1.1464
  108MOL    H7540949   7.539   2.217   2.387 -0.0349 -1.1634  0.9977
  108MOL    H7640950   7.359   2.398   2.338 -0.9945  0.2202 -0.1202
  108MOL    H7740951   7.283   2.526   2.523  1.4720 -0.0469 -0.9961
  108MOL    C7840952   7.323   2.485   2.796 -0.4791 -0.2745 -0.8018
  108MOL    C7940953   7.374   2.618   2.841 -0.0717 -0.2924  0.2810
  108MOL    O8040954   7.272   2.613   2.744 -0.1043 -0.2577 -0.1559
  108MOL    C8140955   7.499   2.693   2.796  0.5046  0.3906 -0.3910
  108MOL    O8240956   7.599   2.679   2.891 -0.0542 -0.2991 -0.6193
  108MOL    C8340957   7.719   2.739   2.872  0.3226 -0.3485 -0.0292
  108MOL    C8440958   7.739   2.836   2.772 -0.1405 -0.2716 -0.0091
  108MOL    C8540959   7.858   2.907   2.767 -0.3680  0.0981 -0.4341
  108MOL    C8640960   7.960   2.894   2.862 -1.1827  0.1315  0.1688
  108MOL    C8740961   7.944   2.789   2.949 -0.1026  0.3766 -0.3827
  108MOL    C8840962   7.826   2.719   2.959 -0.1292  0.2845 -0.2786
  108MOL    H8940963   7.242   2.430   2.845 -0.0473  0.7195  1.0519
  108MOL    H9040964   7.339   2.651   2.939 -0.5224 -3.4486  1.2293
  108MOL    H9140965   7.472   2.799   2.802 -0.3060  0.2106 -0.8056
  108MOL    H9240966   7.527   2.662   2.696  0.8398  0.2610 -0.2593
  108MOL    H9340967   7.667   2.865   2.697 -0.6188 -1.6384 -0.1030
  108MOL    H9440968   7.879   2.982   2.692  2.2958  1.0117  1.1530
  108MOL    H9540969   8.052   2.951   2.869  0.2869 -1.5037 -3.9129
  108MOL    H9640970   8.023   2.772   3.022 -1.0197  4.1598  1.6126
  108MOL    C9740971   7.807   2.619   3.069  0.1120 -0.4021  0.2264
  108MOL    C9840972   7.910   2.522   3.129 -0.5345 -0.3724 -0.1389
  108MOL    O9940973   7.881   2.659   3.185 -0.0670 -0.0947 -0.0426
  108MOL   C10040974   8.042   2.498   3.053  0.1653 -0.0717  0.0946
  108MOL   O10140975   8.124   2.399   3.122 -0.1867 -0.0678  0.4237
  108MOL   C10240976   0.032   2.440   3.227 -0.2142 -0.4746 -0.4258
  108MOL   C10340977   0.028   2.568   3.286  0.0614  0.4493  0.5785
  108MOL   C10440978   0.104   2.600   3.397  0.1067  0.4027 -0.0145
  108MOL   C10540979   0.185   2.506   3.459 -0.3531  0.3241  0.9862
  108MOL   C10640980   0.185   2.377   3.406  0.7057 -0.2475 -0.4755
  108MOL   C10740981   0.118   2.343   3.286  0.5089 -0.7218 -0.2037
  108MOL   H10840982   7.701   2.597   3.082 -0.3913  2.4065  1.1482
  108MOL   H10940983   7.860   2.442   3.182 -1.9030 -0.7599 -1.9314
  108MOL   H11040984   8.096   2.592   3.041  0.6442 -0.1595  1.4216
  108MOL   H11140985   8.019   2.455   2.956 -1.6929 -2.2018  1.4187
  108MOL   H11240986   8.134   2.652   3.258 -1.5865 -1.3484 -1.2268
  108MOL   H11340987   0.095   2.703   3.430  0.8670  1.0943 -1.9269
  108MOL   H11440988   0.256   2.537   3.534 -0.2037 -0.3333  1.1145
  108MOL   H11540989   0.248   2.305   3.456  1.9191  0.9254 -0.2568
  108MOL   C11640990   0.134   2.209   3.211 -0.3424 -0.5986 -0.5978
  108MOL   C11740991   0.216   2.210   3.086 -1.0668  0.1602  0.3490
  108MOL   O11840992   0.270   2.173   3.211 -0.1150 -0.5833  0.0811
  108MOL   C11940993   0.278   2.340   3.030 -0.3896  0.1585 -0.1303
  108MOL   O12040994   0.406   2.328   2.971 -0.0241  0.2377  0.2132
  108MOL   C12140995   0.517   2.331   3.051  0.2118 -0.5512  0.7235
  108MOL   C12240996   0.546   2.443   3.125 -0.1895  0.4119  0.7040
  108MOL   C12340997   0.646   2.437   3.224 -0.2264  0.1141 -0.4769
  108MOL   C12440998   0.736   2.326   3.225 -0.0393 -0.1501  0.1976
  108MOL   C12540999   0.718   2.224   3.133 -0.2050  1.5348 -0.6246
  108MOL   C12641000   0.601   2.217   3.054 -0.7417 -0.6115 -0.0082
  108MOL   H12741001   0.059   2.136   3.239  0.1711 -0.5136  1.0647
  108MOL   H12841002   0.225   2.122   3.022 -1.5258 -0.8542  1.6713
  108MOL   H12941003   0.266   2.418   3.104 -1.9363  1.8281 -2.0970
  108MOL   H13041004   0.204   2.368   2.955 -0.0716 -0.9275 -0.8688
  108MOL   H13141005   0.484   2.530   3.111  1.0290  0.9872 -1.2887
  108MOL   H13241006   0.669   2.517   3.293 -1.6807 -1.3813  1.8263
  108MOL   H13341007   0.827   2.336   3.282  0.6513 -0.6538 -0.8119
  108MOL   H13441008   0.793   2.147   3.140 -0.4027  1.5788  2.4897
  108MOL   C13541009   0.571   2.095   2.971  1.1820  0.1985 -0.0856
  108MOL   C13641010   0.664   2.047   2.861  0.0806  0.4108 -0.0132
  108MOL   O13741011   0.667   1.995   2.991  0.0425  0.2631 -0.1503
  108MOL   C13841012   0.789   2.114   2.812  0.0011  0.4481 -0.1732
  108MOL   O13941013   0.761   2.237   2.749 -0.0983 -0.4251  0.1145
  108MOL   C14041014   0.816   2.357   2.784  0.1810 -0.0343 -0.6209
  108MOL   C14141015   0.880   2.373   2.911  0.2611  0.0079 -0.4126
  108MOL   C14241016   0.931   2.505   2.940 -0.3679  0.4711 -0.0176
  108MOL   C14341017   0.910   2.616   2.854 -0.6514 -0.0863 -0.6167
  108MOL   C14441018   0.847   2.595   2.732 -0.5651 -0.1624  1.0504
  108MOL   C14541019   0.807   2.466   2.697  0.8390  0.1029 -0.1890
  108MOL   H14641020   0.475   2.050   2.994  0.5721  0.8490 -1.3033
  108MOL   H14741021   0.618   1.985   2.785 -0.9789 -1.1796  1.8899
  108MOL   H14841022   0.835   2.048   2.740  2.2224  1.7380  0.0382
  108MOL   H14941023   0.853   2.112   2.900 -0.2501 -2.3099 -0.0198
  108MOL   H15041024   0.886   2.292   2.983 -0.2647 -1.1750 -1.6601
  108MOL   H15141025   0.981   2.524   3.033  0.9509 -0.5727 -0.4856
  108MOL   H15241026   0.948   2.714   2.880 -0.8469 -0.1322 -0.1573
  108MOL   H15341027   0.844   2.679   2.664 -0.1939 -0.7413  0.2996
  108MOL   C15441028   0.738   2.440   2.566  0.2460  0.0562 -0.0125
  108MOL   C15541029   0.596   2.479   2.535 -1.0530 -0.2097 -0.1651
  108MOL   O15641030   0.709   2.567   2.500 -0.5992 -0.2162 -0.1875
  108MOL   C15741031   0.509   2.529   2.648  0.0024  0.1322 -0.1849
  108MOL   O15841032   0.404   2.608   2.597  0.4849 -0.7292  0.3134
  108MOL   C15941033   0.302   2.651   2.683  0.3065 -0.2390 -0.1043
  108MOL   C16041034   0.293   2.619   2.819  0.0223  0.0354  0.1630
  108MOL   C16141035   0.198   2.671   2.910 -0.0645  0.3997 -0.3131
  108MOL   C16241036   0.097   2.751   2.863 -0.0689 -0.4376 -0.2220
  108MOL   C16341037   0.102   2.790   2.723  0.6870 -0.2001  0.2762
  108MOL   C16441038   0.202   2.738   2.633  0.1501 -0.4076 -0.0457
  108MOL   H16541039   0.790   2.365   2.507 -1.6966  0.5451 -2.4281
  108MOL   H16641040   0.545   2.437   2.449 -1.2058  0.4978 -0.4233
  108MOL   H16741041   0.580   2.586   2.706  0.1009  0.9609 -1.1006
  108MOL   H16841042   0.470   2.443   2.703 -0.0323 -1.0142 -1.9529
  108MOL   H16941043   0.357   2.550   2.873  0.6383 -0.3596 -1.0596
  108MOL   H17041044   0.213   2.640   3.012 -0.3972 -0.5050 -0.5358
  108MOL   H17141045   0.026   2.793   2.932 -0.0352 -0.4977 -0.1508
  108MOL   H17241046   0.021   2.847   2.682  1.7903  1.8777  0.9170
  108MOL   C17341047   0.199   2.775   2.487 -0.0056 -0.2041 -0.0238
  108MOL   C17441048   0.138   2.695   2.377  0.5075  0.1063 -0.3219
  108MOL   O17541049   0.067   2.805   2.442  0.3053 -0.3552 -0.3487
  108MOL   C17641050   0.077   2.558   2.395 -0.1235 -0.4693 -0.2470
  108MOL   O17741051   0.097   2.487   2.270  0.0490 -0.3526  0.2346
  108MOL   C17841052   0.020   2.380   2.229  0.1053  1.2241  0.0156
  108MOL   C17941053   8.110   2.306   2.319 -0.5008  0.4202  0.7880
  108MOL   C18041054   8.030   2.203   2.268 -0.0609  0.3162  0.6378
  108MOL   C18141055   8.023   2.184   2.126  0.7236  0.1170 -0.2616
  108MOL   C18241056   8.097   2.260   2.037 -0.5915 -0.3089  0.0162
  108MOL   C18341057   0.018   2.360   2.088 -0.7971 -0.2901  0.8197
  108MOL   H18441058   0.273   2.850   2.462  0.1479  0.3441  1.9787
  108MOL   H18541059   0.165   2.722   2.276  1.7155 -1.4759 -0.4352
  108MOL   H18641060   8.141   2.580   2.408 -0.1680  0.1156 -1.4899
  108MOL   H18741061   0.124   2.503   2.476 -1.0135 -1.2659 -0.2556
  108MOL   H18841062   8.087   2.328   2.422  0.2194  0.2573  0.9885
  108MOL   H18941063   7.956   2.150   2.326  1.5331 -1.1157  1.3968
  108MOL   H19041064   7.947   2.114   2.094  0.9333 -0.0274 -0.4418
  108MOL   H19141065   8.084   2.250   1.930 -1.7437  0.2372  0.1038
  108MOL   C19241066   0.111   2.432   1.995  0.5844 -0.0157 -0.1840
  108MOL   C19341067   0.262   2.431   2.000  0.1562 -0.0463  0.1389
  108MOL   O19441068   0.187   2.350   1.909 -0.5759 -0.0390 -0.0140
  108MOL   C19541069   0.340   2.365   2.110 -0.0915 -1.5320 -0.4187
  108MOL   O19641070   0.475   2.391   2.081 -0.0178 -0.1326  0.5638
  108MOL   C19741071   0.566   2.320   2.160 -0.0727 -0.0137 -0.0376
  108MOL   C19841072   0.539   2.224   2.263 -0.0749  0.6933 -0.2281
  108MOL   C19941073   0.645   2.171   2.334  0.1239 -0.2842 -0.3398
  108MOL   C20041074   0.783   2.195   2.301 -0.3518 -1.0934 -0.1462
  108MOL   C20141075   0.812   2.278   2.189  0.5845  0.0255 -0.2526
  108MOL   C20241076   0.703   2.340   2.117 -0.1554 -0.1099 -0.0913
  108MOL   H20341077   0.056   2.519   1.962  0.8651  1.1504  2.3285
  108MOL   H20441078   0.313   2.519   1.960 -0.6142 -0.7248 -2.4178
  108MOL   H20541079   0.306   2.262   2.106  1.7377 -2.1358 -0.9376
  108MOL   H20641080   0.315   2.396   2.211 -4.2090 -2.5253 -1.0329
  108MOL   H20741081   0.434   2.211   2.287 -0.0512  0.1912 -0.3946
  108MOL   H20841082   0.622   2.099   2.411  2.4366  0.3948  1.0408
  108MOL   H20941083   0.867   2.149   2.350 -0.6364  0.2693  1.6740
  108MOL   H21041084   0.911   2.290   2.148 -0.7176  0.7905 -3.3313
  108MOL   C21141085   0.730   2.418   1.985 -0.3127 -0.5012 -0.8868
  108MOL   C21241086   0.792   2.556   1.985  0.1936  0.0545 -0.1972
  108MOL   O21341087   0.865   2.440   1.947  0.2778  0.0666  0.2010
  108MOL   C21441088   0.831   2.627   2.114  0.0885 -0.5282 -0.3059
  108MOL   O21541089   0.964   2.666   2.108 -0.4715  0.0682 -0.0536
  108MOL   C21641090   1.001   2.727   2.225  0.0348 -0.1490  0.4231
  108MOL   C21741091   1.017   2.866   2.218  0.3819  0.1831 -0.0208
  108MOL   C21841092   1.057   2.947   2.328  0.5947  0.3209  0.2752
  108MOL   C21941093   1.080   2.883   2.451  0.2076 -0.1535  0.0215
  108MOL   C22041094   1.083   2.740   2.454  0.4034 -0.1305  0.1648
  108MOL   C22141095   1.048   2.657   2.345  0.6873  0.1952  0.6517
  108MOL   H22241096   0.653   2.399   1.911  0.1358 -0.5735 -1.3412
  108MOL   H22341097   0.755   2.623   1.908  2.2110  1.2723 -0.1353
  108MOL   H22441098   0.818   2.556   2.196  1.1651 -1.2975 -0.7873
  108MOL   H22541099   0.771   2.717   2.124  1.0032  0.5220 -3.6140
  108MOL   H22641100   0.983   2.911   2.126 -0.0049  0.4966  0.2770
  108MOL   H22741101   1.051   3.054   2.314 -0.7521  0.1898 -0.2537
  108MOL   H22841102   1.096   2.942   2.540 -1.2620  0.6244 -0.2192
  108MOL   H22941103   1.100   2.689   2.547  1.3787 -1.6486 -0.8282
  108MOL   C23041104   1.033   2.512   2.362 -0.4443 -0.6860  0.1381
  108MOL   C23141105   1.131   2.407   2.331 -0.0451 -0.0482 -0.0695
  108MOL   O23241106   1.114   2.457   2.465 -0.3259 -0.9055 -0.8134
  108MOL   C23341107   1.266   2.421   2.266  0.0343  0.3389  0.6046
  108MOL   O23441108   1.241   2.457   2.126  0.2440  0.0143 -0.1621
  108MOL   C23541109   1.355   2.479   2.049  0.0240 -0.5087  0.9444
  108MOL   C23641110   1.486   2.479   2.103 -0.2258  0.3094  0.5475
  108MOL   C23741111   1.592   2.498   2.015 -0.4014 -0.0332  0.0817
  108MOL   C23841112   1.575   2.500   1.877 -0.2668 -0.0662  0.6967
  108MOL   C23941113   1.446   2.497   1.821  0.2307 -0.1516  0.0685
  108MOL   C24041114   1.333   2.493   1.912  0.1931 -0.4377  0.5605
  108MOL   H24141115   0.930   2.478   2.359 -0.1501 -1.6576  0.8394
  108MOL   H24241116   1.083   2.311   2.315  0.1795 -0.2575  0.5251
  108MOL   H24341117   1.322   2.328   2.260 -0.1512  0.1538  1.6803
  108MOL   H24441118   1.319   2.494   2.326  0.9973  0.4267 -0.3415
  108MOL   H24541119   1.501   2.476   2.210  2.2090 -1.6353  0.1839
  108MOL   H24641120   1.694   2.495   2.049 -0.1654  1.4177 -0.4584
  108MOL   H24741121   1.664   2.504   1.817  1.3366 -1.2869  2.9190
  108MOL   H24841122   1.425   2.493   1.715  0.9675 -1.1626 -0.0475
  108MOL   C24941123   1.190   2.494   1.862  0.3014 -0.7453  0.2764
  108MOL   C25041124   1.121   2.618   1.795  0.0709 -0.2835 -0.1067
  108MOL   O25141125   1.168   2.500   1.721 -0.7073 -0.6267  0.0547
  108MOL   C25241126   1.200   2.745   1.760 -0.0498 -0.0289 -0.1238
  108MOL   O25341127   1.146   2.822   1.647  0.4318  0.9029 -0.4992
  108MOL   C25441128   1.027   2.880   1.662 -0.5799 -0.2828 -0.2666
  108MOL   C25541129   0.976   2.920   1.788  0.6487  1.0682  0.6850
  108MOL   C25641130   0.846   2.978   1.797 -0.4766 -0.7317  0.0690
  108MOL   C25741131   0.765   3.007   1.679 -0.9590  0.2442 -0.7637
  108MOL   C25841132   0.818   2.969   1.557  0.1996 -0.4612  0.0646
  108MOL   C25941133   0.946   2.907   1.543 -0.4255  0.2449 -0.7340
  108MOL   H26041134   1.130   2.414   1.905 -0.9045  0.3104  0.5948
  108MOL   H26141135   1.016   2.629   1.820  0.3097 -1.1760  1.3231
  108MOL   H26241136   1.304   2.716   1.744  0.0073  1.7749 -3.5477
  108MOL   H26341137   1.199   2.802   1.853 -0.8559 -1.2415  0.6205
  108MOL   H26441138   1.037   2.905   1.875  0.8802 -1.6838  0.1099
  108MOL   H26541139   0.825   3.023   1.893 -0.1581  1.9436 -1.0524
  108MOL   H26641140   0.670   3.059   1.683 -0.7772  0.5420 -0.1372
  108MOL   H26741141   0.777   2.990   1.459 -2.1557 -0.5547  1.0072
  108MOL   C26841142   1.005   2.871   1.412  0.1642 -0.1196 -0.0696
  108MOL   C26941143   1.017   2.731   1.360 -0.4150  0.4472 -0.4255
  108MOL   O27041144   0.911   2.822   1.316  0.3499 -0.0696 -0.3249
  108MOL   C27141145   0.956   2.601   1.423 -0.2099 -0.6772 -0.2193
  108MOL   O27241146   0.916   2.498   1.347  0.4006  0.0733  0.9178
  108MOL   C27341147   0.882   2.381   1.418 -0.1643 -0.4928 -0.9404
  108MOL   C27441148   0.855   2.377   1.560  0.3128  0.8002 -0.1189
  108MOL   C27541149   0.815   2.258   1.619  0.2790 -0.2645  1.2831
  108MOL   C27641150   0.788   2.146   1.539 -0.0758  0.1062  0.3680
  108MOL   C27741151   0.806   2.147   1.402 -0.0164 -0.3585 -0.0308
  108MOL   C27841152   0.853   2.264   1.333  0.8376  0.0068 -0.9275
  108MOL   H27941153   1.086   2.936   1.381  1.7378 -2.3421 -0.7860
  108MOL   H28041154   1.102   2.723   1.292  0.9113 -3.2184  1.5048
  108MOL   H28141155   0.866   2.643   1.468  0.7971 -0.5405  1.7002
  108MOL   H28241156   1.026   2.573   1.502 -0.9777  0.6980  0.9717
  108MOL   H28341157   0.870   2.467   1.618 -1.3034  0.9615  0.0795
  108MOL   H28441158   0.804   2.258   1.727 -0.2098 -0.2808  1.2378
  108MOL   H28541159   0.765   2.051   1.584  1.1650  0.0601  0.9365
  108MOL   H28641160   0.779   2.058   1.348 -0.4977  0.2531 -0.8218
  108MOL   C28741161   0.859   2.267   1.179 -0.1056  0.5660 -0.0222
  108MOL   C28841162   0.976   2.221   1.100 -0.1831 -0.1263  0.8831
  108MOL   O28941163   0.860   2.134   1.124 -0.1859 -0.2204 -0.4391
  108MOL   C29041164   1.103   2.165   1.164  0.0705 -0.7382  0.2185
  108MOL   O29141165   1.211   2.159   1.071  0.4796 -0.2457 -0.3688
  108MOL   C29241166   1.311   2.257   1.080  0.5628  0.6181  0.4401
  108MOL   C29341167   1.291   2.375   1.152 -0.6829  0.3394 -0.4484
  108MOL   C29441168   1.396   2.470   1.160 -0.1640  0.1077 -0.0086
  108MOL   C29541169   1.523   2.441   1.099 -0.5313  0.0898  0.1151
  108MOL   C29641170   1.540   2.317   1.033  0.0075 -0.1922  0.0993
  108MOL   C29741171   1.435   2.227   1.018  0.2869 -0.2272  0.2219
  108MOL   H29841172   0.773   2.325   1.145 -0.6650 -0.1234  0.2117
  108MOL   H29941173   0.991   2.242   0.995 -1.7010  0.5973  0.7916
  108MOL   H30041174   1.072   2.061   1.167  0.8591 -0.9435  1.5786
  108MOL   H30141175   1.123   2.191   1.268  0.2669 -1.8276  0.4522
  108MOL   H30241176   1.193   2.399   1.191  0.1048  0.5217  1.4504
  108MOL   H30341177   1.371   2.563   1.210 -1.1049 -1.2073  2.0051
  108MOL   H30441178   1.602   2.514   1.111 -1.5394  0.9550  1.5382
  108MOL   H30541179   1.631   2.296   0.978  0.8664  1.2841  0.9062
  108MOL   C30641180   1.454   2.103   0.930  0.4266  0.0751  0.4344
  108MOL   C30741181   1.417   2.110   0.782  0.4117 -0.2337  0.4932
  108MOL   O30841182   1.551   2.136   0.828  0.1693  0.2545 -0.5745
  108MOL   C30941183   1.344   2.230   0.723 -0.4960 -0.6006 -0.6516
  108MOL   O31041184   1.360   2.238   0.590  0.4234  0.1051  0.2717
  108MOL   C31141185   1.305   2.336   0.514 -0.0332 -0.5031 -0.0191
  108MOL   C31241186   1.212   2.431   0.563  0.0544 -1.0942 -0.3927
  108MOL   C31341187   1.165   2.540   0.488 -0.1450  0.3153  0.9003
  108MOL   C31441188   1.204   2.558   0.357  0.6992  0.0919 -0.2752
  108MOL   C31541189   1.296   2.468   0.306 -0.6311 -0.4099  0.4781
  108MOL   C31641190   1.353   2.360   0.382  0.1770  0.0500  0.7419
  108MOL   H31741191   1.490   2.016   0.984 -0.6294  0.1555  1.2926
  108MOL   H31841192   1.402   2.025   0.715  0.3823  0.1201  0.0488
  108MOL   H31941193   1.367   2.323   0.776 -3.1246 -0.9811  1.2842
  108MOL   H32041194   1.239   2.230   0.754  0.1924 -0.7920  1.7705
  108MOL   H32141195   1.179   2.435   0.666  2.1644  0.5903  0.2498
  108MOL   H32241196   1.095   2.607   0.536 -3.4300 -1.0401 -1.7539
  108MOL   H32341197   1.150   2.634   0.302  1.4429  0.6983 -0.1783
  108MOL   H32441198   1.324   2.496   0.206  0.9428  1.0911  1.3287
  108MOL   C32541199   1.465   2.274   0.328 -0.0827  0.0845  0.0011
  108MOL   C32641200   1.446   2.136   0.286  0.5243  0.1188  0.0309
  108MOL   O32741201   1.450   2.242   0.189 -0.2121 -0.0146  0.1682
  108MOL   C32841202   1.326   2.049   0.290 -0.6129 -0.2871  0.0729
  108MOL   O32941203   1.338   1.946   0.185  0.0230 -0.1506  0.0672
  108MOL   C33041204   1.248   1.843   0.176  0.0443 -0.0186  0.4707
  108MOL   C33141205   1.124   1.858   0.239 -0.7741  0.2580  0.4907
  108MOL   C33241206   1.031   1.754   0.222  0.0431  0.2152 -1.1359
  108MOL   C33341207   1.063   1.637   0.148  0.4813  0.5468 -1.4258
  108MOL   C33441208   1.186   1.633   0.084  0.5600  0.0225  0.8999
  108MOL   C33541209   1.278   1.736   0.099 -0.0977 -0.0293  0.3004
  108MOL   H33641210   1.561   2.318   0.353 -0.4008  0.5937  0.3252
  108MOL   H33741211   1.540   2.081   0.290  2.1392  2.6067 -1.6755
  108MOL   H33841212   1.243   2.116   0.266  0.6212  0.3157 -2.7364
  108MOL   H33941213   1.312   2.007   0.389  1.1045  0.7647  0.7781
  108MOL   H34041214   1.093   1.948   0.291  0.8219  0.7996  0.5473
  108MOL   H34141215   0.935   1.762   0.272  2.0271  3.1806  2.3594
  108MOL   H34241216   0.994   1.554   0.155  1.4912 -0.2683 -0.7781
  108MOL   H34341217   1.208   1.544   0.026  0.6662  0.5461  0.1216
  108MOL   C34441218   1.418   1.727   0.039 -0.7054  0.1696 -0.3683
  108MOL   C34541219   1.542   1.667   0.100 -0.5934 -0.0740  0.0763
  108MOL   O34641220   1.461   1.590   0.004 -0.6105  0.0891  0.6398
  108MOL   C34741221   1.540   1.614   0.242 -0.5853  0.2285 -0.5896
  108MOL   O34841222   1.494   1.702   0.337  0.2342  0.5066 -0.2746
  108MOL   C34941223   1.578   1.787   0.403 -0.2596  0.3145 -0.8338
  108MOL   C35041224   1.682   1.851   0.334 -0.7172  1.1706 -0.2594
  108MOL   C35141225   1.762   1.949   0.395 -0.0943  0.4269 -0.0764
  108MOL   C35241226   1.752   1.965   0.535  0.1017 -0.2568  0.2535
  108MOL   C35341227   1.667   1.890   0.612  0.3181  0.2457 -0.5815
  108MOL   C35441228   1.578   1.801   0.546 -0.6894 -0.3590  0.3711
  108MOL   H35541229   1.435   1.803   8.133  0.4536 -1.1032 -1.4084
  108MOL   H35641230   1.634   1.708   0.058 -0.3532 -0.4190  0.2656
  108MOL   H35741231   1.643   1.588   0.264 -0.7373  0.2696  0.1813
  108MOL   H35841232   1.467   1.533   0.248  0.6613 -0.8415  0.4426
  108MOL   H35941233   1.687   1.836   0.227 -1.7327 -2.8731  0.1842
  108MOL   H36041234   1.827   2.023   0.350  1.1301 -0.4645  0.1974
  108MOL   H36141235   1.809   2.043   0.581 -0.3381  0.2832 -0.1069
  108MOL   H36241236   1.661   1.915   0.717 -0.2617 -0.2552 -0.4945
  108MOL   C36341237   1.476   1.728   0.626 -0.2419  0.2486 -0.6814
  108MOL   C36441238   1.505   1.587   0.670 -0.0437  0.5106  0.5016
  108MOL   O36541239   1.528   1.701   0.758 -0.3237 -0.0993 -0.0456
  108MOL   C36641240   1.632   1.505   0.646 -0.7743  0.2214 -0.2071
  108MOL   O36741241   1.623   1.363   0.692 -0.1000 -0.2920  0.0326
  108MOL   C36841242   1.594   1.257   0.618  0.8493  0.2907  0.8301
  108MOL   C36941243   1.549   1.265   0.485 -0.2851  0.0236  0.0822
  108MOL   C37041244   1.504   1.150   0.419  0.0092  0.5453  0.4522
  108MOL   C37141245   1.506   1.028   0.478  0.4319 -0.6020 -0.3034
  108MOL   C37241246   1.555   1.015   0.609 -0.2106 -0.7929 -0.5382
  108MOL   C37341247   1.603   1.127   0.683 -0.0198 -0.4379  0.9438
  108MOL   H37441248   1.370   1.740   0.607 -0.9211 -3.9067  0.0050
  108MOL   H37541249   1.415   1.530   0.693  0.3801 -0.2572  0.2736
  108MOL   H37641250   1.704   1.556   0.710 -1.4952  1.8722 -0.6781
  108MOL   H37741251   1.664   1.515   0.543  1.8947  1.7717  0.7049
  108MOL   H37841252   1.541   1.352   0.423 -1.1299  2.1034  2.9869
  108MOL   H37941253   1.473   1.146   0.316  0.2991  1.9498  0.2888
  108MOL   H38041254   1.460   0.944   0.427 -0.6399  0.8452 -1.7461
  108MOL   H38141255   1.546   0.917   0.653  1.3937 -1.4419 -1.6151
  108MOL   H38241256   1.636   1.118   0.785  1.1839  0.6330  0.6576
  109MOL     C141257   1.524   5.095   6.799 -0.0529 -0.5992  0.7186
  109MOL     C241258   1.481   5.072   6.939 -0.4542  0.2016 -0.2302
  109MOL     O341259   1.444   5.187   6.872  0.4627  0.5522  0.6536
  109MOL     C441260   1.579   5.092   7.051 -0.6976 -0.0088 -0.7712
  109MOL     O541261   1.711   5.054   7.010  0.3673  0.1113 -0.2920
  109MOL     C641262   1.810   5.071   7.103  0.2559 -0.6976 -0.3200
  109MOL     C741263   1.785   5.101   7.240 -0.1356  0.9692 -0.2618
  109MOL     C841264   1.890   5.132   7.332 -0.2669  0.1548  0.7167
  109MOL     C941265   2.020   5.116   7.280  0.2421 -0.1368 -0.6173
  109MOL    C1041266   2.051   5.073   7.153 -0.3124  0.4758 -0.0276
  109MOL    C1141267   1.950   5.057   7.056  0.0473 -1.0062  0.0622
  109MOL    H1241268   1.475   5.033   6.724  0.5362 -0.8784  0.5562
  109MOL    H1341269   1.400   5.002   6.958 -1.8072  1.7471 -0.2062
  109MOL    H1441270   1.541   5.019   7.122  0.1636  0.2189 -0.0771
  109MOL    H1541271   1.574   5.192   7.094 -0.7178  0.2605 -1.3876
  109MOL    H1641272   1.685   5.097   7.282  0.4531  0.2054  1.1041
  109MOL    H1741273   1.873   5.148   7.438  0.6087  0.1637  0.8594
  109MOL    H1841274   2.100   5.142   7.348 -0.3803  0.3799 -0.0820
  109MOL    H1941275   2.151   5.058   7.116  0.2452 -1.2271  2.0849
  109MOL    H2041276   1.624   5.134   6.779 -0.4485  0.4625  0.8081
  109MOL    C2141277   1.981   5.026   6.912 -0.1002 -0.6674 -0.0016
  109MOL    C2241278   1.957   5.125   6.800 -0.0370  0.2360  0.0747
  109MOL    O2341279   2.087   5.100   6.852 -0.1467  0.1702  0.8499
  109MOL    C2441280   1.905   5.268   6.825  0.2224  0.9366  0.3129
  109MOL    O2541281   1.933   5.322   6.697 -0.2685  0.2765 -0.1173
  109MOL    C2641282   1.944   5.457   6.684 -0.0658  0.9732  0.2724
  109MOL    C2741283   1.912   5.540   6.791 -0.2205 -0.0731  0.8075
  109MOL    C2841284   1.918   5.685   6.778 -0.0755 -0.5987 -0.3151
  109MOL    C2941285   1.961   5.746   6.656  0.3195 -0.3010 -0.4468
  109MOL    C3041286   1.991   5.658   6.545 -0.2404  0.4440 -0.1434
  109MOL    C3141287   1.982   5.515   6.558 -0.1459 -0.3364  0.6044
  109MOL    H3241288   1.972   4.921   6.886  2.1897 -0.6639 -0.9388
  109MOL    H3341289   1.938   5.075   6.705  0.8043 -1.3151  0.7047
  109MOL    H3441290   1.957   5.317   6.908 -0.9586 -0.9092  2.1852
  109MOL    H3541291   1.797   5.271   6.838  0.2120  1.2771  0.1631
  109MOL    H3641292   1.865   5.503   6.881 -1.3130 -2.9102 -0.8594
  109MOL    H3741293   1.874   5.737   6.862 -0.0525 -1.2764  0.1182
  109MOL    H3841294   1.982   5.852   6.644 -3.8245  0.5831 -0.7383
  109MOL    H3941295   2.029   5.708   6.458 -0.2012  1.9786  0.7338
  109MOL    C4041296   2.001   5.431   6.436 -0.0209  0.0239 -0.2943
  109MOL    C4141297   1.891   5.347   6.368 -0.2197 -0.8645 -0.0497
  109MOL    O4241298   1.914   5.479   6.330  0.1683 -0.1117  0.4794
  109MOL    C4341299   1.754   5.320   6.421  0.5236  0.5892  0.1402
  109MOL    O4441300   1.680   5.265   6.315 -0.1451  0.3369  0.5138
  109MOL    C4541301   1.566   5.204   6.352  0.3416  0.1356 -1.1201
  109MOL    C4641302   1.504   5.202   6.479 -0.5975 -0.1892  0.4175
  109MOL    C4741303   1.385   5.129   6.494 -0.3533 -0.7492 -0.1237
  109MOL    C4841304   1.322   5.061   6.391 -0.1732 -0.2086  0.6261
  109MOL    C4941305   1.373   5.064   6.264 -0.0733  0.0862 -0.1077
  109MOL    C5041306   1.494   5.141   6.243  0.2377  0.3859  0.3526
  109MOL    H5141307   2.103   5.446   6.400  0.1082  2.4648  0.9984
  109MOL    H5241308   1.934   5.275   6.299  0.0271 -1.8893  1.1569
  109MOL    H5341309   1.709   5.408   6.467  1.1075 -0.3540  2.5841
  109MOL    H5441310   1.761   5.240   6.494  2.3798 -0.3690 -1.0418
  109MOL    H5541311   1.554   5.242   6.566  2.3513 -0.3129 -1.1646
  109MOL    H5641312   1.331   5.126   6.588  1.1339  1.1381  0.8419
  109MOL    H5741313   1.232   5.004   6.409 -0.8706  0.9087  0.7240
  109MOL    H5841314   1.321   5.012   6.185  3.0390 -0.7197 -1.7383
  109MOL    C5941315   1.560   5.139   6.108  0.2501  0.1453 -0.4406
  109MOL    C6041316   1.602   5.014   6.029  1.0192  0.5207 -0.3195
  109MOL    O6141317   1.482   5.089   6.007  0.0386  0.2173 -0.1319
  109MOL    C6241318   1.582   4.872   6.078  0.2326  0.3651  0.4530
  109MOL    O6341319   1.643   4.837   6.207 -0.2120  0.2952  0.2953
  109MOL    C6441320   1.778   4.814   6.208  0.0684 -0.3818 -1.0737
  109MOL    C6541321   1.860   4.778   6.098  0.9729  0.0047 -0.3060
  109MOL    C6641322   1.998   4.756   6.116  0.1384  0.2052  0.3825
  109MOL    C6741323   2.070   4.791   6.238 -0.1843 -0.7982  0.1060
  109MOL    C6841324   1.986   4.833   6.344 -0.1336  1.0607 -0.0809
  109MOL    C6941325   1.844   4.848   6.331 -0.4559  0.3176 -0.2612
  109MOL    H7041326   1.604   5.237   6.092 -0.8436  0.4243 -1.7445
  109MOL    H7141327   1.671   5.029   5.946 -0.4045  1.9671 -1.2738
  109MOL    H7241328   1.601   4.798   6.001  0.9435 -0.3885  1.3455
  109MOL    H7341329   1.475   4.861   6.093  0.4475 -2.1093  0.3079
  109MOL    H7441330   1.815   4.753   6.003 -2.2156 -1.6748  1.5781
  109MOL    H7541331   2.061   4.729   6.032 -1.7244  2.5598 -1.8153
  109MOL    H7641332   2.177   4.786   6.245 -0.0079  0.7031 -1.3184
  109MOL    H7741333   2.039   4.871   6.430 -1.5349  3.0049 -0.0311
  109MOL    C7841334   1.773   4.918   6.439  0.3793 -0.7477  0.5433
  109MOL    C7941335   1.660   4.856   6.509 -0.1035  0.2303 -0.3956
  109MOL    O8041336   1.791   4.850   6.567 -0.4241 -0.1972  0.2263
  109MOL    C8141337   1.591   4.721   6.478  0.3181 -0.9172  0.9308
  109MOL    O8241338   1.551   4.664   6.605  0.2047 -0.3414 -0.6746
  109MOL    C8341339   1.584   4.534   6.629 -0.0882  0.2767  0.0510
  109MOL    C8441340   1.544   4.435   6.538 -0.0134 -0.1133 -0.5319
  109MOL    C8541341   1.564   4.299   6.568 -0.0670  0.5539 -0.7331
  109MOL    C8641342   1.636   4.258   6.678  0.1421 -0.1981  0.0233
  109MOL    C8741343   1.677   4.360   6.766  0.8722  0.1262  0.7319
  109MOL    C8841344   1.651   4.500   6.745  0.0969  0.2806 -0.5308
  109MOL    H8941345   1.785   5.026   6.441  0.3204 -0.7138 -0.8763
  109MOL    H9041346   1.584   4.915   6.560  1.7219  1.3285  1.1018
  109MOL    H9141347   1.674   4.662   6.439  0.8281 -0.6795  1.6444
  109MOL    H9241348   1.507   4.722   6.408  0.2459  0.2803  1.0205
  109MOL    H9341349   1.509   4.475   6.445  0.8098 -0.1535 -0.8606
  109MOL    H9441350   1.509   4.231   6.503 -0.2044  1.6002 -1.7181
  109MOL    H9541351   1.647   4.157   6.717  1.0863 -0.2731 -0.4050
  109MOL    H9641352   1.724   4.321   6.855  0.7357 -0.8374  0.3947
  109MOL    C9741353   1.695   4.607   6.839  0.0697 -0.1421  0.8172
  109MOL    C9841354   1.616   4.646   6.968  0.3009  0.2779  0.1927
  109MOL    O9941355   1.725   4.551   6.965  0.4241 -0.0460 -0.4861
  109MOL   C10041356   1.483   4.590   7.016 -0.6103 -0.8035 -0.0360
  109MOL   O10141357   1.377   4.638   6.934  0.3599 -0.1619  0.3686
  109MOL   C10241358   1.251   4.599   6.958  0.4626 -0.1465 -0.2047
  109MOL   C10341359   1.224   4.496   7.051 -1.2013 -1.0621  0.5386
  109MOL   C10441360   1.091   4.474   7.086  0.5535  0.3629 -0.0713
  109MOL   C10541361   0.992   4.546   7.013  0.4154 -0.1018  0.1829
  109MOL   C10641362   1.021   4.655   6.933  0.4347 -0.8790 -0.4232
  109MOL   C10741363   1.157   4.677   6.891  0.3832 -0.2256  0.0528
  109MOL   H10841364   1.780   4.662   6.798  0.6675 -1.7511 -0.1574
  109MOL   H10941365   1.647   4.735   7.023 -0.5039 -0.2876  1.5804
  109MOL   H11041366   1.473   4.617   7.121 -1.5076 -0.9958 -0.0640
  109MOL   H11141367   1.483   4.481   7.006 -0.8524 -1.0200  2.1142
  109MOL   H11241368   1.303   4.441   7.100 -0.3842  1.7144  2.4391
  109MOL   H11341369   1.073   4.390   7.151  1.9764  0.5865  0.6252
  109MOL   H11441370   0.888   4.527   7.038 -0.4775  2.6713 -1.2786
  109MOL   H11541371   0.942   4.719   6.896  1.1104  1.2275  1.6721
  109MOL   C11641372   1.200   4.788   6.800 -0.6490  0.5388  1.0167
  109MOL   C11741373   1.165   4.779   6.652  1.1502 -0.1891  0.4259
  109MOL   O11841374   1.104   4.874   6.744 -0.0746 -0.3118  0.0177
  109MOL   C11941375   1.060   4.688   6.579  0.7753  0.2629  0.6509
  109MOL   O12041376   0.967   4.752   6.496  0.5380 -0.4029 -0.2803
  109MOL   C12141377   1.005   4.790   6.364  0.0144 -0.0141  0.1529
  109MOL   C12241378   1.128   4.752   6.303  0.1513  0.3579  0.3031
  109MOL   C12341379   1.155   4.789   6.171 -0.2597 -0.4230  0.6869
  109MOL   C12441380   1.054   4.856   6.095  0.3973  0.3622  0.9432
  109MOL   C12541381   0.936   4.900   6.160  0.2288 -0.5073 -0.0841
  109MOL   C12641382   0.911   4.873   6.296 -0.0617  0.6025  0.0386
  109MOL   H12741383   1.303   4.814   6.827 -0.5677  0.3069  0.9375
  109MOL   H12841384   1.222   4.835   6.578  0.9936 -0.6569 -0.0541
  109MOL   H12941385   0.999   4.627   6.647 -1.6727  0.5926 -1.1584
  109MOL   H13041386   1.116   4.609   6.528  1.1294  1.2457 -0.5059
  109MOL   H13141387   1.202   4.689   6.351  0.5363 -1.5706 -2.7271
  109MOL   H13241388   1.237   4.746   6.116  0.5443  0.0469  1.5109
  109MOL   H13341389   1.074   4.881   5.992 -0.5251 -0.7921  0.4791
  109MOL   H13441390   0.850   4.942   6.109  0.2820  1.1128  1.1430
  109MOL   C13541391   0.781   4.924   6.364 -0.2418 -0.1603  0.3605
  109MOL   C13641392   0.765   5.057   6.430  0.3196 -0.1139  0.8969
  109MOL   O13741393   0.717   5.030   6.292  0.0996  0.1406 -0.5109
  109MOL   C13841394   0.877   5.160   6.437  0.7609  0.1342 -0.0784
  109MOL   O13941395   0.912   5.184   6.573 -0.1612 -0.3314 -0.4593
  109MOL   C14041396   0.840   5.272   6.645 -0.2611 -0.9381 -0.0477
  109MOL   C14141397   0.711   5.317   6.606  0.1483  0.2437 -0.2559
  109MOL   C14241398   0.634   5.398   6.689  0.5547 -0.1956  0.1598
  109MOL   C14341399   0.678   5.435   6.819 -0.3420  0.4388 -0.0390
  109MOL   C14441400   0.810   5.393   6.857  0.7021 -0.5432  0.3122
  109MOL   C14541401   0.891   5.314   6.770 -0.0558 -0.2600 -0.2708
  109MOL   H14641402   0.722   4.839   6.398 -0.3686 -0.3093 -0.2284
  109MOL   H14741403   0.675   5.073   6.489  0.3638 -1.2577  1.2756
  109MOL   H14841404   0.855   5.245   6.371 -1.1856  0.1086  0.5064
  109MOL   H14941405   0.969   5.114   6.401  0.5162  0.1854 -0.7785
  109MOL   H15041406   0.668   5.305   6.507  1.5472  0.3673 -0.8868
  109MOL   H15141407   0.540   5.444   6.665  1.1123  1.0346  0.3233
  109MOL   H15241408   0.624   5.488   6.896  0.9052  0.1882  1.0083
  109MOL   H15341409   0.846   5.430   6.952  1.0878  0.9081 -0.3856
  109MOL   C15441410   1.028   5.267   6.807 -0.0772 -0.0400 -0.3300
  109MOL   C15541411   1.155   5.341   6.773  0.1239  0.0333  0.3427
  109MOL   O15641412   1.097   5.352   6.902  0.1188  0.4674 -0.4514
  109MOL   C15741413   1.149   5.474   6.700 -0.3770  0.8240 -0.3318
  109MOL   O15841414   1.268   5.551   6.724  0.0237  0.4521  0.3827
  109MOL   C15941415   1.365   5.570   6.628  1.0023  0.0004 -0.0893
  109MOL   C16041416   1.367   5.504   6.503  0.6461 -0.5254  0.2818
  109MOL   C16141417   1.471   5.527   6.412 -0.4425  0.4586  0.1998
  109MOL   C16241418   1.566   5.633   6.435  0.4001 -0.3685  0.7881
  109MOL   C16341419   1.566   5.692   6.559 -0.5969  1.1491  0.1418
  109MOL   C16441420   1.470   5.659   6.655 -0.1206 -0.3800 -0.1069
  109MOL   H16541421   1.027   5.162   6.835  1.0229 -0.2218 -0.9533
  109MOL   H16641422   1.251   5.289   6.773 -0.4000 -0.9509  1.1738
  109MOL   H16741423   1.063   5.532   6.734 -2.5338 -1.8573 -1.0212
  109MOL   H16841424   1.131   5.456   6.594  0.5052 -2.6159  0.0165
  109MOL   H16941425   1.299   5.423   6.477 -2.0654  2.7753 -3.4471
  109MOL   H17041426   1.474   5.461   6.326 -2.2448  0.7060 -0.0652
  109MOL   H17141427   1.650   5.658   6.373 -1.3291  2.4974 -0.4550
  109MOL   H17241428   1.641   5.765   6.588 -0.4174  0.8218  0.4989
  109MOL   C17341429   1.464   5.719   6.783 -0.4212  0.6005 -0.0929
  109MOL   C17441430   1.512   5.646   6.909  0.1624 -0.7554  0.7165
  109MOL   O17541431   1.591   5.739   6.844 -0.1402  0.4587  0.6444
  109MOL   C17641432   1.559   5.503   6.913  0.4598  0.0505  0.0301
  109MOL   O17741433   1.640   5.478   7.024  0.3287 -0.4368  0.2870
  109MOL   C17841434   1.573   5.455   7.147 -0.8353 -0.3961  0.1233
  109MOL   C17941435   1.433   5.459   7.165 -0.4111 -0.0667  0.0352
  109MOL   C18041436   1.376   5.421   7.288  0.9680 -0.1977 -0.1138
  109MOL   C18141437   1.462   5.390   7.395 -0.0213 -0.3174  0.5555
  109MOL   C18241438   1.604   5.384   7.381 -0.5108  0.1174 -0.1894
  109MOL   C18341439   1.659   5.425   7.257 -0.1651 -0.5518 -0.1074
  109MOL   H18441440   1.396   5.804   6.781 -0.4149  0.5855 -0.8988
  109MOL   H18541441   1.480   5.677   7.008  1.3175 -0.3077  0.9433
  109MOL   H18641442   1.615   5.509   6.820  0.4256  0.8932  0.0578
  109MOL   H18741443   1.475   5.436   6.897  0.4887 -0.3121  1.3382
  109MOL   H18841444   1.358   5.476   7.089 -0.1316  0.4381 -0.1291
  109MOL   H18941445   1.269   5.420   7.303  1.0704 -0.2173  0.6029
  109MOL   H19041446   1.414   5.372   7.490  1.5613 -0.1046  1.4091
  109MOL   H19141447   1.661   5.352   7.467 -1.4267 -1.5895 -0.1953
  109MOL   C19241448   1.808   5.449   7.237  0.6427 -0.8205  0.1295
  109MOL   C19341449   1.856   5.594   7.220  0.7569 -0.4812 -0.5728
  109MOL   O19441450   1.863   5.526   7.344 -0.9155 -0.6373 -0.1386
  109MOL   C19541451   1.763   5.715   7.227 -0.2717 -0.6209  0.0912
  109MOL   O19641452   1.827   5.831   7.278 -0.0193 -0.2215  0.5101
  109MOL   C19741453   1.770   5.950   7.254 -1.0604 -0.4950  0.4835
  109MOL   C19841454   1.641   5.960   7.203  0.3949  0.6426  0.3780
  109MOL   C19941455   1.580   6.082   7.186  0.1753  0.2996 -0.0787
  109MOL   C20041456   1.651   6.201   7.207  0.4456  0.9812  0.1306
  109MOL   C20141457   1.790   6.191   7.240 -0.0566  0.2248  0.0838
  109MOL   C20241458   1.850   6.067   7.268  0.1925  0.4792  0.2229
  109MOL   H20341459   1.869   5.368   7.198  1.2718 -0.4444  0.3318
  109MOL   H20441460   1.945   5.607   7.159 -0.2443 -3.2555 -2.7506
  109MOL   H20541461   1.666   5.701   7.275  0.2650 -1.8261  0.8352
  109MOL   H20641462   1.740   5.744   7.124  1.1155  1.3167  0.2978
  109MOL   H20741463   1.583   5.873   7.177  0.9114  0.1996  0.7073
  109MOL   H20841464   1.481   6.076   7.143  0.1146  2.8045 -0.3589
  109MOL   H20941465   1.603   6.295   7.186  0.8603  0.7702 -1.9098
  109MOL   H21041466   1.840   6.285   7.258  0.9946 -0.3625  0.2392
  109MOL   C21141467   2.002   6.056   7.285  0.6280  0.1104 -0.2401
  109MOL   C21241468   2.096   6.047   7.164  0.8139 -0.4729  0.0741
  109MOL   O21341469   2.068   6.166   7.227 -0.0996 -0.2391  0.1334
  109MOL   C21441470   2.050   6.052   7.017 -0.0206 -0.0564 -0.4997
  109MOL   O21541471   2.129   6.131   6.928  0.3895  0.5187 -0.1586
  109MOL   C21641472   2.096   6.265   6.909 -0.3358 -0.0607 -0.0571
  109MOL   C21741473   2.006   6.340   6.996  0.2866  0.0736  0.4222
  109MOL   C21841474   2.000   6.478   6.985 -0.1386 -0.5275  0.1078
  109MOL   C21941475   2.076   6.540   6.884  0.3419  0.0934  0.2324
  109MOL   C22041476   2.157   6.470   6.794  0.2792  0.0289 -0.1355
  109MOL   C22141477   2.172   6.329   6.809 -0.3843 -0.6458 -0.3030
  109MOL   H22241478   2.035   6.012   7.379 -2.3909  0.8561  1.2281
  109MOL   H22341479   2.200   6.017   7.178  0.6334 -1.6964 -1.0534
  109MOL   H22441480   1.948   6.088   7.008  0.2410  1.0813  0.8855
  109MOL   H22541481   2.045   5.950   6.978 -1.1625 -0.0348 -0.4191
  109MOL   H22641482   1.934   6.295   7.064  1.3398 -2.9295 -0.3510
  109MOL   H22741483   1.930   6.535   7.044 -0.4679 -0.0836 -0.7005
  109MOL   H22841484   2.069   6.646   6.867  1.4213 -0.1388 -1.8645
  109MOL   H22941485   2.208   6.525   6.716  0.4531 -0.1840 -0.1732
  109MOL   C23041486   2.274   6.253   6.722  0.1409  0.4429 -0.9631
  109MOL   C23141487   2.239   6.161   6.613  0.5409  0.8334  0.6173
  109MOL   O23241488   2.279   6.298   6.579 -0.5649 -0.2562 -0.5034
  109MOL   C23341489   2.104   6.123   6.560 -0.3393 -0.3558 -0.7256
  109MOL   O23441490   1.984   6.142   6.638  0.0369  0.2902  0.1049
  109MOL   C23541491   1.863   6.104   6.584 -0.1450  0.9572 -0.5503
  109MOL   C23641492   1.849   6.035   6.461  0.3582  0.4636  0.5444
  109MOL   C23741493   1.719   5.980   6.432  0.4680 -0.1262 -0.4672
  109MOL   C23841494   1.598   5.999   6.508  0.0455 -0.3009 -0.1990
  109MOL   C23941495   1.613   6.090   6.619 -0.0545  0.2480  0.4369
  109MOL   C24041496   1.742   6.141   6.653 -0.2506  0.1396 -1.0666
  109MOL   H24141497   2.372   6.236   6.766 -0.0249  1.6981 -0.0757
  109MOL   H24241498   2.312   6.083   6.594 -1.4012 -0.7093 -0.7285
  109MOL   H24341499   2.110   6.021   6.522 -0.7837  0.2435 -2.4572
  109MOL   H24441500   2.106   6.179   6.466 -1.4230  1.1941  0.1437
  109MOL   H24541501   1.934   6.015   6.398 -0.6725 -1.7579 -0.2137
  109MOL   H24641502   1.701   5.920   6.344 -0.1733 -2.2172  1.0473
  109MOL   H24741503   1.498   5.964   6.491 -0.5376  1.0980  0.2314
  109MOL   H24841504   1.530   6.110   6.685 -1.1659  1.7552 -1.3712
  109MOL   C24941505   1.745   6.218   6.783  0.6071  0.5900  0.6448
  109MOL   C25041506   1.732   6.368   6.771  0.1811  0.1505  0.2225
  109MOL   O25141507   1.629   6.282   6.827  0.0169  0.3185 -0.5203
  109MOL   C25241508   1.697   6.427   6.630 -0.2359  0.3922 -0.4692
  109MOL   O25341509   1.690   6.566   6.619  0.3578 -0.0135  0.4104
  109MOL   C25441510   1.804   6.643   6.596 -0.6658 -1.5100 -1.3218
  109MOL   C25541511   1.936   6.587   6.579  0.2148 -0.4683 -0.5882
  109MOL   C25641512   2.050   6.668   6.549 -0.2396 -0.6806  0.4870
  109MOL   C25741513   2.028   6.810   6.548  0.4861  0.4836 -0.0756
  109MOL   C25841514   1.903   6.869   6.559  0.6840  0.2327  1.6412
  109MOL   C25941515   1.793   6.784   6.590 -0.2632 -0.5045  0.5462
  109MOL   H26041516   1.800   6.178   6.868  0.9048  2.2319  1.2598
  109MOL   H26141517   1.798   6.419   6.842 -0.6399  1.0133  0.3706
  109MOL   H26241518   1.594   6.397   6.612  0.0826 -0.2004 -1.3142
  109MOL   H26341519   1.764   6.385   6.556 -0.3979  0.2695 -0.5470
  109MOL   H26441520   1.963   6.483   6.579 -2.3349 -1.1802  1.6195
  109MOL   H26541521   2.148   6.631   6.522 -0.2380  0.2459 -0.8249
  109MOL   H26641522   2.111   6.877   6.536  0.3593  0.5040 -0.9254
  109MOL   H26741523   1.902   6.977   6.555 -0.0410  0.2069  0.8339
  109MOL   C26841524   1.660   6.851   6.613 -0.3723  0.2458  0.7280
  109MOL   C26941525   1.609   6.854   6.753 -0.0596 -0.7879 -0.6160
  109MOL   O27041526   1.666   6.970   6.693 -0.0528 -0.1773 -0.0623
  109MOL   C27141527   1.676   6.796   6.872  0.4830 -0.1002  0.0665
  109MOL   O27241528   1.633   6.872   6.985 -0.1568 -0.7344  0.2701
  109MOL   C27341529   1.642   6.809   7.107  0.3684 -0.6458 -0.3739
  109MOL   C27441530   1.696   6.678   7.119  0.3606  0.2594 -0.0010
  109MOL   C27541531   1.713   6.621   7.248  0.6595 -0.8194 -0.2233
  109MOL   C27641532   1.686   6.706   7.363  0.2989 -0.2167 -0.9540
  109MOL   C27741533   1.627   6.834   7.348 -0.2268  0.3946  0.2727
  109MOL   C27841534   1.609   6.888   7.219  0.2704  0.3647 -0.0073
  109MOL   H27941535   1.598   6.849   6.524 -0.0701 -0.4533  0.5281
  109MOL   H28041536   1.503   6.867   6.772  0.1718  3.3140 -1.6876
  109MOL   H28141537   1.785   6.794   6.862  0.6033  1.5788  0.8447
  109MOL   H28241538   1.630   6.697   6.870 -0.9147  0.4866  1.6817
  109MOL   H28341539   1.719   6.612   7.037  0.6812 -3.2834  2.8178
  109MOL   H28441540   1.759   6.523   7.258  0.1712 -0.9610  0.7414
  109MOL   H28541541   1.709   6.676   7.465 -4.8644 -0.0579  0.4094
  109MOL   H28641542   1.590   6.887   7.434  0.2016  0.1936  0.5806
  109MOL   C28741543   1.562   7.035   7.209  0.3140  0.3486  0.3396
  109MOL   C28841544   1.435   7.067   7.135  0.3729 -0.0925 -0.2564
  109MOL   O28941545   1.435   7.050   7.278  0.5891  0.3168 -0.1612
  109MOL   C29041546   1.347   6.966   7.063 -0.2174 -0.2632 -0.3928
  109MOL   O29141547   1.211   7.016   7.074 -0.3128 -0.1057 -0.0764
  109MOL   C29241548   1.132   6.964   7.175 -0.3182  0.6389  0.0645
  109MOL   C29341549   1.175   6.872   7.270 -0.0515  0.1358  0.0479
  109MOL   C29441550   1.086   6.835   7.374  0.3301  0.1599 -0.9694
  109MOL   C29541551   0.960   6.889   7.381  0.3385  0.2180 -0.0209
  109MOL   C29641552   0.913   6.978   7.286  0.3516 -0.6647  1.0929
  109MOL   C29741553   0.999   7.012   7.182  0.2597  0.0645  0.1043
  109MOL   H29841554   1.639   7.111   7.206 -2.0513  2.8899  1.4516
  109MOL   H29941555   1.427   7.169   7.096  1.1224 -0.3627 -1.1186
  109MOL   H30041556   1.359   6.863   7.097 -1.0547 -0.7099 -1.4359
  109MOL   H30141557   1.375   6.947   6.960  0.2579 -0.7981 -0.1702
  109MOL   H30241558   1.278   6.842   7.280 -0.3096 -0.7622  0.0798
  109MOL   H30341559   1.119   6.770   7.453 -3.1761 -0.8288 -0.2497
  109MOL   H30441560   0.896   6.874   7.467  1.9541  2.7997  1.7058
  109MOL   H30541561   0.823   7.036   7.301  1.2823  0.9894  0.4653
  109MOL   C30641562   0.954   7.116   7.076 -0.3142  0.9559 -0.7361
  109MOL   C30741563   0.936   7.081   6.934 -0.4351 -0.2715 -0.5684
  109MOL   O30841564   0.824   7.084   7.021  0.0536 -0.3714 -0.0113
  109MOL   C30941565   0.970   6.944   6.881  0.5084 -0.4172 -0.1334
  109MOL   O31041566   0.903   6.932   6.760 -0.3749  0.3479  0.7590
  109MOL   C31141567   0.875   6.812   6.696 -0.0607 -0.3090 -0.0324
  109MOL   C31241568   0.927   6.691   6.739 -1.1281  0.5523 -0.0238
  109MOL   C31341569   0.898   6.574   6.671 -0.1758 -0.1862  0.0565
  109MOL   C31441570   0.818   6.580   6.561 -0.1480  0.3579  0.2437
  109MOL   C31541571   0.758   6.699   6.517  0.5253  0.0167  0.0825
  109MOL   C31641572   0.791   6.817   6.586  1.1393 -0.1095  0.3613
  109MOL   H31741573   0.962   7.215   7.119  1.0282  0.2053  0.7973
  109MOL   H31841574   0.948   7.175   6.880  1.6696  0.8726  1.7886
  109MOL   H31941575   0.932   6.878   6.959 -2.7361  0.1803 -1.1106
  109MOL   H32041576   1.079   6.941   6.876  0.5117 -0.9541  0.2506
  109MOL   H32141577   0.995   6.677   6.823 -1.5551 -0.3618  0.1785
  109MOL   H32241578   0.937   6.479   6.704 -1.1136 -0.3773  0.6420
  109MOL   H32341579   0.796   6.489   6.507  0.1094  1.1181 -1.1817
  109MOL   H32441580   0.678   6.706   6.445 -1.2014 -3.1084  1.5844
  109MOL   C32541581   0.721   6.939   6.553 -0.2940 -0.5612 -0.3930
  109MOL   C32641582   0.796   7.054   6.495 -0.2323 -0.3780 -0.6027
  109MOL   O32741583   0.706   6.973   6.414  0.1249 -0.7222 -0.4351
  109MOL   C32841584   0.941   7.056   6.437  0.4294 -0.2806 -0.9083
  109MOL   O32941585   0.953   7.164   6.336  0.5965  0.1765 -0.7071
  109MOL   C33041586   0.884   7.142   6.223 -0.5485 -0.1428 -0.5046
  109MOL   C33141587   0.878   7.016   6.158 -0.4201 -0.4093 -0.2238
  109MOL   C33241588   0.796   6.989   6.047  0.8870  0.1911 -0.6316
  109MOL   C33341589   0.721   7.093   5.985 -0.2960 -0.1878 -0.3351
  109MOL   C33441590   0.742   7.222   6.037 -0.8085  0.6853 -0.0941
  109MOL   C33541591   0.818   7.248   6.159 -0.5708  0.0232 -0.1558
  109MOL   H33641592   0.622   6.947   6.597  0.4770  0.4283  1.2121
  109MOL   H33741593   0.747   7.150   6.510  0.7036  0.0400 -0.1845
  109MOL   H33841594   0.968   6.954   6.409 -2.6529 -1.5802  0.6266
  109MOL   H33941595   1.012   7.085   6.514 -0.6584 -0.4183  0.1708
  109MOL   H34041596   0.939   6.934   6.193 -1.8545 -1.5425 -0.3397
  109MOL   H34141597   0.793   6.886   6.015 -0.3496  0.1572 -0.4406
  109MOL   H34241598   0.656   7.080   5.900  1.6923  1.3929 -2.1497
  109MOL   H34341599   0.681   7.303   6.000 -1.7267  0.3672  0.7162
  109MOL   C34441600   0.826   7.386   6.205  0.8760 -0.1311 -0.3611
  109MOL   C34541601   0.941   7.483   6.174  0.4725  0.0224  0.2730
  109MOL   O34641602   0.815   7.492   6.110 -0.0089 -0.1052 -0.3086
  109MOL   C34741603   1.053   7.470   6.072  0.4820 -0.5065  0.3793
  109MOL   O34841604   1.091   7.591   6.006 -0.3787 -0.0015 -1.0749
  109MOL   C34941605   1.134   7.693   6.084 -0.4851  0.0535  0.6920
  109MOL   C35041606   1.202   7.659   6.205 -0.4220 -0.2128  0.8419
  109MOL   C35141607   1.244   7.763   6.288 -0.6187 -0.7658 -0.5562
  109MOL   C35241608   1.239   7.902   6.246 -0.5579  0.4033 -0.4951
  109MOL   C35341609   1.189   7.922   6.113  0.6733 -0.0227 -0.2377
  109MOL   C35441610   1.126   7.820   6.036 -0.2878 -0.0765 -0.2795
  109MOL   H35541611   0.755   7.392   6.288 -0.6507  1.9602 -1.7421
  109MOL   H35641612   0.971   7.560   6.245  0.1975 -0.0852  0.5094
  109MOL   H35741613   0.998   7.401   6.009 -0.4858 -1.1683  1.9323
  109MOL   H35841614   1.133   7.406   6.110  1.0101  0.4228  0.8710
  109MOL   H35941615   1.215   7.555   6.229  2.2119 -0.6444 -2.2288
  109MOL   H36041616   1.290   7.736   6.382 -2.2990 -0.2156  0.4557
  109MOL   H36141617   1.277   7.978   6.312 -0.7433 -2.4160  3.0100
  109MOL   H36241618   1.174   8.024   6.080 -1.0257  0.1128  0.8444
  109MOL   C36341619   1.059   7.847   5.901  0.3206 -0.2882 -0.2802
  109MOL   C36441620   0.909   7.825   5.870  0.4671  0.0685 -0.4296
  109MOL   O36541621   0.970   7.961   5.895  0.2841  0.4181 -0.6019
  109MOL   C36641622   0.805   7.786   5.958 -0.4249  0.2630 -0.0251
  109MOL   O36741623   0.682   7.830   5.906  0.5014 -0.0562 -0.7994
  109MOL   C36841624   0.566   7.765   5.938  0.0728 -0.2558 -0.2801
  109MOL   C36941625   0.566   7.676   6.052 -0.4103 -0.3839 -0.0256
  109MOL   C37041626   0.454   7.597   6.077 -0.3198 -0.0026 -0.5288
  109MOL   C37141627   0.347   7.600   5.993  0.8209  0.3124 -0.1284
  109MOL   C37241628   0.346   7.688   5.883 -0.2423 -0.5183  0.2158
  109MOL   C37341629   0.451   7.774   5.852 -0.1746 -0.5715 -0.7804
  109MOL   H37441630   1.128   7.837   5.817  0.9939 -0.4037  0.2817
  109MOL   H37541631   0.895   7.800   5.765 -2.1806  1.5721 -0.4929
  109MOL   H37641632   0.826   7.822   6.058 -0.0341 -1.5026  0.5587
  109MOL   H37741633   0.815   7.677   5.948 -0.0318  0.0295  2.7482
  109MOL   H37841634   0.644   7.648   6.122  0.2506 -1.1097 -1.0365
  109MOL   H37941635   0.449   7.539   6.167  0.6006 -0.7532 -0.9541
  109MOL   H38041636   0.265   7.530   6.002  1.0649  0.3234  2.4644
  109MOL   H38141637   0.258   7.689   5.820 -0.2951  1.4844  0.3174
  109MOL   H38241638   0.452   7.836   5.763 -1.1294 -0.6369 -0.8465
  110MOL     C141639   0.913   5.022   5.739 -0.2973 -0.0356  0.1531
  110MOL     C241640   0.828   4.966   5.625 -0.1510 -0.3813  0.3433
  110MOL     O341641   0.972   4.939   5.639  0.1351 -0.2485 -0.2814
  110MOL     C441642   0.793   5.032   5.488  0.3674 -0.0974 -0.3685
  110MOL     O541643   0.687   4.953   5.435  0.2908 -0.0357  0.6245
  110MOL     C641644   0.656   4.947   5.297 -0.2111  0.4788  0.2824
  110MOL     C741645   0.712   5.031   5.201 -0.1153 -0.3052  0.5560
  110MOL     C841646   0.683   5.024   5.063 -0.4618  0.5711  0.3516
  110MOL     C941647   0.599   4.921   5.022 -0.2597 -0.3232  0.3459
  110MOL    C1041648   0.540   4.833   5.111  0.8155 -0.2285  0.0828
  110MOL    C1141649   0.572   4.843   5.246 -0.4187  0.3367  0.4876
  110MOL    H1241650   0.918   4.975   5.837 -0.9262  0.1653  0.2837
  110MOL    H1341651   0.762   4.882   5.646 -0.9063 -0.9456 -3.7930
  110MOL    H1441652   0.881   5.021   5.424 -1.1343  2.8083 -3.1018
  110MOL    H1541653   0.758   5.135   5.496  0.6328 -0.0596  0.3387
  110MOL    H1641654   0.787   5.101   5.237  0.8894 -1.9541  1.7092
  110MOL    H1741655   0.722   5.082   4.981  1.7124  0.6763  1.4262
  110MOL    H1841656   0.571   4.904   4.919 -0.8130 -2.4196  0.8295
  110MOL    H1941657   0.465   4.764   5.074  0.2225  1.0790 -1.1794
  110MOL    H2041658   0.934   5.129   5.742 -1.1398  0.1053  1.4173
  110MOL    C2141659   0.503   4.759   5.344  0.1420  0.3376  0.5753
  110MOL    C2241660   0.363   4.793   5.405  0.1451  0.2218  0.3862
  110MOL    O2341661   0.374   4.704   5.296  0.6314 -0.4826  0.9768
  110MOL    C2441662   0.286   4.917   5.374  0.4696  0.2982  0.3125
  110MOL    O2541663   0.142   4.900   5.358  0.2560  0.2288  0.2926
  110MOL    C2641664   0.058   4.926   5.468 -0.0506 -0.2991  0.0473
  110MOL    C2741665   0.112   4.940   5.601 -0.1532 -0.0910  0.1811
  110MOL    C2841666   0.024   4.966   5.711 -0.0793  0.1397  0.4020
  110MOL    C2941667   8.056   4.971   5.691  0.4951  0.0741 -0.2385
  110MOL    C3041668   8.002   4.943   5.564  0.0583 -1.0419 -0.1734
  110MOL    C3141669   8.090   4.920   5.449  0.2378  0.2479  0.3658
  110MOL    H3241670   0.570   4.692   5.397  1.0033 -0.7831 -1.8319
  110MOL    H3341671   0.346   4.750   5.504  0.9020  1.2966  0.9948
  110MOL    H3441672   0.329   4.946   5.279 -1.5132 -1.0800 -1.0463
  110MOL    H3541673   0.313   5.001   5.438 -0.4644  0.2360  0.7966
  110MOL    H3641674   0.215   4.951   5.628 -0.3939  0.1430  1.0139
  110MOL    H3741675   0.071   4.970   5.808  0.3739  1.6935  0.1413
  110MOL    H3841676   7.980   4.970   5.767 -1.3933  1.6804 -2.0377
  110MOL    H3941677   7.894   4.943   5.558  0.0762 -1.5469 -0.5300
  110MOL    C4041678   8.020   4.882   5.316  1.1090  0.5068  0.9313
  110MOL    C4141679   7.945   4.749   5.309 -0.2852  0.2119  0.1569
  110MOL    O4241680   7.869   4.873   5.325  0.4946  0.1317 -0.2943
  110MOL    C4341681   7.934   4.640   5.414 -0.5710 -0.0723  0.2713
  110MOL    O4441682   7.862   4.535   5.351 -0.1133 -0.2647  0.6151
  110MOL    C4541683   7.724   4.529   5.378  1.0764  0.3555 -0.7209
  110MOL    C4641684   7.645   4.643   5.414  0.1089  0.4530 -0.0426
  110MOL    C4741685   7.504   4.632   5.417  0.3793  0.4237  0.1543
  110MOL    C4841686   7.442   4.513   5.388 -0.4776  0.5826 -0.5333
  110MOL    C4941687   7.518   4.400   5.363  0.0282  0.3858 -0.3803
  110MOL    C5041688   7.653   4.412   5.349  0.4373 -0.8269  0.3721
  110MOL    H5141689   8.068   4.930   5.232  2.4059 -1.1203  0.7249
  110MOL    H5241690   7.962   4.711   5.208  0.4886  2.0284 -0.4083
  110MOL    H5341691   7.897   4.671   5.512 -2.2151 -2.5122  0.4642
  110MOL    H5441692   8.033   4.596   5.417 -0.2413  0.6057 -0.4903
  110MOL    H5541693   7.693   4.738   5.434  1.5822  0.4140 -3.1020
  110MOL    H5641694   7.445   4.721   5.432  1.2615  1.0199  0.1473
  110MOL    H5741695   7.334   4.515   5.390 -0.4996 -0.9518  0.9183
  110MOL    H5841696   7.467   4.306   5.347 -0.1045  0.7022 -1.8069
  110MOL    C5941697   7.750   4.302   5.295 -0.1380  0.1187  0.0138
  110MOL    C6041698   7.839   4.217   5.383 -0.1078  0.3778 -0.0658
  110MOL    O6141699   7.715   4.168   5.326 -0.0902  0.9447 -0.0885
  110MOL    C6241700   7.852   4.234   5.533 -0.0899  0.6436 -0.4689
  110MOL    O6341701   7.871   4.106   5.601  0.4054 -0.4545 -0.0388
  110MOL    C6441702   7.997   4.053   5.624  0.0298  0.6200  0.3385
  110MOL    C6541703   8.118   4.127   5.625  0.0690  0.1229 -0.1729
  110MOL    C6641704   0.064   4.076   5.677 -0.0694 -0.8144  0.3778
  110MOL    C6741705   0.067   3.938   5.707 -0.8591  0.0713  0.6870
  110MOL    C6841706   8.121   3.861   5.697 -0.0816  0.1732  0.2147
  110MOL    C6941707   7.996   3.916   5.655  0.1884  0.3105 -0.0949
  110MOL    H7041708   7.775   4.318   5.190 -1.4109  0.8654 -0.1928
  110MOL    H7141709   7.934   4.176   5.347 -0.2134 -1.6165  1.8857
  110MOL    H7241710   7.776   4.298   5.577  1.6071  1.4417  1.3664
  110MOL    H7341711   7.935   4.302   5.554 -0.8717  1.3645  0.3331
  110MOL    H7441712   8.112   4.234   5.612 -2.1379 -0.1275 -1.5951
  110MOL    H7541713   0.145   4.144   5.697  0.2128 -1.6396  2.1998
  110MOL    H7641714   0.153   3.880   5.739 -0.3909  0.5818  0.3623
  110MOL    H7741715   8.124   3.756   5.724  0.5648  0.4716  1.3216
  110MOL    C7841716   7.874   3.832   5.650 -0.3370  0.8094  0.2467
  110MOL    C7941717   7.830   3.772   5.518 -0.5280 -0.0143 -0.2358
  110MOL    O8041718   7.899   3.693   5.620  0.1529  0.1380 -0.2120
  110MOL    C8141719   7.893   3.810   5.392 -0.3708  0.0986 -0.5948
  110MOL    O8241720   7.798   3.865   5.291 -0.3354 -0.1314  0.3348
  110MOL    C8341721   7.733   3.774   5.205 -0.3817 -1.0306 -0.9320
  110MOL    C8441722   7.728   3.634   5.218  0.4390  0.7541  0.8160
  110MOL    C8541723   7.649   3.551   5.134  0.0457  0.1629  0.7534
  110MOL    C8641724   7.580   3.613   5.027  0.2697  1.0168 -0.4655
  110MOL    C8741725   7.581   3.750   5.010  0.5374 -1.1808  0.5997
  110MOL    C8841726   7.656   3.827   5.097  0.6043  0.2412  0.5781
  110MOL    H8941727   7.810   3.850   5.736 -0.4591  0.2691  0.2673
  110MOL    H9041728   7.728   3.734   5.524 -1.4981  2.7371  1.4188
  110MOL    H9141729   7.945   3.721   5.356  0.1272  0.0934  0.1248
  110MOL    H9241730   7.975   3.882   5.397 -1.3434  1.3290 -2.0335
  110MOL    H9341731   7.788   3.582   5.291 -1.5222 -2.7137  0.0813
  110MOL    H9441732   7.640   3.444   5.144 -1.7876  0.2997  0.7505
  110MOL    H9541733   7.515   3.550   4.967  0.6216  1.5883 -1.4630
  110MOL    H9641734   7.527   3.791   4.926  0.1482 -1.0436  0.9158
  110MOL    C9741735   7.662   3.975   5.071  0.2170 -0.1096  0.0386
  110MOL    C9841736   7.783   4.052   5.029  0.3027  0.2424  0.0057
  110MOL    O9941737   7.694   4.004   4.930  0.4437  0.1746  0.3604
  110MOL   C10041738   7.926   3.998   5.022  0.4489 -0.1769  0.3493
  110MOL   O10141739   8.010   4.040   5.117 -0.4139  0.1943 -0.4041
  110MOL   C10241740   8.062   4.169   5.113 -0.2906 -0.4603 -0.1447
  110MOL   C10341741   8.024   4.272   5.023  0.2015 -0.4279  0.1918
  110MOL   C10441742   8.079   4.401   5.025  0.2038 -0.2726  0.0819
  110MOL   C10541743   0.004   4.432   5.121  0.2521  0.5312  0.4367
  110MOL   C10641744   0.051   4.332   5.209 -0.1988  0.2672 -0.1314
  110MOL   C10741745   0.004   4.199   5.195 -0.5067 -0.7847  0.9281
  110MOL   H10841746   7.572   4.020   5.113  1.3130  0.9051  1.3379
  110MOL   H10941747   7.769   4.159   5.045  0.2292 -0.0771  2.3548
  110MOL   H11041748   7.972   4.021   4.926 -1.7515 -1.5376 -1.1069
  110MOL   H11141749   7.909   3.890   5.014 -3.7711  0.5363 -1.8494
  110MOL   H11241750   7.948   4.247   4.950 -1.4795 -1.7127  2.3248
  110MOL   H11341751   8.041   4.478   4.959 -2.6252 -0.8825  0.9648
  110MOL   H11441752   0.053   4.528   5.119  0.3551  0.4767  0.3906
  110MOL   H11541753   0.132   4.352   5.276 -2.3267  0.5584  2.4337
  110MOL   C11641754   0.068   4.099   5.283  0.5074  0.1386 -0.3408
  110MOL   C11741755   0.122   3.963   5.234 -0.0320  0.2073 -0.2885
  110MOL   O11841756   0.205   4.074   5.250  0.4656 -0.3816 -0.0740
  110MOL   C11941757   0.110   3.903   5.099  0.6316 -0.3901 -0.2080
  110MOL   O12041758   0.231   3.837   5.060 -0.3229  0.4832  0.3095
  110MOL   C12141759   0.229   3.793   4.931 -0.1151  0.5041 -0.9221
  110MOL   C12241760   0.116   3.728   4.875 -0.1217 -0.3760  0.1525
  110MOL   C12341761   0.125   3.676   4.750 -1.1608 -0.6432  0.7957
  110MOL   C12441762   0.241   3.703   4.671 -0.0033  0.7991 -0.6547
  110MOL   C12541763   0.344   3.780   4.727  0.5776 -0.0399 -0.1877
  110MOL   C12641764   0.347   3.815   4.859  0.3298  0.3613  0.0529
  110MOL   H12741765   0.037   4.114   5.386  1.0884 -1.4136  0.0837
  110MOL   H12841766   0.145   3.891   5.312  0.7582 -0.9766 -1.6022
  110MOL   H12941767   0.092   3.978   5.022 -1.5349 -0.8478 -0.1844
  110MOL   H13041768   0.023   3.839   5.109  1.7037 -2.0248 -1.2394
  110MOL   H13141769   0.029   3.702   4.933 -0.6488 -0.0107 -0.4653
  110MOL   H13241770   0.045   3.625   4.697 -0.1475  1.3621 -2.8341
  110MOL   H13341771   0.249   3.674   4.568  0.6876  0.2182 -0.4370
  110MOL   H13441772   0.423   3.803   4.657  1.7714  1.8746  1.7393
  110MOL   C13541773   0.462   3.895   4.913  0.2393 -0.3191 -0.0630
  110MOL   C13641774   0.578   3.832   4.975  0.1898 -0.3039  0.1093
  110MOL   O13741775   0.577   3.870   4.833  0.0538  0.2343  0.4232
  110MOL   C13841776   0.595   3.682   5.001  0.2078 -1.0778  0.4177
  110MOL   O13941777   0.727   3.672   5.036  0.2174  0.5890  0.7757
  110MOL   C14041778   0.777   3.549   5.067 -0.1293 -0.1397 -0.1510
  110MOL   C14141779   0.706   3.426   5.053 -0.1465 -0.3343 -0.9359
  110MOL   C14241780   0.753   3.309   5.109  0.3479  0.6412 -0.0090
  110MOL   C14341781   0.875   3.302   5.176 -0.5077 -0.2590 -0.3276
  110MOL   C14441782   0.944   3.427   5.201  0.0800  0.0353  0.0741
  110MOL   C14541783   0.897   3.549   5.144 -0.8001  0.2243  0.0925
  110MOL   H14641784   0.453   4.003   4.925 -0.1526 -0.1159 -1.9914
  110MOL   H14741785   0.636   3.896   5.041  0.0667  1.1394 -1.1416
  110MOL   H14841786   0.570   3.628   4.909  0.7122  1.4950 -1.2958
  110MOL   H14941787   0.538   3.647   5.087  0.4981  0.1510  1.1067
  110MOL   H15041788   0.618   3.430   4.991  0.1535  1.1137 -1.2647
  110MOL   H15141789   0.692   3.221   5.093  0.8024  0.2985  0.1232
  110MOL   H15241790   0.918   3.208   5.205  0.2230  0.4924  1.1039
  110MOL   H15341791   1.044   3.412   5.239 -0.7516 -1.4680  1.7475
  110MOL   C15441792   0.971   3.677   5.166 -0.9762 -0.0965  0.1031
  110MOL   C15541793   0.973   3.753   5.296 -0.6784  0.4684  0.8183
  110MOL   O15641794   1.080   3.671   5.259  0.2019 -0.0534 -0.5645
  110MOL   C15741795   0.908   3.707   5.423  0.3122 -0.7230 -0.5716
  110MOL   O15841796   0.849   3.810   5.505 -0.2589  0.0263  0.2464
  110MOL   C15941797   0.724   3.862   5.477 -0.4584 -0.6808 -0.4147
  110MOL   C16041798   0.654   3.822   5.359  0.0325 -0.0509  0.7107
  110MOL   C16141799   0.523   3.869   5.336  0.4059 -0.1061 -0.4535
  110MOL   C16241800   0.468   3.970   5.415  0.8809 -0.1988 -0.5277
  110MOL   C16341801   0.544   4.024   5.525 -0.6007  0.2110 -0.4044
  110MOL   C16441802   0.663   3.963   5.561 -0.3330 -0.0217  0.4167
  110MOL   H16541803   0.989   3.737   5.078  2.8100 -0.1047  0.7893
  110MOL   H16641804   1.012   3.855   5.296  1.7200 -0.3885 -0.6361
  110MOL   H16741805   0.987   3.670   5.489 -0.3383 -1.4510 -0.1914
  110MOL   H16841806   0.839   3.624   5.410  0.5102 -0.9130 -0.3969
  110MOL   H16941807   0.676   3.743   5.288  0.1686 -0.0967  0.8053
  110MOL   H17041808   0.469   3.829   5.251  0.8936 -1.6274 -0.0640
  110MOL   H17141809   0.370   4.010   5.394  0.5486 -0.1374  1.0430
  110MOL   H17241810   0.506   4.102   5.588 -1.4994 -0.7904  0.3144
  110MOL   C17341811   0.750   4.016   5.668 -0.5583 -1.0858 -0.3296
  110MOL   C17441812   0.857   4.129   5.649  1.2970  1.0191 -0.2833
  110MOL   O17541813   0.722   4.150   5.701  0.2053 -0.3567 -0.2590
  110MOL   C17641814   0.893   4.178   5.511  0.7454  0.5296 -0.3152
  110MOL   O17741815   0.940   4.307   5.535  0.1865  0.4052  0.4430
  110MOL   C17841816   1.058   4.341   5.596  0.2851  0.1687 -0.3165
  110MOL   C17941817   1.171   4.257   5.591 -0.1477  0.5005 -0.3847
  110MOL   C18041818   1.297   4.295   5.643 -0.2154 -0.0291  0.1934
  110MOL   C18141819   1.305   4.428   5.693 -0.2726 -0.2510 -0.0557
  110MOL   C18241820   1.201   4.517   5.686 -0.3847  0.1039 -0.3062
  110MOL   C18341821   1.076   4.467   5.650  0.2263  0.2359 -0.7111
  110MOL   H18441822   0.771   3.948   5.751  3.0254 -0.7758 -0.9092
  110MOL   H18541823   0.943   4.106   5.711  0.4767  0.0664  0.5190
  110MOL   H18641824   0.807   4.176   5.444  0.6408  0.4717 -0.1771
  110MOL   H18741825   0.958   4.113   5.452 -1.4596  0.0948 -2.3560
  110MOL   H18841826   1.164   4.157   5.551  3.4069  0.4191 -0.9226
  110MOL   H18941827   1.379   4.225   5.638 -0.4250 -0.4587  2.3776
  110MOL   H19041828   1.399   4.459   5.736  0.1260 -0.2536 -0.9251
  110MOL   H19141829   1.221   4.615   5.727  0.4181  0.4219 -1.4216
  110MOL   C19241830   0.964   4.562   5.669  0.1759 -0.4299 -0.0962
  110MOL   C19341831   0.868   4.550   5.782 -0.3728 -0.3509  0.7756
  110MOL   O19441832   0.969   4.649   5.782  0.3645  0.0051 -0.5586
  110MOL   C19541833   0.873   4.440   5.895  0.1782 -0.0079 -0.3561
  110MOL   O19641834   0.742   4.425   5.961  0.9538 -0.4316  0.0964
  110MOL   C19741835   0.729   4.325   6.053 -0.3098  0.7647 -0.6910
  110MOL   C19841836   0.831   4.232   6.086 -0.2342 -0.3147  0.7733
  110MOL   C19941837   0.802   4.130   6.174 -0.1188  0.1443 -0.3736
  110MOL   C20041838   0.672   4.114   6.217 -0.2916 -0.5791  0.7020
  110MOL   C20141839   0.578   4.221   6.208 -0.3804  0.1290  0.5948
  110MOL   C20241840   0.599   4.324   6.118  0.1624 -0.9708  0.2088
  110MOL   H20341841   0.949   4.627   5.583  0.2519 -1.8562 -1.2083
  110MOL   H20441842   0.772   4.592   5.753  0.4238  0.6857 -0.4035
  110MOL   H20541843   0.938   4.467   5.978 -1.8571  0.0109  1.2623
  110MOL   H20641844   0.912   4.348   5.852  0.4315  0.8755 -2.0867
  110MOL   H20741845   0.932   4.248   6.050  0.3820  0.7775  2.8965
  110MOL   H20841846   0.884   4.066   6.201 -1.6019 -1.3729  0.6614
  110MOL   H20941847   0.645   4.030   6.279 -1.9089 -0.9429 -0.4407
  110MOL   H21041848   0.482   4.200   6.254  0.3223  0.7311  2.3778
  110MOL   C21141849   0.494   4.426   6.091  0.3553 -0.5966 -0.1681
  110MOL   C21241850   0.394   4.413   5.980 -0.0328 -0.0320 -0.2721
  110MOL   O21341851   0.360   4.396   6.129 -0.1180 -0.3023  0.6680
  110MOL   C21441852   0.380   4.292   5.896 -0.5203  0.1530  0.3584
  110MOL   O21541853   0.324   4.317   5.767  0.2506  0.4077 -0.0151
  110MOL   C21641854   0.407   4.365   5.668 -0.4672 -0.4206 -0.5279
  110MOL   C21741855   0.547   4.388   5.678  0.5801 -0.0547 -0.1784
  110MOL   C21841856   0.627   4.420   5.562  0.3624 -0.4467  0.1438
  110MOL   C21941857   0.562   4.428   5.436  0.3213 -0.2546 -0.5295
  110MOL   C22041858   0.420   4.419   5.435 -0.4641 -0.0211 -0.1065
  110MOL   C22141859   0.343   4.394   5.545  0.1355  0.1649 -0.2797
  110MOL   H22241860   0.531   4.526   6.112 -2.2188  0.5968 -1.0744
  110MOL   H22341861   0.379   4.509   5.930  1.3228  0.2292 -0.1869
  110MOL   H22441862   0.305   4.223   5.934 -0.0103 -0.6301 -0.0164
  110MOL   H22541863   0.472   4.233   5.896 -0.4270  0.2522 -2.6776
  110MOL   H22641864   0.594   4.369   5.773 -0.0075  1.3366  0.4030
  110MOL   H22741865   0.734   4.427   5.569  0.4733 -1.6155 -0.2309
  110MOL   H22841866   0.610   4.448   5.341  0.6346  0.3338 -0.2479
  110MOL   H22941867   0.364   4.427   5.343 -1.3757 -0.6797  0.3821
  110MOL   C23041868   0.197   4.382   5.531 -0.1446 -0.7092  0.3821
  110MOL   C23141869   0.107   4.473   5.610 -0.1668  0.2649 -1.2189
  110MOL   O23241870   0.142   4.501   5.471  0.2093  0.0509  0.0413
  110MOL   C23341871   0.156   4.576   5.717  0.3051  0.1089  0.1144
  110MOL   O23441872   0.101   4.540   5.846  0.1031 -0.6788  0.2539
  110MOL   C23541873   8.135   4.518   5.848 -0.1766 -0.8288  0.1848
  110MOL   C23641874   8.035   4.607   5.793 -0.2369  0.1309  0.0205
  110MOL   C23741875   7.898   4.575   5.794 -0.0398  1.1126 -0.3200
  110MOL   C23841876   7.854   4.458   5.859 -0.2953  0.3767 -0.0885
  110MOL   C23941877   7.947   4.386   5.935  0.2906 -0.5439 -0.8637
  110MOL   C24041878   8.087   4.410   5.925  0.0629  0.5488 -0.0782
  110MOL   H24141879   0.155   4.286   5.504 -1.7562  0.0352  0.1737
  110MOL   H24241880   0.008   4.429   5.622  1.1099 -1.9061  1.8627
  110MOL   H24341881   0.134   4.677   5.684  4.2066  0.9911 -0.0304
  110MOL   H24441882   0.265   4.574   5.722  0.2091 -0.5191  2.8076
  110MOL   H24541883   8.055   4.702   5.747  2.3223 -0.7255 -0.7423
  110MOL   H24641884   7.831   4.636   5.735 -0.3615  0.6569 -0.4355
  110MOL   H24741885   7.752   4.421   5.868  0.2002 -1.2585 -0.9594
  110MOL   H24841886   7.918   4.305   6.000  0.7217 -0.7172 -0.8851
  110MOL   C24941887   0.016   4.309   5.986 -0.2108  0.4156 -0.0213
  110MOL   C25041888   0.067   4.302   6.133 -0.2966  0.3630  0.0751
  110MOL   O25141889   8.128   4.214   6.083  0.4216 -0.1008 -0.7604
  110MOL   C25241890   0.033   4.393   6.238 -0.0632 -0.8921  0.2440
  110MOL   O25341891   8.153   4.335   6.355 -0.0261  0.8384 -0.6816
  110MOL   C25441892   0.070   4.315   6.463  0.6274  0.0103  0.4912
  110MOL   C25541893   0.211   4.313   6.448  0.6051  0.3064  0.0507
  110MOL   C25641894   0.301   4.298   6.554  0.2723  0.0895  0.0131
  110MOL   C25741895   0.240   4.293   6.682  0.0629  0.3290 -1.1360
  110MOL   C25841896   0.100   4.293   6.707  0.4419 -0.0063  0.2875
  110MOL   C25941897   0.013   4.298   6.593 -0.8337 -0.6363  0.5362
  110MOL   H26041898   0.078   4.259   5.911  0.4028  0.3813  0.5013
  110MOL   H26141899   0.160   4.251   6.158 -0.0265  1.2779  0.9926
  110MOL   H26241900   8.116   4.450   6.204  0.3573 -0.0582  0.5600
  110MOL   H26341901   0.106   4.472   6.251  0.5430 -1.1678 -1.3259
  110MOL   H26441902   0.257   4.310   6.351  1.8476  2.1048  0.5561
  110MOL   H26541903   0.407   4.287   6.537  1.0936  2.1615  3.2952
  110MOL   H26641904   0.307   4.281   6.766 -2.2623 -3.7936  0.2790
  110MOL   H26741905   0.050   4.282   6.802 -3.6275  0.3120 -1.7423
  110MOL   C26841906   8.034   4.296   6.610  0.8772 -0.1294  0.1653
  110MOL   C26941907   7.958   4.183   6.681  0.6146  0.0420 -0.4835
  110MOL   O27041908   7.997   4.303   6.750 -0.1774  0.8004 -0.3847
  110MOL   C27141909   8.024   4.053   6.720  0.3331 -0.1601  0.0993
  110MOL   O27241910   7.959   3.979   6.824 -0.0305 -0.0724 -0.6694
  110MOL   C27341911   7.852   3.896   6.803 -0.1440 -0.5734  0.7757
  110MOL   C27441912   7.777   3.886   6.684  0.3815  0.2312  0.4003
  110MOL   C27541913   7.667   3.797   6.669  0.6113 -0.1911 -0.6127
  110MOL   C27641914   7.649   3.698   6.771 -0.7705 -0.7021  0.2082
  110MOL   C27741915   7.721   3.707   6.891  0.6727 -0.1170  0.3416
  110MOL   C27841916   7.818   3.808   6.910 -0.1039 -1.0601 -0.3490
  110MOL   H27941917   7.978   4.360   6.542  1.4866 -0.9784 -1.1654
  110MOL   H28041918   7.853   4.177   6.652  1.1494  2.6272 -3.2462
  110MOL   H28141919   8.131   4.055   6.742  0.8302  1.0958 -2.2575
  110MOL   H28241920   8.007   3.999   6.627  2.2433  0.9141 -0.9051
  110MOL   H28341921   7.800   3.960   6.608 -1.4474  0.7716  0.3415
  110MOL   H28441922   7.620   3.797   6.572 -0.1510  2.1038 -0.2599
  110MOL   H28541923   7.579   3.617   6.756 -0.4163 -1.3050  1.7763
  110MOL   H28641924   7.684   3.634   6.962  0.8383 -1.5321 -0.9979
  110MOL   C28741925   7.885   3.817   7.050 -0.1686  0.2634  0.1070
  110MOL   C28841926   7.810   3.836   7.182  0.2810 -0.7387  0.3055
  110MOL   O28941927   7.860   3.707   7.146 -0.3137 -0.0570  0.5956
  110MOL   C29041928   7.653   3.834   7.188 -0.2522  0.0822  0.1470
  110MOL   O29141929   7.603   3.857   7.320  0.4903  0.0708 -0.0877
  110MOL   C29241930   7.518   3.768   7.376  0.7195 -0.0722 -0.3640
  110MOL   C29341931   7.535   3.630   7.366 -0.9588 -0.3330  0.0991
  110MOL   C29441932   7.445   3.549   7.445 -0.1462  0.0411  0.2656
  110MOL   C29541933   7.338   3.604   7.521  0.0997 -0.0559 -0.4333
  110MOL   C29641934   7.322   3.743   7.517 -0.0254 -0.2025 -0.3398
  110MOL   C29741935   7.404   3.825   7.440  0.6307  0.2426 -0.2360
  110MOL   H29841936   7.992   3.839   7.044 -0.1034  0.4910  1.7950
  110MOL   H29941937   7.858   3.878   7.270 -0.6642  3.4102 -1.0168
  110MOL   H30041938   7.614   3.745   7.139 -0.0452  0.4735 -0.7315
  110MOL   H30141939   7.616   3.920   7.133 -0.7496 -0.4618 -0.3755
  110MOL   H30241940   7.617   3.589   7.309 -1.2607 -0.5323 -0.1924
  110MOL   H30341941   7.445   3.441   7.443 -1.1035 -0.0155  1.9574
  110MOL   H30441942   7.272   3.543   7.581  1.3411 -0.4720  0.5310
  110MOL   H30541943   7.242   3.779   7.580 -1.0710  2.5497 -3.1227
  110MOL   C30641944   7.380   3.973   7.441  0.8945 -0.4023 -0.4847
  110MOL   C30741945   7.319   4.041   7.330 -0.4475  0.1499 -0.0502
  110MOL   O30841946   7.242   3.998   7.439  0.1623  0.1511  0.7752
  110MOL   C30941947   7.291   3.979   7.194 -0.3428 -0.0769  0.2575
  110MOL   O31041948   7.165   4.030   7.143  0.1190 -0.1267 -0.0687
  110MOL   C31141949   7.109   3.969   7.037  0.0217 -0.6283 -0.3028
  110MOL   C31241950   7.171   3.884   6.946  0.2059  0.4324 -0.5703
  110MOL   C31341951   7.095   3.828   6.834  1.0865  0.0212 -1.0119
  110MOL   C31441952   6.962   3.855   6.825 -0.5165 -0.7331 -0.4161
  110MOL   C31541953   6.903   3.951   6.909 -0.3936  0.6529 -0.0991
  110MOL   C31641954   6.972   4.000   7.024 -0.1411  0.4113 -0.0511
  110MOL   H31741955   7.437   4.038   7.508  1.4039  0.2748 -1.5640
  110MOL   H31841956   7.335   4.148   7.323  0.8188 -0.0727 -0.7753
  110MOL   H31941957   7.286   3.871   7.202 -0.0992 -0.1597 -0.6476
  110MOL   H32041958   7.373   4.010   7.130  0.4283 -0.3216  1.1078
  110MOL   H32141959   7.276   3.858   6.953  0.1105  0.9939  4.1041
  110MOL   H32241960   7.137   3.761   6.761  0.9922 -2.5530  1.2210
  110MOL   H32341961   6.901   3.803   6.752  0.9641 -1.2933 -1.2662
  110MOL   H32441962   6.801   3.983   6.890 -0.4964 -0.2926 -1.1714
  110MOL   C32541963   6.904   4.099   7.113  0.3630 -0.3304  0.2139
  110MOL   C32641964   6.904   4.252   7.086  0.0669 -0.0985  0.4952
  110MOL   O32741965   6.793   4.168   7.047  0.6568  0.3178  0.1908
  110MOL   C32841966   6.986   4.301   6.971  0.2973 -0.1866  0.1543
  110MOL   O32941967   6.969   4.439   6.937  0.6816 -0.7465  0.5574
  110MOL   C33041968   6.872   4.474   6.846 -0.3095 -0.5850  0.5366
  110MOL   C33141969   6.744   4.418   6.845 -0.3360  0.0355 -0.1306
  110MOL   C33241970   6.646   4.468   6.760  0.1686  0.1267  0.0722
  110MOL   C33341971   6.684   4.567   6.668 -0.5708  0.0359 -0.8942
  110MOL   C33441972   6.806   4.631   6.665 -0.2022 -0.0374  0.8092
  110MOL   C33541973   6.903   4.581   6.758  0.8381 -0.3303 -0.5456
  110MOL   H33641974   6.872   4.061   7.210 -1.7245 -0.5190 -0.5132
  110MOL   H33741975   6.885   4.325   7.165  1.7247  1.2432 -0.3328
  110MOL   H33841976   6.983   4.240   6.881 -0.5629 -1.2321  0.8946
  110MOL   H33941977   7.092   4.303   6.997  0.1271  0.2094  0.8259
  110MOL   H34041978   6.712   4.339   6.911 -0.4806  0.3803  0.2184
  110MOL   H34141979   6.540   4.447   6.767 -0.0493  1.9659  3.1691
  110MOL   H34241980   6.607   4.599   6.600 -1.2544  1.2848  0.4453
  110MOL   H34341981   6.819   4.713   6.596 -4.2030 -0.7966 -1.0182
  110MOL   C34441982   7.041   4.638   6.775 -0.1597  0.1067  0.0494
  110MOL   C34541983   7.157   4.637   6.683 -0.1165  0.0542 -0.9928
  110MOL   O34641984   7.065   4.744   6.680 -0.1257  0.1238  0.0656
  110MOL   C34741985   7.170   4.549   6.560 -0.4622 -0.2051  0.7814
  110MOL   O34841986   7.294   4.538   6.493 -0.1643 -1.1486 -0.2016
  110MOL   C34941987   7.338   4.650   6.422  1.1247 -0.1353  0.4618
  110MOL   C35041988   7.285   4.784   6.433  0.1602  0.6000  0.0811
  110MOL   C35141989   7.350   4.896   6.380  0.4940  0.2245  0.5736
  110MOL   C35241990   7.470   4.877   6.314  0.4416  0.1092  0.4428
  110MOL   C35341991   7.520   4.750   6.294 -0.3135 -0.0629 -0.1719
  110MOL   C35441992   7.455   4.638   6.346  0.1926 -0.3741 -0.0047
  110MOL   H35541993   7.069   4.651   6.880  2.1076 -2.0612 -0.2361
  110MOL   H35641994   7.246   4.652   6.744 -0.3239 -1.7732 -0.1877
  110MOL   H35741995   7.086   4.557   6.490 -0.7959 -0.9583  1.0969
  110MOL   H35841996   7.160   4.449   6.600  0.4332 -0.4998  0.2765
  110MOL   H35941997   7.194   4.803   6.489  1.1248 -1.1429  2.3279
  110MOL   H36041998   7.308   4.995   6.393 -0.5523  0.0735 -1.4015
  110MOL   H36141999   7.516   4.957   6.257 -2.0789  0.6500 -0.9214
  110MOL   H36242000   7.611   4.742   6.236  0.5007 -1.8183  1.2876
  110MOL   C36342001   7.517   4.508   6.305  0.2035 -0.1606  0.3914
  110MOL   C36442002   7.446   4.407   6.214 -0.2846 -0.3780 -0.4057
  110MOL   O36542003   7.528   4.512   6.163 -0.1101 -0.3583 -0.0866
  110MOL   C36642004   7.298   4.420   6.187  0.3617 -0.4761 -1.0363
  110MOL   O36742005   7.265   4.302   6.108 -0.6915 -0.4491  0.2724
  110MOL   C36842006   7.289   4.299   5.970  0.1128 -0.5363 -0.3339
  110MOL   C36942007   7.230   4.206   5.882 -0.4126  0.6041  0.3481
  110MOL   C37042008   7.233   4.216   5.744  0.7477 -0.1262 -0.2707
  110MOL   C37142009   7.303   4.325   5.684 -0.0796  0.2121 -0.1476
  110MOL   C37242010   7.374   4.418   5.764  0.1184 -0.2080  0.6288
  110MOL   C37342011   7.368   4.403   5.906 -0.2113 -0.2203  0.0784
  110MOL   H37442012   7.599   4.463   6.362  2.2024  1.1442 -1.3817
  110MOL   H37542013   7.489   4.313   6.178 -2.4127 -1.0678 -1.2256
  110MOL   H37642014   7.266   4.521   6.159  0.3519 -0.1938 -0.0346
  110MOL   H37742015   7.244   4.408   6.281 -3.0591  0.7790 -2.7208
  110MOL   H37842016   7.173   4.124   5.924 -0.3575 -0.6773 -2.0038
  110MOL   H37942017   7.189   4.137   5.685  1.1358  1.0157 -2.1422
  110MOL   H38042018   7.317   4.322   5.577 -4.5341  0.0382 -0.8167
  110MOL   H38142019   7.420   4.505   5.720 -4.2111  2.5667  1.2718
  110MOL   H38242020   7.418   4.480   5.963 -0.7131  1.0268 -1.1469
  111MOL     C142021   1.312   1.915   3.312 -0.4373  0.1902  0.6685
  111MOL     C242022   1.462   1.918   3.298 -0.8618  0.0711  0.4938
  111MOL     O342023   1.401   1.942   3.423  0.4620  0.1241 -0.2822
  111MOL     C442024   1.546   2.038   3.246 -0.5757 -0.2619 -0.2736
  111MOL     O542025   1.474   2.157   3.226 -0.9123  0.3627 -0.6952
  111MOL     C642026   1.532   2.275   3.256  0.0446 -0.3873  0.1459
  111MOL     C742027   1.669   2.294   3.299  0.1740 -0.4449  0.6958
  111MOL     C842028   1.717   2.425   3.305  0.4101 -0.2944  0.4859
  111MOL     C942029   1.631   2.535   3.280 -0.3184 -0.2039 -0.4830
  111MOL    C1042030   1.502   2.515   3.242 -0.3559  0.8542 -0.7443
  111MOL    C1142031   1.449   2.385   3.220 -0.3863 -1.0974 -0.1957
  111MOL    H1242032   1.252   1.824   3.314 -0.7866  0.4217  0.7364
  111MOL    H1342033   1.512   1.821   3.290 -1.0421  0.0051  0.1364
  111MOL    H1442034   1.608   2.017   3.159  0.9912  1.4754  0.3872
  111MOL    H1542035   1.627   2.045   3.318 -0.2708 -2.1981 -0.3873
  111MOL    H1642036   1.728   2.206   3.316 -0.9923 -1.0436  1.6456
  111MOL    H1742037   1.821   2.438   3.332  0.5433  2.3314 -1.2033
  111MOL    H1842038   1.672   2.634   3.296 -1.4260  0.6956 -2.9928
  111MOL    H1942039   1.442   2.601   3.219 -1.1441  1.1780  2.2996
  111MOL    H2042040   1.258   1.997   3.266 -0.9830  0.8868  2.5240
  111MOL    C2142041   1.309   2.365   3.171 -0.0993  0.0009 -0.2980
  111MOL    C2242042   1.180   2.428   3.232 -0.0755 -0.0981 -0.0124
  111MOL    O2342043   1.244   2.481   3.115 -0.5219 -0.0185  0.3327
  111MOL    C2442044   1.186   2.536   3.347 -0.0039  0.1043  0.6052
  111MOL    O2542045   1.242   2.492   3.468 -0.9831 -0.0822  0.0976
  111MOL    C2642046   1.186   2.385   3.527 -0.0235  0.9408 -0.6229
  111MOL    C2742047   1.041   2.378   3.539 -0.2413 -1.3413 -0.2978
  111MOL    C2842048   0.977   2.273   3.608 -0.8391 -0.0283  0.4549
  111MOL    C2942049   1.053   2.174   3.670 -0.2844 -0.4456 -0.9249
  111MOL    C3042050   1.194   2.176   3.654 -0.3682 -0.3810 -0.4297
  111MOL    C3142051   1.258   2.277   3.579 -0.6001  0.8090 -0.3474
  111MOL    H3242052   1.295   2.273   3.115 -0.2272  0.1819 -0.5593
  111MOL    H3342053   1.088   2.375   3.213  0.6278 -1.5952  0.6392
  111MOL    H3442054   1.082   2.564   3.363  0.3951  1.8735  0.2095
  111MOL    H3542055   1.252   2.619   3.324 -1.3669  0.9794 -0.1886
  111MOL    H3642056   0.981   2.461   3.502  1.3407  0.4425  1.0209
  111MOL    H3742057   0.869   2.282   3.619 -0.4503  3.4717  2.2664
  111MOL    H3842058   1.005   2.103   3.736  0.0924  1.5462  1.5584
  111MOL    H3942059   1.261   2.103   3.697 -0.4320 -1.0336 -1.4274
  111MOL    C4042060   1.401   2.262   3.552  0.1430  0.3809 -0.7139
  111MOL    C4142061   1.516   2.347   3.611 -0.4416  0.0769  0.2073
  111MOL    O4242062   1.480   2.226   3.673  0.6194  0.0726 -0.5523
  111MOL    C4342063   1.492   2.480   3.677 -0.7147 -0.3693 -0.3716
  111MOL    O4442064   1.615   2.531   3.738 -0.0092 -0.3560  0.3424
  111MOL    C4542065   1.634   2.667   3.763 -0.6845  1.0499  0.3337
  111MOL    C4642066   1.530   2.764   3.748  0.0791 -0.2160 -0.0455
  111MOL    C4742067   1.563   2.895   3.786  0.0330 -0.5798  0.3879
  111MOL    C4842068   1.693   2.937   3.830  0.8101 -0.1468  0.4553
  111MOL    C4942069   1.794   2.840   3.853 -0.2061 -0.7823 -0.0277
  111MOL    C5042070   1.757   2.706   3.821 -0.3498  0.2124 -0.0213
  111MOL    H5142071   1.423   2.189   3.474 -0.1356 -0.5879  0.1051
  111MOL    H5242072   1.616   2.337   3.568 -0.7445  0.9389 -0.7072
  111MOL    H5342073   1.433   2.470   3.768 -1.4382 -0.2321 -0.8188
  111MOL    H5442074   1.442   2.540   3.601 -1.7002 -1.0565 -0.2741
  111MOL    H5542075   1.434   2.740   3.706  2.0391 -1.0647 -4.3005
  111MOL    H5642076   1.485   2.970   3.780 -0.8030 -1.5691 -1.3433
  111MOL    H5742077   1.708   3.043   3.847  0.0625 -0.0004  0.2038
  111MOL    H5842078   1.892   2.863   3.893 -0.0902 -1.1651 -0.0881
  111MOL    C5942079   1.840   2.586   3.863  0.1443  0.3419  0.2638
  111MOL    C6042080   1.943   2.518   3.773 -0.0350 -0.5433  0.1379
  111MOL    O6142081   1.979   2.621   3.869 -0.0857 -0.1467 -0.6316
  111MOL    C6242082   1.977   2.548   3.625  0.4818 -0.3036 -0.5282
  111MOL    O6342083   2.118   2.543   3.634  0.4463  0.1185  0.1696
  111MOL    C6442084   2.191   2.560   3.524  0.1163 -0.2126  0.5805
  111MOL    C6542085   2.152   2.511   3.399  0.4533  1.1589 -0.1234
  111MOL    C6642086   2.227   2.541   3.277 -0.4857 -0.1875 -0.1991
  111MOL    C6742087   2.335   2.624   3.289  1.0688 -0.1695 -0.1874
  111MOL    C6842088   2.373   2.676   3.416  0.3425 -0.8470  0.1028
  111MOL    C6942089   2.306   2.645   3.533 -0.2069  0.1604 -0.6288
  111MOL    H7042090   1.796   2.524   3.941  0.4825  0.3026  0.4252
  111MOL    H7142091   1.982   2.423   3.810  2.4059  0.1767 -0.5275
  111MOL    H7242092   1.928   2.639   3.591 -0.0484  0.1178  1.2668
  111MOL    H7342093   1.941   2.464   3.565 -1.5673 -1.0223  1.5928
  111MOL    H7442094   2.081   2.431   3.411  1.0520  0.8923  1.7851
  111MOL    H7542095   2.202   2.494   3.183  2.8497 -2.5057  0.0051
  111MOL    H7642096   2.392   2.661   3.205 -0.8009  1.8874 -0.5890
  111MOL    H7742097   2.465   2.730   3.431  0.4066 -1.3275  1.5128
  111MOL    C7842098   2.347   2.691   3.673 -0.2549 -0.2111 -0.1060
  111MOL    C7942099   2.428   2.611   3.765 -0.0479 -0.5208  0.0618
  111MOL    O8042100   2.490   2.716   3.695  0.2512  0.0105 -0.1978
  111MOL    C8142101   2.514   2.489   3.732 -1.1636 -0.0207  0.3246
  111MOL    O8242102   2.552   2.474   3.592  0.1401  0.1610 -0.0917
  111MOL    C8342103   2.617   2.357   3.556 -0.1954  0.6072  0.3685
  111MOL    C8442104   2.606   2.238   3.639  0.8521  0.2147  0.0957
  111MOL    C8542105   2.673   2.124   3.600 -0.0003  0.2925 -0.1198
  111MOL    C8642106   2.754   2.120   3.485  0.6700  0.2670  0.2426
  111MOL    C8742107   2.771   2.230   3.402  0.1580  0.0607 -0.4955
  111MOL    C8842108   2.694   2.346   3.433 -0.5826 -0.4757  0.6136
  111MOL    H8942109   2.287   2.768   3.721  0.1280  0.6230 -0.9355
  111MOL    H9042110   2.403   2.623   3.870  1.8355  0.3494  0.4353
  111MOL    H9142111   2.443   2.413   3.764 -1.2675  0.2564  0.7485
  111MOL    H9242112   2.601   2.496   3.798 -1.2449  1.9951  0.2540
  111MOL    H9342113   2.550   2.246   3.732  1.2434 -1.3159  0.4713
  111MOL    H9442114   2.670   2.040   3.668 -0.2936 -0.7952 -1.4595
  111MOL    H9542115   2.800   2.025   3.461  0.5933 -0.6667  3.4990
  111MOL    H9642116   2.837   2.227   3.317  1.3680 -0.2760  0.4439
  111MOL    C9742117   2.709   2.473   3.352 -0.5740  0.6140 -0.0117
  111MOL    C9842118   2.792   2.591   3.393  0.3768 -0.0395  0.2785
  111MOL    O9942119   2.845   2.491   3.302  0.3107  0.7262 -0.2006
  111MOL   C10042120   2.875   2.604   3.521  0.2557  0.2733 -0.3355
  111MOL   O10142121   2.979   2.704   3.529  0.0296  0.3253  0.2648
  111MOL   C10242122   3.107   2.659   3.502  0.2015 -0.7109  0.0291
  111MOL   C10342123   3.139   2.568   3.400 -0.3168  0.5540 -0.6873
  111MOL   C10442124   3.269   2.538   3.378  0.3925  0.6174 -0.3935
  111MOL   C10542125   3.375   2.611   3.439  0.2389 -0.2141 -0.4214
  111MOL   C10642126   3.345   2.712   3.535  0.6618 -0.3546  0.8015
  111MOL   C10742127   3.211   2.733   3.567  0.4451  0.3630  0.3428
  111MOL   H10842128   2.632   2.486   3.277  1.7372 -2.3058 -3.0344
  111MOL   H10942129   2.790   2.691   3.350  1.2517 -0.2800 -0.3402
  111MOL   H11042130   2.914   2.506   3.550  0.9327  0.8964  0.8828
  111MOL   H11142131   2.800   2.613   3.600 -0.6600  0.6271 -1.2280
  111MOL   H11242132   3.063   2.505   3.356  0.2906 -2.1503  1.9666
  111MOL   H11342133   3.304   2.464   3.307  1.4247  0.7990 -0.0891
  111MOL   H11442134   3.477   2.586   3.414  1.1593 -0.4622  3.2517
  111MOL   H11542135   3.426   2.765   3.584 -1.1391  1.0582  2.3450
  111MOL   C11642136   3.173   2.850   3.658  0.0397  0.3608 -0.3073
  111MOL   C11742137   3.111   2.839   3.796 -0.1519  0.0595  0.2188
  111MOL   O11842138   3.256   2.841   3.775  0.2184 -0.4587 -0.3338
  111MOL   C11942139   3.049   2.709   3.850 -0.3252 -0.6923  0.2028
  111MOL   O12042140   3.057   2.703   3.994 -0.2763  0.5382  0.3840
  111MOL   C12142141   2.996   2.599   4.067  1.3271  0.0993 -0.0760
  111MOL   C12242142   2.915   2.497   4.002 -0.3751 -0.0254 -0.3456
  111MOL   C12342143   2.869   2.382   4.064 -0.7876  0.3425  0.1397
  111MOL   C12442144   2.886   2.372   4.201 -0.0106  0.3780  0.0058
  111MOL   C12542145   2.946   2.474   4.274  0.1462 -0.1628  0.7602
  111MOL   C12642146   2.995   2.585   4.207 -0.6287  0.5115  0.0716
  111MOL   H12742147   3.188   2.944   3.605  0.3256 -0.1564 -1.1600
  111MOL   H12842148   3.085   2.925   3.857  2.1378  0.4182  0.7250
  111MOL   H12942149   3.107   2.631   3.800  1.5267 -0.8425  2.5341
  111MOL   H13042150   2.949   2.698   3.808 -0.4684 -1.9858  0.8552
  111MOL   H13142151   2.903   2.513   3.896 -1.7746  1.6064  0.0240
  111MOL   H13242152   2.836   2.295   4.011 -2.4813  0.1386  1.5042
  111MOL   H13342153   2.847   2.290   4.259  1.1082 -1.1593 -1.3872
  111MOL   H13442154   2.952   2.472   4.382  2.7774  3.1492  0.7698
  111MOL   C13542155   3.074   2.697   4.278 -0.5091  0.6422 -0.0521
  111MOL   C13642156   3.001   2.801   4.354  0.9586 -0.3010  0.6159
  111MOL   O13742157   3.064   2.694   4.420  0.4275 -0.6436 -0.0697
  111MOL   C13842158   2.851   2.812   4.370 -0.2339 -0.6653  0.3186
  111MOL   O13942159   2.816   2.948   4.409  0.1143 -0.0315 -0.2601
  111MOL   C14042160   2.849   2.984   4.540  0.4140  0.1844  0.2997
  111MOL   C14142161   2.925   2.894   4.628  0.5981 -0.7031  0.2954
  111MOL   C14242162   2.954   2.943   4.758  0.0325 -1.0520  0.1081
  111MOL   C14342163   2.907   3.067   4.804 -0.6166 -0.6012 -0.6021
  111MOL   C14442164   2.830   3.150   4.722 -0.0258  0.3658  0.1542
  111MOL   C14542165   2.802   3.112   4.588 -0.5874 -0.4078 -0.3184
  111MOL   H14642166   3.175   2.716   4.244  0.7712 -0.9317  2.6953
  111MOL   H14742167   3.049   2.895   4.378 -0.5797 -0.1958  3.4591
  111MOL   H14842168   2.822   2.735   4.442 -0.2963 -1.8907 -0.9930
  111MOL   H14942169   2.806   2.802   4.271 -0.2109  1.0582  0.1246
  111MOL   H15042170   2.965   2.797   4.604  0.1539 -0.3058 -2.1711
  111MOL   H15142171   3.009   2.893   4.836 -1.3349  0.7684  2.2720
  111MOL   H15242172   2.937   3.104   4.901 -0.3489  0.2621 -1.0129
  111MOL   H15342173   2.796   3.247   4.753 -2.0021 -0.4964  0.7579
  111MOL   C15442174   2.718   3.209   4.503 -0.2620 -0.1122 -0.2874
  111MOL   C15542175   2.580   3.174   4.442  0.2374  0.3838 -0.8427
  111MOL   O15642176   2.592   3.239   4.566  0.1320  0.6093 -0.2461
  111MOL   C15742177   2.519   3.036   4.441  0.1235 -0.0353  0.0638
  111MOL   O15842178   2.556   2.966   4.564  0.2156  0.0694  0.0698
  111MOL   C15942179   2.486   2.857   4.605  0.0314 -0.3708  0.2104
  111MOL   C16042180   2.420   2.779   4.508 -0.0337 -0.1650  0.0871
  111MOL   C16142181   2.352   2.668   4.564 -0.5209 -0.6865  0.7930
  111MOL   C16242182   2.362   2.625   4.696  0.1026  0.4392  0.1914
  111MOL   C16342183   2.426   2.706   4.796 -0.8562 -0.1066  0.2571
  111MOL   C16442184   2.490   2.820   4.747  0.4602 -0.0512 -0.6891
  111MOL   H16542185   2.773   3.294   4.463 -0.3045  0.1066  0.1207
  111MOL   H16642186   2.542   3.236   4.361 -3.7411 -0.2070  0.4725
  111MOL   H16742187   2.550   2.975   4.356 -1.6464 -1.4396  0.3867
  111MOL   H16842188   2.412   3.055   4.437 -0.4641 -3.1786 -0.4782
  111MOL   H16942189   2.424   2.801   4.402 -2.7126 -1.0881 -0.2552
  111MOL   H17042190   2.299   2.605   4.494  1.6359  1.5953 -3.0115
  111MOL   H17142191   2.308   2.535   4.722  1.7766 -0.9069 -0.8299
  111MOL   H17242192   2.428   2.678   4.900 -0.4597 -0.6298  0.1129
  111MOL   C17342193   2.574   2.909   4.834  0.9541 -0.0970 -0.2707
  111MOL   C17442194   2.524   3.044   4.891 -0.5029 -0.3133  0.2396
  111MOL   O17542195   2.533   2.925   4.968  0.5294  0.7711 -0.4334
  111MOL   C17642196   2.388   3.096   4.856  0.1684 -0.3094 -0.2206
  111MOL   O17742197   2.354   3.214   4.926 -0.1183  0.2844 -0.1327
  111MOL   C17842198   2.321   3.215   5.058  0.0244 -0.5139 -1.0070
  111MOL   C17942199   2.327   3.103   5.142  0.0307  0.2114 -0.9380
  111MOL   C18042200   2.298   3.110   5.279 -0.0641  0.0264 -0.3689
  111MOL   C18142201   2.255   3.238   5.332  0.0956 -0.6085 -0.1345
  111MOL   C18242202   2.251   3.351   5.246  0.3625 -0.9579 -0.3937
  111MOL   C18342203   2.275   3.337   5.112 -0.7216  0.1867 -0.1774
  111MOL   H18442204   2.682   2.899   4.820  1.0819 -0.6354  1.0365
  111MOL   H18542205   2.591   3.121   4.928 -0.0037 -1.4221  1.6660
  111MOL   H18642206   2.311   3.027   4.891 -1.9708  3.3251  2.6964
  111MOL   H18742207   2.373   3.111   4.749 -0.1071  1.4204  0.0490
  111MOL   H18842208   2.339   3.004   5.100 -0.2273 -0.6947  1.0419
  111MOL   H18942209   2.298   3.018   5.334 -1.7295 -0.0775 -0.5231
  111MOL   H19042210   2.231   3.255   5.436 -0.4006  1.9040 -0.6280
  111MOL   H19142211   2.219   3.443   5.292 -2.4793 -0.9633 -2.2225
  111MOL   C19242212   2.266   3.458   5.022 -0.1012  0.0941 -0.3268
  111MOL   C19342213   2.159   3.482   4.928  0.4606 -0.1849  0.0385
  111MOL   O19442214   2.157   3.535   5.062 -0.2822 -0.0222 -0.2072
  111MOL   C19542215   2.048   3.381   4.892  0.7175 -0.8841  0.2067
  111MOL   O19642216   2.071   3.336   4.756  0.1520 -0.3251 -0.4197
  111MOL   C19742217   2.018   3.400   4.639  0.5961 -0.9268  0.0557
  111MOL   C19842218   1.929   3.507   4.646 -0.3727  0.4442 -0.8294
  111MOL   C19942219   1.883   3.566   4.524  0.0177 -0.2257 -0.2974
  111MOL   C20042220   1.939   3.530   4.401  0.4000  0.2647 -0.0490
  111MOL   C20142221   2.023   3.418   4.396  0.3953  1.3014 -0.0237
  111MOL   C20242222   2.061   3.355   4.515 -0.6970 -0.3974 -0.5682
  111MOL   H20342223   2.358   3.515   5.011 -0.4977  0.6248 -0.9214
  111MOL   H20442224   2.165   3.553   4.845  0.9327  0.1313  0.3406
  111MOL   H20542225   1.951   3.424   4.914  0.8152  0.2527 -1.4787
  111MOL   H20642226   2.061   3.295   4.958  1.9636 -0.9602 -0.1205
  111MOL   H20742227   1.878   3.521   4.740 -2.1491  0.1594 -1.7212
  111MOL   H20842228   1.823   3.655   4.528  2.2508  1.3006  0.0722
  111MOL   H20942229   1.918   3.598   4.320 -2.5970  0.2243  0.6673
  111MOL   H21042230   2.066   3.388   4.301 -1.1960  1.7222 -0.8991
  111MOL   C21142231   2.160   3.245   4.509 -0.2074 -0.7961 -0.2431
  111MOL   C21242232   2.108   3.105   4.506  0.2325 -0.2658  0.6359
  111MOL   O21342233   2.157   3.172   4.388 -0.5646 -0.2524 -0.2825
  111MOL   C21442234   1.966   3.073   4.493  0.1754  0.0870 -0.6808
  111MOL   O21542235   1.952   2.951   4.430 -0.2009 -0.0252  0.2887
  111MOL   C21642236   1.862   2.855   4.473  0.3389  0.5799  0.4283
  111MOL   C21742237   1.807   2.840   4.602 -0.4245 -0.6915 -0.4792
  111MOL   C21842238   1.715   2.741   4.629 -0.0116 -0.5463 -0.0921
  111MOL   C21942239   1.666   2.653   4.529  0.4085  0.3370 -0.5106
  111MOL   C22042240   1.721   2.662   4.402  0.0389 -0.4306  0.0591
  111MOL   C22142241   1.819   2.759   4.373  0.3249 -0.3825 -0.7503
  111MOL   H22242242   2.262   3.279   4.522  0.0346 -1.9706  1.0263
  111MOL   H22342243   2.170   3.027   4.549 -0.2723 -1.4273 -0.6831
  111MOL   H22442244   1.919   3.139   4.421  0.7556  1.1780 -0.0727
  111MOL   H22542245   1.911   3.081   4.587  1.4083  0.5080  0.0225
  111MOL   H22642246   1.828   2.908   4.684  0.6912  1.0606 -2.1685
  111MOL   H22742247   1.688   2.728   4.733 -0.3133  3.3715  0.3949
  111MOL   H22842248   1.601   2.569   4.549  0.1059  0.8717  0.8346
  111MOL   H22942249   1.681   2.596   4.326  2.5895  0.7319 -2.4044
  111MOL   C23042250   1.862   2.773   4.233 -0.3199  0.0038  0.0936
  111MOL   C23142251   2.005   2.742   4.185 -0.2876  0.9109 -0.0130
  111MOL   O23242252   1.892   2.649   4.173  0.1237 -0.4545 -0.6592
  111MOL   C23342253   2.113   2.706   4.286 -0.1113  0.1603 -0.2579
  111MOL   O23442254   2.200   2.607   4.236  0.3106  0.1943  0.1472
  111MOL   C23542255   2.326   2.639   4.193  0.2968 -0.3108 -0.4071
  111MOL   C23642256   2.359   2.768   4.131 -0.1146 -0.6306  0.0715
  111MOL   C23742257   2.494   2.796   4.097 -0.0227 -0.2032  0.2523
  111MOL   C23842258   2.587   2.696   4.118  0.7218 -0.0189 -0.2610
  111MOL   C23942259   2.554   2.576   4.181 -0.2295  0.0367  0.6608
  111MOL   C24042260   2.425   2.546   4.213 -0.1860  0.8521  1.3804
  111MOL   H24142261   1.795   2.845   4.186  0.7883  2.3232  1.9922
  111MOL   H24242262   2.037   2.783   4.090 -1.9082  2.1982 -0.0146
  111MOL   H24342263   2.062   2.674   4.377 -2.8072 -0.3694 -1.8740
  111MOL   H24442264   2.163   2.802   4.300 -0.7586  0.2608  1.4407
  111MOL   H24542265   2.288   2.849   4.121  1.3175  0.5623 -0.5575
  111MOL   H24642266   2.527   2.888   4.051  0.3013 -0.7376 -0.5953
  111MOL   H24742267   2.687   2.719   4.085 -0.4691 -0.6599 -4.6043
  111MOL   H24842268   2.628   2.499   4.196 -0.4097 -0.1355  0.6791
  111MOL   C24942269   2.388   2.417   4.270 -0.0588 -0.0825  0.1055
  111MOL   C25042270   2.331   2.305   4.195 -0.3354 -0.3264 -0.2522
  111MOL   O25142271   2.471   2.310   4.232  0.2465  0.0591  0.7317
  111MOL   C25242272   2.300   2.310   4.043  0.2228 -0.8596  0.2127
  111MOL   O25342273   2.238   2.190   3.994  0.0748 -0.4639  0.1856
  111MOL   C25442274   2.107   2.169   4.022  1.2315 -0.0302  0.1274
  111MOL   C25542275   2.018   2.263   4.081 -0.3895 -0.4296 -0.0255
  111MOL   C25642276   1.879   2.242   4.100 -0.3301 -0.0047  0.0017
  111MOL   C25742277   1.827   2.116   4.068 -0.2014 -0.7449  0.4242
  111MOL   C25842278   1.908   2.019   4.008 -0.0997  0.0665  0.0849
  111MOL   C25942279   2.045   2.051   3.981 -0.6438  0.6775  0.2038
  111MOL   H26042280   2.386   2.418   4.379  0.3100 -0.3945  0.1203
  111MOL   H26142281   2.291   2.216   4.244 -3.4414 -0.0034 -2.0659
  111MOL   H26242282   2.389   2.339   3.987 -0.5238  2.1593  0.5076
  111MOL   H26342283   2.228   2.389   4.023 -0.3347 -1.2858  0.5147
  111MOL   H26442284   2.056   2.361   4.104  0.5823 -0.7873 -0.0784
  111MOL   H26542285   1.830   2.324   4.150  0.9793  0.0612  1.2165
  111MOL   H26642286   1.730   2.094   4.110 -0.1395 -3.7584 -0.8904
  111MOL   H26742287   1.868   1.921   3.992 -1.2719  0.2919  1.5558
  111MOL   C26842288   2.132   1.949   3.914  0.7658  0.6552  0.2229
  111MOL   C26942289   2.200   1.836   3.983 -0.3615 -0.1993 -0.6406
  111MOL   O27042290   2.071   1.813   3.917  0.1546  0.1411  0.0538
  111MOL   C27142291   2.206   1.813   4.129  0.2549 -0.3819 -0.4448
  111MOL   O27242292   2.229   1.681   4.171 -0.0361  0.0378  0.2393
  111MOL   C27342293   2.359   1.629   4.178 -0.0415  0.3886 -0.0548
  111MOL   C27442294   2.479   1.697   4.136  0.4327  0.2321  0.4379
  111MOL   C27542295   2.601   1.639   4.133  0.0425 -0.1917 -0.2617
  111MOL   C27642296   2.615   1.507   4.176  0.5626  0.1319 -0.1076
  111MOL   C27742297   2.506   1.435   4.217  0.2558  0.1542  0.4431
  111MOL   C27842298   2.376   1.493   4.218  0.9315  0.3726 -0.4962
  111MOL   H27942299   2.142   1.981   3.811 -0.1720  0.5007  0.0818
  111MOL   H28042300   2.280   1.792   3.925 -0.7771  0.2842 -1.5883
  111MOL   H28142301   2.117   1.842   4.184  1.7827 -1.1404  2.5203
  111MOL   H28242302   2.278   1.885   4.169 -1.1089 -0.2617  1.8816
  111MOL   H28342303   2.469   1.801   4.107  0.0258 -0.6621 -2.8322
  111MOL   H28442304   2.687   1.693   4.096  0.3086 -2.2874 -2.8547
  111MOL   H28542305   2.713   1.463   4.181 -0.1870 -1.4828  0.6655
  111MOL   H28642306   2.520   1.334   4.254 -0.5447 -0.5436 -1.0956
  111MOL   C28742307   2.258   1.417   4.268  0.2163  0.1673 -0.3921
  111MOL   C28842308   2.176   1.337   4.163  0.4719 -0.5772  0.2029
  111MOL   O28942309   2.268   1.277   4.251  0.3662 -0.0085  0.0281
  111MOL   C29042310   2.211   1.331   4.009  0.4801  0.3137  0.1641
  111MOL   O29142311   2.164   1.217   3.942  0.3576 -0.3089  0.4003
  111MOL   C29242312   2.034   1.212   3.890 -0.6401  0.2250  0.5025
  111MOL   C29342313   1.953   1.325   3.868 -0.3743 -0.4293 -0.2497
  111MOL   C29442314   1.829   1.306   3.798  0.5811  0.1752  0.0969
  111MOL   C29542315   1.792   1.176   3.759  0.5122  0.1137  0.4925
  111MOL   C29642316   1.871   1.066   3.788  0.5275  0.2205  0.5568
  111MOL   C29742317   1.991   1.078   3.856  0.0037  0.4661 -0.3166
  111MOL   H29842318   2.221   1.446   4.366  0.0372 -1.3927  0.0055
  111MOL   H29942319   2.074   1.311   4.192  0.6825 -0.5315  1.0053
  111MOL   H30042320   2.319   1.328   3.998  0.6372  1.3561  1.3161
  111MOL   H30142321   2.188   1.432   3.975 -0.1026  0.5044  1.0788
  111MOL   H30242322   1.982   1.428   3.884  0.8110 -0.6187 -1.1099
  111MOL   H30342323   1.758   1.387   3.791  0.4618  0.0449 -0.1896
  111MOL   H30442324   1.697   1.159   3.710  1.0106  0.1385 -0.4732
  111MOL   H30542325   1.850   0.963   3.761 -0.4814  0.9023 -1.3193
  111MOL   C30642326   2.083   0.968   3.889  0.3325 -0.7282  0.1763
  111MOL   C30742327   2.114   0.916   4.026 -0.0004  0.2871  0.1752
  111MOL   O30842328   2.005   0.863   3.943  0.0939 -0.5393 -0.4683
  111MOL   C30942329   2.075   0.996   4.148 -0.7460  0.2428  0.6550
  111MOL   O31042330   2.100   0.923   4.269 -0.1159 -0.0417 -0.4609
  111MOL   C31142331   2.061   0.983   4.390  0.8710  0.2329 -0.4323
  111MOL   C31242332   1.984   1.100   4.402 -0.0078  0.5645 -0.1510
  111MOL   C31342333   1.955   1.158   4.522 -0.2291  0.0833 -0.2688
  111MOL   C31442334   1.992   1.088   4.644 -0.4142 -0.4447  0.5392
  111MOL   C31542335   2.069   0.969   4.636 -0.2204  0.1321  0.1290
  111MOL   C31642336   2.098   0.913   4.511  0.7431  0.5103  0.5726
  111MOL   H31742337   2.140   0.938   3.801 -0.1697 -2.5648  0.4503
  111MOL   H31842338   2.208   0.861   4.029 -0.0834 -0.0119 -1.9778
  111MOL   H31942339   1.967   1.013   4.148 -0.9788 -0.9887 -2.5028
  111MOL   H32042340   2.113   1.097   4.157 -0.6306  0.3563 -1.1044
  111MOL   H32142341   1.967   1.151   4.308 -0.2239 -1.0631 -1.0128
  111MOL   H32242342   1.898   1.250   4.529 -0.8156 -0.4055  1.8133
  111MOL   H32342343   1.983   1.134   4.741  3.4906 -0.1422  0.8249
  111MOL   H32442344   2.099   0.915   4.724  0.7184 -2.0152 -1.4477
  111MOL   C32542345   2.166   0.783   4.502 -0.6162 -0.2575  0.6939
  111MOL   C32642346   2.307   0.756   4.443 -1.4444  0.2233  0.3466
  111MOL   O32742347   2.285   0.785   4.585 -0.2944  0.6745 -0.0390
  111MOL   C32842348   2.381   0.859   4.359  1.0047 -0.2884 -0.8078
  111MOL   O32942349   2.518   0.843   4.380 -0.1292 -1.0879  0.2898
  111MOL   C33042350   2.593   0.933   4.449 -0.4411  0.9979 -0.1655
  111MOL   C33142351   2.541   1.009   4.557 -0.0328  0.3493 -0.1733
  111MOL   C33242352   2.627   1.089   4.631  0.6997  0.0188  0.4693
  111MOL   C33342353   2.764   1.090   4.601 -0.1636  1.3043 -0.0300
  111MOL   C33442354   2.816   1.013   4.498  0.5371  1.1127 -0.5681
  111MOL   C33542355   2.730   0.936   4.419  0.6196  0.3798 -0.0468
  111MOL   H33642356   2.095   0.702   4.517 -1.3914 -0.1960 -2.2052
  111MOL   H33742357   2.321   0.651   4.418  0.0125 -0.4039  3.5382
  111MOL   H33842358   2.346   0.956   4.395  0.8884 -0.5339 -0.2521
  111MOL   H33942359   2.366   0.856   4.251  2.0243  1.5847 -1.0256
  111MOL   H34042360   2.435   1.013   4.579 -0.5097 -1.4016 -2.0546
  111MOL   H34142361   2.587   1.144   4.715 -0.8814 -2.1421  1.1822
  111MOL   H34242362   2.827   1.147   4.668  0.8497  0.8674 -0.5863
  111MOL   H34342363   2.923   1.013   4.481  0.6171  1.8491 -0.0961
  111MOL   C34442364   2.780   0.838   4.305 -0.6754 -0.1121  0.1643
  111MOL   C34542365   2.763   0.855   4.162  0.0915 -0.4372 -0.3729
  111MOL   O34642366   2.890   0.882   4.230 -0.0683 -0.1343 -0.1898
  111MOL   C34742367   2.681   0.967   4.100  0.3497 -0.0088 -0.2961
  111MOL   O34842368   2.676   0.957   3.961 -0.9456  0.2266  0.2729
  111MOL   C34942369   2.666   1.070   3.876  0.5965  0.2549  0.4699
  111MOL   C35042370   2.640   1.206   3.922 -0.2192 -0.3019 -0.0623
  111MOL   C35142371   2.604   1.312   3.831  0.3057 -0.0052  0.6803
  111MOL   C35242372   2.618   1.292   3.693  0.0592  0.2735  0.0536
  111MOL   C35342373   2.641   1.159   3.650 -0.3645 -0.2556 -0.2360
  111MOL   C35442374   2.668   1.047   3.737 -0.5865 -0.0158 -0.0720
  111MOL   H35542375   2.784   0.735   4.340 -0.8092 -0.3835 -0.6265
  111MOL   H35642376   2.760   0.761   4.108 -1.6427 -1.2013  0.9758
  111MOL   H35742377   2.723   1.060   4.137 -0.0719  0.1686 -0.2522
  111MOL   H35842378   2.577   0.953   4.132  0.9009 -1.9087  0.7350
  111MOL   H35942379   2.626   1.224   4.027 -1.8241 -0.5895 -0.2097
  111MOL   H36042380   2.581   1.410   3.868  2.4733  1.1515 -0.9402
  111MOL   H36142381   2.581   1.360   3.618 -2.3769  0.5513  1.4360
  111MOL   H36242382   2.634   1.148   3.543  1.0743  0.8187 -0.4652
  111MOL   C36342383   2.666   0.906   3.686  0.0597 -0.2206  0.0333
  111MOL   C36442384   2.547   0.824   3.694  0.9727  0.1318 -0.4304
  111MOL   O36542385   2.574   0.902   3.576 -0.4238 -0.1301 -0.6611
  111MOL   C36642386   2.407   0.860   3.751  0.2101  0.4109 -0.1144
  111MOL   O36742387   2.323   0.743   3.765 -0.4369  0.5825  0.1102
  111MOL   C36842388   2.350   0.658   3.868  0.0997 -0.0535 -0.3985
  111MOL   C36942389   2.442   0.683   3.971 -0.0820  0.5848 -0.4917
  111MOL   C37042390   2.457   0.594   4.076 -0.0133 -0.5886 -0.7000
  111MOL   C37142391   2.375   0.486   4.086  0.3305  0.2451 -0.2422
  111MOL   C37242392   2.286   0.452   3.978  0.0284 -0.4258  0.0660
  111MOL   C37342393   2.276   0.536   3.871 -0.1563 -0.1741 -0.1107
  111MOL   H37442394   2.765   0.863   3.679  0.6398  1.4527 -2.8739
  111MOL   H37542395   2.558   0.717   3.680  0.3236  0.1456 -1.0779
  111MOL   H37642396   2.352   0.922   3.680 -0.2543  1.3916  1.0923
  111MOL   H37742397   2.408   0.930   3.835  2.0056  2.6991 -1.9631
  111MOL   H37842398   2.490   0.780   3.970 -1.8726  1.4957 -1.1975
  111MOL   H37942399   2.530   0.595   4.155 -0.1500  0.1095 -0.5814
  111MOL   H38042400   2.388   0.417   4.169  1.0551 -1.2168 -1.5474
  111MOL   H38142401   2.227   0.362   3.984 -0.8890  0.0777 -1.1378
  111MOL   H38242402   2.216   0.514   3.784 -1.1810 -1.6555  0.9370
  112MOL     C142403   1.562   5.483   3.793 -0.4373  0.1036  0.4117
  112MOL     C242404   1.549   5.472   3.645 -0.1539  0.2230  0.7423
  112MOL     O342405   1.620   5.374   3.724 -0.5823 -0.8262  0.4058
  112MOL     C442406   1.625   5.565   3.553  0.3278  0.0346  0.0508
  112MOL     O542407   1.646   5.514   3.423  0.3592 -0.1322  0.2659
  112MOL     C642408   1.644   5.602   3.316  0.3706  0.4228  0.0529
  112MOL     C742409   1.632   5.747   3.324 -0.8021 -0.2462  0.3683
  112MOL     C842410   1.642   5.820   3.205  0.1078  0.2203  0.2531
  112MOL     C942411   1.662   5.760   3.084 -0.3835  0.3997  0.4944
  112MOL    C1042412   1.668   5.621   3.074  0.2011  0.4412 -0.5636
  112MOL    C1142413   1.646   5.541   3.193 -0.2190  0.4011  0.2400
  112MOL    H1242414   1.496   5.441   3.870  1.0215 -2.9129  0.1173
  112MOL    H1342415   1.445   5.454   3.618 -0.6570  2.6055  0.9739
  112MOL    H1442416   1.723   5.591   3.595 -0.0682 -0.6206  1.4177
  112MOL    H1542417   1.569   5.658   3.556  1.0464  0.4221  2.5750
  112MOL    H1642418   1.620   5.802   3.416  2.0177 -1.2228  1.3679
  112MOL    H1742419   1.641   5.927   3.221  0.7820 -0.2267  3.6866
  112MOL    H1842420   1.670   5.826   2.999 -1.6920 -0.4987 -0.3283
  112MOL    H1942421   1.678   5.581   2.974 -0.0306  0.5166 -0.6171
  112MOL    H2042422   1.627   5.564   3.826  1.0943 -0.4905 -1.0541
  112MOL    C2142423   1.653   5.398   3.181 -0.5371  0.1884  0.1116
  112MOL    C2242424   1.530   5.311   3.166  0.2127 -0.1022 -0.1495
  112MOL    O2342425   1.603   5.349   3.057 -0.4187  0.8395 -0.4988
  112MOL    C2442426   1.388   5.369   3.145 -0.4293  0.6435 -0.3908
  112MOL    O2542427   1.314   5.380   3.268 -0.3041 -0.2578 -0.2019
  112MOL    C2642428   1.193   5.445   3.254  0.2818  0.6244 -0.1466
  112MOL    C2742429   1.189   5.585   3.248 -0.0696  0.4511  0.5422
  112MOL    C2842430   1.061   5.653   3.243 -0.3904  0.3997  1.0473
  112MOL    C2942431   0.940   5.575   3.250 -0.2565 -0.4112 -0.8235
  112MOL    C3042432   0.948   5.435   3.279  0.8891  0.4958  0.8026
  112MOL    C3142433   1.077   5.367   3.281  0.1190 -0.8874 -0.9442
  112MOL    H3242434   1.746   5.345   3.201 -0.4442  0.9396  1.7243
  112MOL    H3342435   1.535   5.204   3.179 -0.0442 -0.5674 -3.4653
  112MOL    H3442436   1.334   5.300   3.080  0.3861 -1.9314  1.5471
  112MOL    H3542437   1.402   5.463   3.093  0.6359  0.1529 -1.0083
  112MOL    H3642438   1.283   5.637   3.247  1.0411 -1.2625  4.9348
  112MOL    H3742439   1.058   5.758   3.220 -2.0329 -0.2854 -2.1409
  112MOL    H3842440   0.840   5.616   3.246 -1.3253 -2.8814 -0.0743
  112MOL    H3942441   0.858   5.381   3.304  0.8768  0.6120  1.0111
  112MOL    C4042442   1.089   5.220   3.302 -0.3075 -0.0301 -0.2988
  112MOL    C4142443   1.095   5.153   3.432  0.4388  0.0103 -0.2278
  112MOL    O4242444   0.975   5.155   3.349  0.1873 -0.3607 -0.0811
  112MOL    C4342445   1.076   5.230   3.564  0.2180 -0.3039  0.1428
  112MOL    O4442446   1.010   5.143   3.657 -0.5075 -0.5980  0.1966
  112MOL    C4542447   1.079   5.126   3.776  0.5477  0.3872 -0.6358
  112MOL    C4642448   1.218   5.098   3.772  0.0402 -0.5057 -0.6040
  112MOL    C4742449   1.295   5.095   3.890  0.2254  0.5087 -0.2689
  112MOL    C4842450   1.226   5.124   4.011 -0.4402 -0.0630 -0.0672
  112MOL    C4942451   1.085   5.131   4.014 -0.0781 -0.0116  0.0075
  112MOL    C5042452   1.005   5.130   3.895 -0.3990  0.2010 -0.1395
  112MOL    H5142453   1.133   5.177   3.213  0.1477  0.9867 -0.5816
  112MOL    H5242454   1.135   5.053   3.441  0.2737 -0.0430 -0.0860
  112MOL    H5342455   1.016   5.317   3.540 -1.3140 -1.9563 -2.2532
  112MOL    H5442456   1.172   5.270   3.597 -0.6412  0.8080  1.3188
  112MOL    H5542457   1.276   5.083   3.683  1.8680  0.2912  0.4336
  112MOL    H5642458   1.400   5.071   3.903  0.9686  3.8053  0.3122
  112MOL    H5742459   1.271   5.125   4.109  0.8991 -2.1312 -0.6309
  112MOL    H5842460   1.035   5.139   4.110  1.7826 -0.1876  1.0204
  112MOL    C5942461   0.853   5.142   3.901 -0.6877  0.1722 -0.3462
  112MOL    C6042462   0.776   5.030   3.964  0.0758 -1.0355 -0.4049
  112MOL    O6142463   0.798   5.159   4.031 -0.3871 -0.0596 -0.4030
  112MOL    C6242464   0.843   4.910   4.026 -0.7363 -0.3645  0.4825
  112MOL    O6342465   0.754   4.830   4.089 -0.2519  0.4494 -0.1024
  112MOL    C6442466   0.746   4.834   4.231 -0.0966 -1.3408  0.0086
  112MOL    C6542467   0.777   4.951   4.305  0.2927 -0.3546  0.6256
  112MOL    C6642468   0.734   4.958   4.444 -0.9312 -0.0802 -0.4952
  112MOL    C6742469   0.697   4.840   4.510 -0.8651  0.0256  0.6665
  112MOL    C6842470   0.690   4.715   4.443 -0.0099 -0.5511  0.0095
  112MOL    C6942471   0.705   4.717   4.300  0.5270  0.4258 -0.3860
  112MOL    H7042472   0.811   5.199   3.819 -1.2469  0.1204 -0.0922
  112MOL    H7142473   0.673   5.018   3.931  0.1205 -0.6270 -0.6977
  112MOL    H7242474   0.924   4.940   4.091 -0.5152 -0.7836  0.3993
  112MOL    H7342475   0.898   4.848   3.956  0.4104  1.1752 -0.0023
  112MOL    H7442476   0.818   5.039   4.258 -3.0858  1.5302  1.0724
  112MOL    H7542477   0.743   5.054   4.492 -0.7923  1.3140 -3.2057
  112MOL    H7642478   0.679   4.850   4.616  1.0876  0.2591  1.0061
  112MOL    H7742479   0.661   4.629   4.501  0.2826 -0.4816  0.2584
  112MOL    C7842480   0.686   4.582   4.234  0.0433 -0.4403  0.1488
  112MOL    C7942481   0.780   4.461   4.255  0.1606  0.1332 -0.0829
  112MOL    O8042482   0.649   4.469   4.320 -1.0185 -0.4151 -0.2346
  112MOL    C8142483   0.894   4.464   4.351 -0.6360 -0.1698 -0.2883
  112MOL    O8242484   0.956   4.338   4.373 -0.1811  0.2123  0.3432
  112MOL    C8342485   0.893   4.251   4.460 -0.5220  1.6030  0.5460
  112MOL    C8442486   0.780   4.287   4.537  0.4186  0.4650  0.1617
  112MOL    C8542487   0.726   4.194   4.631 -0.6833  0.0358  0.3265
  112MOL    C8642488   0.778   4.063   4.644 -0.3266 -0.7470  0.4803
  112MOL    C8742489   0.896   4.032   4.567  0.5620  0.0443 -0.7034
  112MOL    C8842490   0.949   4.121   4.472  0.1482  0.0048  0.3047
  112MOL    H8942491   0.624   4.595   4.146 -1.4274  0.3280  1.2877
  112MOL    H9042492   0.787   4.386   4.176 -0.8598 -1.2087  1.0889
  112MOL    H9142493   0.874   4.513   4.447 -1.5727 -1.0600 -0.0170
  112MOL    H9242494   0.968   4.534   4.313 -0.8195 -0.3678 -1.0062
  112MOL    H9342495   0.732   4.383   4.529 -2.4084 -0.9172 -0.0831
  112MOL    H9442496   0.648   4.234   4.694 -1.2843 -1.2064  0.3707
  112MOL    H9542497   0.742   4.002   4.725 -0.4497  0.0672  1.0400
  112MOL    H9642498   0.925   3.929   4.582 -1.6964 -0.5282  0.0232
  112MOL    C9742499   1.065   4.085   4.383 -0.3359 -0.8234  0.0477
  112MOL    C9842500   1.202   4.133   4.400 -0.7618 -0.4839 -0.3234
  112MOL    O9942501   1.156   4.006   4.455  0.2857  0.7383 -0.4150
  112MOL   C10042502   1.242   4.232   4.506  1.2288  0.0182 -0.2020
  112MOL   O10142503   1.382   4.231   4.515 -0.4098  0.7636  0.4303
  112MOL   C10242504   1.441   4.192   4.632  0.9578  0.0985 -0.2844
  112MOL   C10342505   1.390   4.087   4.712 -0.0849  0.2586 -0.1753
  112MOL   C10442506   1.438   4.048   4.835 -0.2098 -0.1649  0.4139
  112MOL   C10542507   1.548   4.119   4.882  0.4463  0.4688 -0.0540
  112MOL   C10642508   1.600   4.230   4.815  0.0286 -0.0249 -0.3199
  112MOL   C10742509   1.552   4.265   4.688 -0.1607  0.2298 -0.7221
  112MOL   H10842510   1.029   4.044   4.289 -2.1979  2.8212 -0.9004
  112MOL   H10942511   1.269   4.126   4.315 -0.1387  1.8741 -0.0566
  112MOL   H11042512   1.188   4.209   4.599  2.0125  0.0866  0.2747
  112MOL   H11142513   1.204   4.332   4.485  1.3762  0.7250  2.6957
  112MOL   H11242514   1.307   4.024   4.682  0.7302 -1.2647  0.7029
  112MOL   H11342515   1.401   3.970   4.899  1.8259 -0.4964  1.2290
  112MOL   H11442516   1.604   4.094   4.971 -0.0385  1.5255  0.5562
  112MOL   H11542517   1.686   4.282   4.855  0.8440  0.1910 -2.2921
  112MOL   C11642518   1.622   4.383   4.616  0.1408 -0.3041 -0.3799
  112MOL   C11742519   1.558   4.519   4.603 -0.1512 -0.4247  0.7578
  112MOL   O11842520   1.657   4.491   4.706  0.0756  0.0276  0.1631
  112MOL   C11942521   1.414   4.557   4.652 -0.4461  0.0137 -0.1465
  112MOL   O12042522   1.418   4.695   4.666 -0.1266 -0.2326 -0.1951
  112MOL   C12142523   1.338   4.766   4.580  0.0838 -0.1754  0.1524
  112MOL   C12242524   1.399   4.847   4.488 -0.3487 -0.1774  0.1650
  112MOL   C12342525   1.329   4.899   4.379 -0.5736 -0.3433 -0.1697
  112MOL   C12442526   1.191   4.883   4.375 -0.0756 -0.1527 -0.1430
  112MOL   C12542527   1.121   4.814   4.473  0.0115  0.5645  0.5671
  112MOL   C12642528   1.193   4.750   4.573  0.4424 -0.1545 -0.2692
  112MOL   H12742529   1.708   4.348   4.559  0.6159 -1.6710  1.1420
  112MOL   H12842530   1.593   4.589   4.527 -1.7490 -0.4291 -0.0163
  112MOL   H12942531   1.410   4.513   4.752  3.8310  1.4742  0.7554
  112MOL   H13042532   1.347   4.509   4.580  0.6264  0.3923 -1.4244
  112MOL   H13142533   1.506   4.861   4.499 -0.2125 -1.4398  0.5463
  112MOL   H13242534   1.377   4.959   4.303  0.6535 -1.4247 -0.2703
  112MOL   H13342535   1.133   4.919   4.292 -0.4037 -1.1829 -0.3706
  112MOL   H13442536   1.015   4.802   4.457  0.0232  1.2242 -0.0634
  112MOL   C13542537   1.115   4.651   4.650  0.3828 -0.4206 -0.5041
  112MOL   C13642538   1.088   4.664   4.801  0.1034  0.0495 -0.2721
  112MOL   O13742539   0.986   4.685   4.704  1.0289 -0.4159  0.9878
  112MOL   C13842540   1.146   4.779   4.879 -0.1185  0.2366  0.4006
  112MOL   O13942541   1.074   4.788   5.004 -0.2654 -0.2247  0.6874
  112MOL   C14042542   1.146   4.792   5.122  0.7422  0.4988  0.5855
  112MOL   C14142543   1.287   4.818   5.130 -0.1498 -0.8254  0.0367
  112MOL   C14242544   1.351   4.848   5.250  0.3164 -0.3210  0.0526
  112MOL   C14342545   1.275   4.841   5.369  0.2160 -0.1463 -0.5827
  112MOL   C14442546   1.140   4.794   5.365  0.0512 -0.2508 -0.1706
  112MOL   C14542547   1.076   4.777   5.243 -0.1014  0.3381  0.2979
  112MOL   H14642548   1.108   4.552   4.605 -2.0618  0.4161 -2.0847
  112MOL   H14742549   1.081   4.577   4.866  2.2792 -1.1009 -1.5332
  112MOL   H14842550   1.105   4.865   4.826  0.0601 -0.7311 -1.3593
  112MOL   H14942551   1.254   4.790   4.867 -0.3297  0.8805 -1.0344
  112MOL   H15042552   1.353   4.816   5.044  0.6299 -0.6721  0.6196
  112MOL   H15142553   1.456   4.869   5.258 -0.2677  2.9096  0.1489
  112MOL   H15242554   1.314   4.857   5.469  0.2800  0.0638 -0.6409
  112MOL   H15342555   1.080   4.783   5.454 -1.3181 -1.1972 -1.2040
  112MOL   C15442556   0.932   4.756   5.231  0.5272 -0.1948  0.5951
  112MOL   C15542557   0.870   4.618   5.223 -0.8159 -0.3542  0.6896
  112MOL   O15642558   0.873   4.693   5.346  0.4382  0.0886  0.1246
  112MOL   C15742559   0.958   4.493   5.213 -0.3894 -0.4073  0.1120
  112MOL   O15842560   0.882   4.381   5.191  0.1381 -0.7463 -0.0285
  112MOL   C15942561   0.938   4.269   5.139 -0.5359 -0.7203 -0.4095
  112MOL   C16042562   1.081   4.257   5.143 -0.2155 -0.3380  0.3169
  112MOL   C16142563   1.133   4.138   5.081  0.3300 -0.2548  0.0961
  112MOL   C16242564   1.051   4.046   5.014  0.8701 -0.0268  0.0366
  112MOL   C16342565   0.910   4.066   5.021  0.0062 -0.5867  0.2880
  112MOL   C16442566   0.852   4.176   5.088 -1.2532  0.2486 -0.0471
  112MOL   H16542567   0.882   4.846   5.195  1.1981 -0.3198 -0.6795
  112MOL   H16642568   0.775   4.627   5.171 -1.2257 -3.1314  0.8984
  112MOL   H16742569   1.011   4.489   5.308 -0.7079 -2.5804  0.2371
  112MOL   H16842570   1.033   4.503   5.135  2.0276 -1.5861  2.2349
  112MOL   H16942571   1.145   4.328   5.195 -0.8578  1.5247 -1.3678
  112MOL   H17042572   1.236   4.109   5.099  0.4046  0.1789  0.3667
  112MOL   H17142573   1.087   3.957   4.965 -0.1696 -0.2403 -0.3421
  112MOL   H17242574   0.844   3.993   4.977  0.6700 -1.2315  0.3509
  112MOL   C17342575   0.705   4.188   5.099  0.0431  0.8722 -0.0529
  112MOL   C17442576   0.611   4.283   5.031 -0.4179 -0.1504 -0.4518
  112MOL   O17542577   0.636   4.157   4.972  0.0906  0.3047 -0.4469
  112MOL   C17642578   0.658   4.407   4.948 -0.1398  0.0095 -0.1996
  112MOL   O17742579   0.569   4.441   4.839  0.2111  0.1849 -0.0470
  112MOL   C17842580   0.447   4.498   4.858  0.1942  0.6101 -0.3059
  112MOL   C17942581   0.397   4.531   4.990  0.1886  0.2414 -0.2383
  112MOL   C18042582   0.272   4.589   5.003  0.0799  0.0218 -0.3391
  112MOL   C18142583   0.196   4.615   4.892  0.0492  0.0893  0.2876
  112MOL   C18242584   0.232   4.572   4.763  0.1541 -0.2081  0.7336
  112MOL   C18342585   0.357   4.512   4.746  0.0968 -0.4155 -0.1989
  112MOL   H18442586   0.669   4.127   5.182 -0.0850  0.7191 -0.2206
  112MOL   H18542587   0.509   4.287   5.068  0.1125  0.6340  0.9780
  112MOL   H18642588   0.751   4.387   4.895  0.9053 -2.6504  2.4937
  112MOL   H18742589   0.672   4.491   5.016  1.1368 -0.9857  0.7862
  112MOL   H18842590   0.461   4.520   5.076 -0.1158  1.9907  0.2213
  112MOL   H18942591   0.246   4.624   5.102  0.0941 -1.0345  0.0455
  112MOL   H19042592   0.100   4.664   4.905 -0.6469 -1.2021  0.1018
  112MOL   H19142593   0.165   4.600   4.684  2.8256  1.7523 -0.9411
  112MOL   C19242594   0.399   4.479   4.604 -0.3302 -0.1076  0.1241
  112MOL   C19342595   0.380   4.352   4.529 -0.5081 -0.1442  0.0554
  112MOL   O19442596   0.281   4.456   4.521 -0.4185 -0.3492 -0.4393
  112MOL   C19542597   0.325   4.230   4.598  0.1122  0.0728  0.3762
  112MOL   O19642598   0.297   4.142   4.493  0.8754 -0.1356  0.5201
  112MOL   C19742599   0.182   4.068   4.504 -0.6633  0.6195 -0.0236
  112MOL   C19842600   0.127   4.024   4.625  0.3866  0.2600 -0.1791
  112MOL   C19942601   8.170   3.958   4.622  0.1814 -0.3215 -0.0261
  112MOL   C20042602   8.110   3.926   4.500  0.5210 -0.3733  0.5944
  112MOL   C20142603   8.169   3.962   4.381  0.1960 -0.1134 -0.1396
  112MOL   C20242604   0.119   4.036   4.381 -0.1265 -0.0463 -0.5564
  112MOL   H20342605   0.468   4.555   4.568 -2.7117  1.2467 -1.6567
  112MOL   H20442606   0.428   4.326   4.435  1.8446 -1.5754  1.6010
  112MOL   H20542607   0.236   4.272   4.645  0.9611  1.1568  1.0363
  112MOL   H20642608   0.400   4.191   4.667 -1.4638 -0.5106  1.8100
  112MOL   H20742609   0.174   4.041   4.720  1.2550 -2.8811  0.0288
  112MOL   H20842610   8.122   3.924   4.712 -0.5170  0.5036 -0.0736
  112MOL   H20942611   8.022   3.864   4.502  1.3425 -1.7203 -2.1358
  112MOL   H21042612   8.124   3.937   4.286  2.0382  0.5244 -1.2130
  112MOL   C21142613   0.181   4.079   4.250 -0.6162 -0.5645 -0.3006
  112MOL   C21242614   0.277   4.001   4.171 -0.3493  0.0695  0.4725
  112MOL   O21342615   0.142   4.004   4.138 -0.1061  0.1613  0.4913
  112MOL   C21442616   0.329   3.863   4.212  0.5593 -0.0354  0.8969
  112MOL   O21542617   0.376   3.790   4.090  0.0665 -0.0044 -0.3261
  112MOL   C21642618   0.418   3.658   4.097 -0.0099 -0.4649 -0.2031
  112MOL   C21742619   0.398   3.569   4.210 -0.2535  0.0185  0.7771
  112MOL   C21842620   0.449   3.437   4.207  0.5994 -0.4291 -0.4713
  112MOL   C21942621   0.513   3.390   4.093 -0.1540  0.8386 -0.1293
  112MOL   C22042622   0.537   3.475   3.987  0.1148  0.5042 -1.1150
  112MOL   C22142623   0.495   3.611   3.987  0.5412  0.6061 -0.2111
  112MOL   H22242624   0.186   4.188   4.241  1.3020 -0.6275 -0.1759
  112MOL   H22342625   0.338   4.047   4.094  1.4905  1.7002  2.8418
  112MOL   H22442626   0.255   3.805   4.267  1.4451  0.9630  3.2214
  112MOL   H22542627   0.412   3.872   4.282  0.3896 -0.9018  1.2229
  112MOL   H22642628   0.339   3.613   4.288  2.6892  2.7196  1.5931
  112MOL   H22742629   0.448   3.380   4.298 -0.4539 -0.3146 -0.4084
  112MOL   H22842630   0.556   3.291   4.086 -1.1894  0.3019  0.9823
  112MOL   H22942631   0.592   3.439   3.901 -3.3019 -3.4323 -1.8532
  112MOL   C23042632   0.531   3.705   3.875  0.1570  0.7341 -0.1973
  112MOL   C23142633   0.665   3.736   3.835  0.1690  0.7528  0.8274
  112MOL   O23242634   0.591   3.647   3.757 -0.4823 -0.5327  0.0909
  112MOL   C23342635   0.785   3.675   3.905  0.1235 -0.4455  0.4991
  112MOL   O23442636   0.904   3.721   3.847 -0.0649  0.6803 -0.1909
  112MOL   C23542637   0.937   3.679   3.715 -0.2840 -0.4189  0.0496
  112MOL   C23642638   0.891   3.557   3.661 -0.3433  0.9319  0.3678
  112MOL   C23742639   0.937   3.508   3.534 -0.3266  0.0375 -0.0427
  112MOL   C23842640   1.024   3.587   3.465 -0.4476 -0.3584  0.2690
  112MOL   C23942641   1.064   3.711   3.513  0.9199 -0.2527 -0.3579
  112MOL   C24042642   1.037   3.753   3.647 -0.2274  0.3270  1.1614
  112MOL   H24142643   0.465   3.791   3.860 -0.0231  0.5640 -0.3900
  112MOL   H24242644   0.675   3.834   3.790  0.6928 -0.4631 -1.8200
  112MOL   H24342645   0.783   3.567   3.912 -1.4373 -0.4676  0.0888
  112MOL   H24442646   0.784   3.712   4.007  0.2712  2.1400 -0.3912
  112MOL   H24542647   0.823   3.497   3.720  1.3945 -2.3149 -0.7886
  112MOL   H24642648   0.907   3.413   3.492 -1.2236  0.0931  0.4555
  112MOL   H24742649   1.072   3.561   3.371 -2.1609  2.2415 -1.3981
  112MOL   H24842650   1.138   3.758   3.451  0.3648  1.9828  0.6434
  112MOL   C24942651   1.116   3.867   3.716  0.1469  0.2544  0.4249
  112MOL   C25042652   1.218   3.848   3.827  0.1258 -0.2281 -0.4943
  112MOL   O25142653   1.259   3.860   3.693  0.1750 -0.3853  0.5198
  112MOL   C25242654   1.245   3.717   3.885  0.1304 -0.9298 -0.4055
  112MOL   O25342655   1.375   3.716   3.932  0.2331 -0.3468  0.1372
  112MOL   C25442656   1.473   3.684   3.845  0.1804 -0.1095  0.6719
  112MOL   C25542657   1.452   3.638   3.714 -0.0130  0.0317  0.7952
  112MOL   C25642658   1.564   3.630   3.626 -0.4242  0.3211  0.0996
  112MOL   C25742659   1.692   3.643   3.672 -0.7649  0.3285  0.2673
  112MOL   C25842660   1.718   3.690   3.801  0.4613  0.4302 -0.4875
  112MOL   C25942661   1.604   3.707   3.892 -0.0085 -0.3469 -0.0485
  112MOL   H26042662   1.088   3.966   3.680  2.5644  1.1622  0.9568
  112MOL   H26142663   1.240   3.940   3.882 -2.3421  1.0071 -1.4730
  112MOL   H26242664   1.218   3.638   3.815  0.8795 -0.6050 -1.0608
  112MOL   H26342665   1.180   3.696   3.970 -0.6786 -1.4718 -1.1544
  112MOL   H26442666   1.358   3.615   3.666  0.8713  1.9275 -1.9847
  112MOL   H26542667   1.539   3.582   3.532  0.3205 -0.3306  0.2343
  112MOL   H26642668   1.772   3.599   3.615 -1.1070  0.4522 -0.3137
  112MOL   H26742669   1.819   3.712   3.832 -0.4036  2.1152  1.2419
  112MOL   C26842670   1.631   3.757   4.036  0.3507 -0.7631  0.7165
  112MOL   C26942671   1.626   3.661   4.156  0.1802  0.7796  0.4625
  112MOL   O27042672   1.753   3.697   4.086 -0.4731 -0.4886  0.5242
  112MOL   C27142673   1.576   3.522   4.135  0.7031  0.1208  0.4320
  112MOL   O27242674   1.623   3.444   4.237  0.4922  0.3365 -0.8536
  112MOL   C27342675   1.604   3.305   4.237  0.2875  0.4234  0.2167
  112MOL   C27442676   1.588   3.233   4.118  0.1985 -0.6144  0.1932
  112MOL   C27542677   1.572   3.092   4.121  0.3114  0.3657 -0.0200
  112MOL   C27642678   1.576   3.014   4.243  0.2107  0.6833  0.0227
  112MOL   C27742679   1.610   3.087   4.361 -0.5367 -0.1764 -0.2061
  112MOL   C27842680   1.619   3.230   4.359  0.5171 -0.0511 -0.0236
  112MOL   H27942681   1.627   3.864   4.053  1.6814 -0.4257 -0.9276
  112MOL   H28042682   1.630   3.695   4.259 -1.0448 -0.9327  1.0726
  112MOL   H28142683   1.609   3.493   4.034  0.2590  1.1862 -0.0216
  112MOL   H28242684   1.467   3.517   4.138  0.6589  1.2875  0.6181
  112MOL   H28342685   1.596   3.285   4.024  0.6221  0.3237  0.7358
  112MOL   H28442686   1.562   3.032   4.032  2.1956 -0.5393  0.3490
  112MOL   H28542687   1.557   2.907   4.246  1.7706  0.4022  0.0651
  112MOL   H28642688   1.612   3.036   4.456 -3.2275  1.1988  0.6659
  112MOL   C28742689   1.640   3.306   4.488  0.4442  0.3374  0.3159
  112MOL   C28842690   1.529   3.364   4.563 -0.4996 -0.3312  0.7133
  112MOL   O28942691   1.579   3.234   4.599 -0.4993 -0.6439  0.4199
  112MOL   C29042692   1.389   3.363   4.508 -0.1666 -0.4348 -0.5094
  112MOL   O29142693   1.294   3.427   4.605  0.3829 -0.1711  0.3279
  112MOL   C29242694   1.260   3.367   4.721 -0.8223  0.0541 -0.0237
  112MOL   C29342695   1.260   3.225   4.736  0.2070 -0.6046  0.2127
  112MOL   C29442696   1.222   3.175   4.858 -0.1078 -0.2277  0.1848
  112MOL   C29542697   1.172   3.253   4.963 -0.2333 -1.1009 -0.6249
  112MOL   C29642698   1.171   3.396   4.946  0.1348 -1.1345 -0.5314
  112MOL   C29742699   1.213   3.450   4.818  0.3196 -0.7930 -0.1430
  112MOL   H29842700   1.740   3.343   4.511  0.2279  1.4231 -0.4449
  112MOL   H29942701   1.554   3.450   4.625 -0.9557 -0.3491  0.9266
  112MOL   H30042702   1.366   3.262   4.474  1.1201 -1.0435  0.4032
  112MOL   H30142703   1.400   3.429   4.422  1.2542 -0.1430 -0.1038
  112MOL   H30242704   1.278   3.152   4.658  0.9626 -1.6517  1.3517
  112MOL   H30342705   1.202   3.069   4.865 -1.6990  0.1294  1.4979
  112MOL   H30442706   1.141   3.209   5.056 -1.7553  1.3232  0.0818
  112MOL   H30542707   1.133   3.457   5.027  2.7879  2.7970 -2.1001
  112MOL   C30642708   1.222   3.609   4.799  0.4649  0.0339  0.0235
  112MOL   C30742709   1.111   3.702   4.776  0.1850  0.2194  0.3392
  112MOL   O30842710   1.170   3.683   4.915 -0.2910 -0.0153  0.0845
  112MOL   C30942711   0.967   3.661   4.763  0.2625  0.3162  0.1367
  112MOL   O31042712   0.937   3.625   4.628  0.1611  0.4474 -0.1886
  112MOL   C31142713   0.805   3.625   4.594  0.4154  0.0223 -0.1942
  112MOL   C31242714   0.707   3.566   4.676  0.5253 -0.7501  0.0561
  112MOL   C31342715   0.572   3.568   4.639 -0.5166  0.4425 -0.2210
  112MOL   C31442716   0.538   3.621   4.510 -1.0278  0.3458  0.4440
  112MOL   C31542717   0.636   3.670   4.427  0.1762  0.3533  0.3309
  112MOL   C31642718   0.770   3.679   4.468 -0.7365 -0.3110 -0.3455
  112MOL   H31742719   1.321   3.635   4.763  0.5926  0.2822  0.5323
  112MOL   H31842720   1.135   3.799   4.731  0.3973 -0.5081 -1.1492
  112MOL   H31942721   0.911   3.747   4.798  1.2235  0.6483  0.8603
  112MOL   H32042722   0.947   3.578   4.831 -2.1295 -0.8353 -1.8609
  112MOL   H32142723   0.739   3.509   4.762 -0.8315 -0.9268  0.4587
  112MOL   H32242724   0.492   3.520   4.693 -0.9077  0.1466 -1.0473
  112MOL   H32342725   0.434   3.623   4.479 -0.1857 -1.0636 -2.6745
  112MOL   H32442726   0.617   3.699   4.325  0.3764  2.1369  0.7879
  112MOL   C32542727   0.875   3.747   4.379 -0.2882 -0.0191  0.0014
  112MOL   C32642728   0.989   3.672   4.319 -0.2308  0.2580 -0.3927
  112MOL   O32742729   0.875   3.695   4.248  0.6497  0.6334 -0.0683
  112MOL   C32842730   1.016   3.531   4.352 -0.2680  0.4304  0.7353
  112MOL   O32942731   1.085   3.462   4.247 -0.0473 -0.3699 -0.2822
  112MOL   C33042732   1.064   3.323   4.225 -0.3496 -0.0894  0.3268
  112MOL   C33142733   1.017   3.233   4.320  0.3495 -0.0497 -0.1003
  112MOL   C33242734   0.979   3.100   4.290  0.0235 -0.2616 -1.0668
  112MOL   C33342735   1.012   3.056   4.164 -0.1019 -0.0240 -0.4479
  112MOL   C33442736   1.064   3.139   4.067  0.3979 -0.1780 -0.1004
  112MOL   C33542737   1.086   3.273   4.094  0.7798 -0.0392 -0.3584
  112MOL   H33642738   0.860   3.854   4.368 -0.3279 -0.0682 -0.4503
  112MOL   H33742739   1.064   3.740   4.279 -1.5103 -0.2419 -3.8503
  112MOL   H33842740   0.923   3.477   4.370 -1.1214  0.0491 -4.2456
  112MOL   H33942741   1.074   3.525   4.445  1.3631 -1.0314 -0.3452
  112MOL   H34042742   0.990   3.280   4.413 -1.6257  2.2780 -1.7789
  112MOL   H34142743   0.936   3.034   4.364  1.7973  0.4627  0.6685
  112MOL   H34242744   0.995   2.951   4.144 -2.9051  0.5841 -1.4291
  112MOL   H34342745   1.086   3.094   3.971  2.9258 -0.0857  0.4058
  112MOL   C34442746   1.135   3.371   3.984  0.2849 -0.4724 -0.0488
  112MOL   C34542747   1.249   3.342   3.878 -0.3243 -0.7683 -0.5235
  112MOL   O34642748   1.106   3.323   3.849  0.1789 -0.2572 -0.0978
  112MOL   C34742749   1.333   3.221   3.883 -0.2193  0.3889 -0.6030
  112MOL   O34842750   1.444   3.238   3.796  0.3334  0.3323 -0.0900
  112MOL   C34942751   1.433   3.250   3.655  0.3762 -0.8776 -0.6583
  112MOL   C35042752   1.312   3.264   3.582  0.5364  0.0341 -0.7944
  112MOL   C35142753   1.311   3.289   3.444  0.9851 -0.1484 -0.0727
  112MOL   C35242754   1.430   3.300   3.374  0.0117  0.4772 -1.1385
  112MOL   C35342755   1.551   3.295   3.441  0.0189  0.0842 -0.4266
  112MOL   C35442756   1.555   3.270   3.587  0.1342  0.0727  0.2719
  112MOL   H35542757   1.114   3.475   4.004 -0.7999 -0.4258 -1.3607
  112MOL   H35642758   1.295   3.431   3.835 -1.0366 -0.6491 -1.0462
  112MOL   H35742759   1.276   3.130   3.863 -0.2890  0.0313  1.1898
  112MOL   H35842760   1.366   3.209   3.986  1.1244  2.7531 -0.7193
  112MOL   H35942761   1.219   3.246   3.635  0.6805  1.1570 -0.1377
  112MOL   H36042762   1.217   3.287   3.391  0.6325  2.1864  0.3851
  112MOL   H36142763   1.438   3.330   3.271  2.5140  0.1081 -1.0963
  112MOL   H36242764   1.637   3.309   3.377  0.6588 -0.2366  0.3578
  112MOL   C36342765   1.684   3.270   3.663 -0.5360  0.3701 -0.5453
  112MOL   C36442766   1.805   3.180   3.640  0.0259  0.6783  0.2683
  112MOL   O36542767   1.810   3.314   3.597 -0.0895  0.4414  0.3640
  112MOL   C36642768   1.795   3.070   3.537  0.5785  0.3659  0.1050
  112MOL   O36742769   1.925   3.005   3.534 -0.0121 -0.2000  0.0110
  112MOL   C36842770   2.020   3.063   3.452  0.6402 -0.6284  0.8905
  112MOL   C36942771   2.142   2.997   3.429  0.4000  0.2722 -1.0092
  112MOL   C37042772   2.249   3.053   3.359  0.0781  0.6499  0.4233
  112MOL   C37142773   2.228   3.169   3.298  0.3014 -0.2506 -0.0744
  112MOL   C37242774   2.108   3.240   3.305  0.6092  1.0585  0.0392
  112MOL   C37342775   1.997   3.177   3.375 -0.3656 -0.2833  0.0909
  112MOL   H37442776   1.670   3.324   3.755  1.4300  1.8600 -1.0776
  112MOL   H37542777   1.879   3.160   3.717  2.3835  1.4514 -1.7379
  112MOL   H37642778   1.753   3.096   3.440 -1.6116  0.6344  1.0984
  112MOL   H37742779   1.722   2.994   3.565 -0.9648 -0.4917 -5.5915
  112MOL   H37842780   2.175   2.923   3.500 -1.5172  0.2753 -0.0908
  112MOL   H37942781   2.349   3.014   3.373  0.4202  1.7873  1.1947
  112MOL   H38042782   2.308   3.210   3.237 -1.0108  0.2541 -1.4815
  112MOL   H38142783   2.097   3.337   3.260  1.3411  0.4364 -1.5646
  112MOL   H38242784   1.909   3.240   3.367 -0.5207 -0.4999  0.0850
  113MOL     C142785   6.128   0.527   0.317 -0.0516  0.3140 -0.1243
  113MOL     C242786   6.092   0.610   0.445 -0.0849 -0.0714  0.7637
  113MOL     O342787   6.203   0.524   0.436  0.3078  0.2932 -0.1680
  113MOL     C442788   5.978   0.576   0.533 -0.4880  0.1944  0.3834
  113MOL     O542789   5.993   0.615   0.669 -0.3342  0.5686 -0.0891
  113MOL     C642790   5.880   0.620   0.747  0.2339  0.1879 -0.9502
  113MOL     C742791   5.750   0.586   0.704  1.4622 -0.1560 -1.0168
  113MOL     C842792   5.643   0.599   0.798  0.2618 -0.1306  0.0225
  113MOL     C942793   5.660   0.639   0.934 -0.1493  0.4558 -0.1695
  113MOL    C1042794   5.791   0.676   0.968  0.1116  0.0439 -0.7105
  113MOL    C1142795   5.902   0.662   0.883  0.1886 -0.6475  0.5108
  113MOL    H1242796   6.152   0.587   0.229 -0.1188  1.7292  0.8071
  113MOL    H1342797   6.125   0.714   0.452 -0.8086  0.2977 -0.8935
  113MOL    H1442798   5.947   0.473   0.513 -1.5282  0.5386  0.1816
  113MOL    H1542799   5.902   0.632   0.479 -0.9961  1.3072  2.1743
  113MOL    H1642800   5.734   0.551   0.603  2.4699 -1.9042 -0.5882
  113MOL    H1742801   5.540   0.584   0.768  0.7422 -0.6427 -1.4085
  113MOL    H1842802   5.573   0.667   0.991  0.2756 -1.5273  1.5079
  113MOL    H1942803   5.807   0.708   1.070 -0.2356 -0.5460 -0.4719
  113MOL    H2042804   6.074   0.438   0.287  1.3167  0.1522 -2.1674
  113MOL    C2142805   6.033   0.681   0.957  0.2202  0.5812 -0.1352
  113MOL    C2242806   6.135   0.777   0.911 -0.1797 -0.3312  0.2538
  113MOL    O2342807   6.046   0.806   1.025  0.0497 -0.0169 -0.2180
  113MOL    C2442808   6.131   0.876   0.801 -0.5073 -0.5971  0.8382
  113MOL    O2542809   6.247   0.962   0.819 -0.0636 -0.1429 -0.5154
  113MOL    C2642810   6.372   0.926   0.768 -0.1409 -0.4697  0.2012
  113MOL    C2742811   6.381   0.826   0.664  0.1953 -0.1489  0.0467
  113MOL    C2842812   6.508   0.781   0.617  0.1622 -0.0043  0.3126
  113MOL    C2942813   6.620   0.824   0.684 -0.3269  0.5515 -0.3387
  113MOL    C3042814   6.611   0.923   0.786  0.0671  0.5179 -0.3119
  113MOL    C3142815   6.490   0.977   0.829 -0.0682 -0.5772  0.0857
  113MOL    H3242816   6.059   0.600   1.024 -1.4283  1.0793  1.1369
  113MOL    H3342817   6.234   0.747   0.943  0.3039 -0.2001 -1.0726
  113MOL    H3442818   6.043   0.940   0.810 -0.2787  0.0435 -1.1783
  113MOL    H3542819   6.120   0.832   0.702 -1.7550 -0.9338  1.1233
  113MOL    H3642820   6.298   0.775   0.617 -0.9240  2.2790 -0.6978
  113MOL    H3742821   6.512   0.693   0.554  0.1553  0.3740 -0.2189
  113MOL    H3842822   6.716   0.782   0.657  0.0118 -0.1378  1.8686
  113MOL    H3942823   6.699   0.953   0.840  0.4735 -3.7479  1.5865
  113MOL    C4042824   6.484   1.089   0.931  0.0888 -0.4326  0.3651
  113MOL    C4142825   6.471   1.074   1.078  0.2211  0.2076  0.0915
  113MOL    O4242826   6.593   1.096   1.017 -0.3174 -0.2486  0.0117
  113MOL    C4342827   6.453   0.940   1.138  0.0515 -0.0666 -0.7195
  113MOL    O4442828   6.428   0.973   1.283 -0.0545 -0.2084  0.3051
  113MOL    C4542829   6.390   0.864   1.362  0.3234 -0.1123  0.7146
  113MOL    C4642830   6.383   0.729   1.309 -0.4258 -0.3157  0.4591
  113MOL    C4742831   6.332   0.624   1.386 -0.1297 -0.2611  0.0905
  113MOL    C4842832   6.288   0.650   1.517  0.2109 -0.4311 -0.6455
  113MOL    C4942833   6.283   0.786   1.563  0.1298 -0.3287 -0.4589
  113MOL    C5042834   6.335   0.893   1.488 -0.7158 -0.3526 -0.1886
  113MOL    H5142835   6.442   1.184   0.896 -3.9501 -1.6780  1.5164
  113MOL    H5242836   6.419   1.161   1.119  1.0762  0.3351  0.9151
  113MOL    H5342837   6.545   0.883   1.138 -0.7292 -1.4162  1.6423
  113MOL    H5442838   6.369   0.883   1.097 -0.8196 -0.5461  1.6324
  113MOL    H5542839   6.441   0.708   1.220 -0.2668 -1.6931  0.8731
  113MOL    H5642840   6.337   0.524   1.346 -0.9536  0.1717 -1.1207
  113MOL    H5742841   6.254   0.569   1.580  1.7958  1.1876  2.4126
  113MOL    H5842842   6.250   0.801   1.664  0.9497 -0.2448 -0.2035
  113MOL    C5942843   6.351   1.034   1.533  0.2689 -0.1784 -0.2526
  113MOL    C6042844   6.250   1.114   1.609  0.3381 -0.7548  0.2196
  113MOL    O6142845   6.357   1.048   1.674 -0.2198  0.0231  0.7509
  113MOL    C6242846   6.106   1.069   1.637  0.4995  0.2363  0.4875
  113MOL    O6342847   6.057   1.017   1.515  0.5073  0.2167 -0.3928
  113MOL    C6442848   5.926   1.034   1.501  0.2135  0.2293  0.5054
  113MOL    C6542849   5.839   1.003   1.607  0.2216 -0.0997  1.0809
  113MOL    C6642850   5.702   1.038   1.608  0.5631  0.2493  0.2219
  113MOL    C6742851   5.642   1.084   1.491 -0.0482 -0.0393  0.1781
  113MOL    C6842852   5.721   1.101   1.377  0.0022 -0.1467  1.1000
  113MOL    C6942853   5.864   1.074   1.377 -0.6651 -0.2758  0.1496
  113MOL    H7042854   6.425   1.089   1.475  1.6949 -0.7244  1.0042
  113MOL    H7142855   6.264   1.216   1.575 -0.1946 -0.8630 -0.3505
  113MOL    H7242856   6.051   1.156   1.673 -0.7225 -0.4992  0.4192
  113MOL    H7342857   6.108   0.992   1.714  0.3388 -1.6332 -1.3787
  113MOL    H7442858   5.887   0.964   1.696  1.4917 -2.1173 -0.4369
  113MOL    H7542859   5.640   1.015   1.694  0.2019  0.6187  0.0647
  113MOL    H7642860   5.538   1.112   1.480  0.1478 -0.0116 -1.7771
  113MOL    H7742861   5.672   1.149   1.293 -0.1876 -0.2734  1.1398
  113MOL    C7842862   5.944   1.085   1.248 -0.1881  0.5085  0.1805
  113MOL    C7942863   5.999   1.222   1.198  0.8651 -0.5749  0.0852
  113MOL    O8042864   6.080   1.129   1.264  0.2907  0.4069 -0.6322
  113MOL    C8142865   5.949   1.345   1.272  0.5057  0.0980 -0.3702
  113MOL    O8242866   6.003   1.460   1.211 -0.2563  0.3150 -0.2633
  113MOL    C8342867   6.122   1.513   1.263 -0.2628  0.1631  0.1414
  113MOL    C8442868   6.220   1.439   1.333 -0.1907 -0.1288 -0.2448
  113MOL    C8542869   6.343   1.493   1.383  0.4891 -0.4163 -0.4139
  113MOL    C8642870   6.370   1.626   1.355  0.4815 -0.6479 -0.3645
  113MOL    C8742871   6.278   1.702   1.287  0.0925 -0.2647 -0.1631
  113MOL    C8842872   6.154   1.653   1.244  0.1687 -0.1425  0.0667
  113MOL    H8942873   5.945   0.988   1.198 -1.4253 -0.2792  1.6415
  113MOL    H9042874   6.040   1.233   1.098  0.7110 -2.4086 -0.2026
  113MOL    H9142875   5.979   1.326   1.376 -3.1304 -0.2172  0.6704
  113MOL    H9242876   5.842   1.342   1.257  0.3992  2.5522 -0.3575
  113MOL    H9342877   6.207   1.335   1.361  1.9761 -1.1341 -2.7861
  113MOL    H9442878   6.425   1.438   1.424  0.4379 -0.4544 -0.3629
  113MOL    H9542879   6.469   1.660   1.382  0.2187 -1.4669  1.7321
  113MOL    H9642880   6.300   1.807   1.273 -1.6203 -0.1249 -1.9381
  113MOL    C9742881   6.068   1.741   1.170 -0.2037  0.6032  0.2872
  113MOL    C9842882   5.939   1.800   1.238  0.2520 -0.0871 -0.1251
  113MOL    O9942883   6.064   1.870   1.233 -0.0405  0.9623 -0.2886
  113MOL   C10042884   5.901   1.755   1.380 -0.0515  0.0341 -0.0129
  113MOL   O10142885   5.779   1.814   1.413  0.2882  0.0534 -0.4204
  113MOL   C10242886   5.660   1.752   1.376  0.0121  0.0161  0.4157
  113MOL   C10342887   5.653   1.612   1.345  0.0735  0.7886  0.3066
  113MOL   C10442888   5.528   1.566   1.306 -0.5806  0.5317  0.5555
  113MOL   C10542889   5.407   1.646   1.312  0.7791  0.4633  1.3188
  113MOL   C10642890   5.422   1.777   1.343  0.8327 -0.1122  0.1419
  113MOL   C10742891   5.548   1.836   1.377  0.9734 -0.0797 -0.2116
  113MOL   H10842892   6.083   1.754   1.063 -1.7726 -1.3873 -0.1989
  113MOL   H10942893   5.866   1.858   1.182  1.6513  1.5486 -0.3145
  113MOL   H11042894   5.975   1.774   1.457 -0.1264 -1.5730  0.4899
  113MOL   H11142895   5.903   1.646   1.393  1.3037  0.4028  3.4217
  113MOL   H11242896   5.732   1.539   1.358 -0.4234  0.2493  0.3244
  113MOL   H11342897   5.520   1.459   1.290  1.8198  0.3714  0.1669
  113MOL   H11442898   5.314   1.601   1.283  1.6840 -0.9019  0.4730
  113MOL   H11542899   5.330   1.834   1.347  1.7216  1.2589  1.5975
  113MOL   C11642900   5.547   1.977   1.424 -0.2682 -0.0352  0.3447
  113MOL   C11742901   5.574   2.100   1.341 -0.2601  0.3038  0.2978
  113MOL   O11842902   5.441   2.057   1.378 -0.2290 -0.2253 -0.0585
  113MOL   C11942903   5.601   2.101   1.194  0.2114  0.0863 -0.5368
  113MOL   O12042904   5.664   2.221   1.144 -0.1795  0.0234  0.1000
  113MOL   C12142905   5.596   2.341   1.143  0.2687 -0.1510 -0.4036
  113MOL   C12242906   5.469   2.362   1.203 -0.7626  0.3294  0.0052
  113MOL   C12342907   5.397   2.479   1.204  0.3430  0.2329 -0.1252
  113MOL   C12442908   5.464   2.590   1.141 -0.9263  0.1679  0.2858
  113MOL   C12542909   5.587   2.575   1.078  0.1766  0.1493 -0.2478
  113MOL   C12642910   5.649   2.449   1.079 -0.2783 -0.6198 -0.3363
  113MOL   H12742911   5.566   1.984   1.531  0.4951 -1.2361  0.3073
  113MOL   H12842912   5.598   2.195   1.388 -2.4258  0.1710  1.7673
  113MOL   H12942913   5.503   2.081   1.152  0.7270 -1.1153 -1.1971
  113MOL   H13042914   5.661   2.012   1.172  0.7603 -0.0964  1.5679
  113MOL   H13142915   5.425   2.282   1.261  0.8444 -1.2940 -0.9378
  113MOL   H13242916   5.295   2.488   1.239  0.6440 -1.1654  1.1977
  113MOL   H13342917   5.418   2.687   1.138  0.4808  0.8117 -1.0074
  113MOL   H13442918   5.642   2.657   1.032  0.7657 -1.1254 -1.8783
  113MOL   C13542919   5.787   2.447   1.014 -0.9525 -0.0363 -0.2343
  113MOL   C13642920   5.812   2.371   0.882 -0.0927 -1.1227 -0.3165
  113MOL   O13742921   5.780   2.515   0.879  0.2715  0.3505  0.1097
  113MOL   C13842922   5.715   2.277   0.810 -0.2353 -0.7315  0.6917
  113MOL   O13942923   5.760   2.236   0.680 -0.2591  0.1441 -0.2982
  113MOL   C14042924   5.703   2.313   0.584 -0.0389 -0.6324  0.0299
  113MOL   C14142925   5.635   2.437   0.607 -1.5196  0.2313 -0.1294
  113MOL   C14242926   5.580   2.515   0.501  0.2253 -0.0285 -0.9317
  113MOL   C14342927   5.592   2.468   0.366  0.4283  0.1426 -0.6659
  113MOL   C14442928   5.657   2.345   0.341 -0.2815 -0.2237 -0.6272
  113MOL   C14542929   5.719   2.272   0.446  0.2315  0.6707 -0.4263
  113MOL   H14642930   5.873   2.474   1.075 -0.7451  0.1280 -0.5934
  113MOL   H14742931   5.916   2.351   0.854  0.1607  0.7322 -0.7497
  113MOL   H14842932   5.613   2.314   0.815  0.7967  2.3806 -0.2520
  113MOL   H14942933   5.713   2.187   0.871 -1.9315 -0.2893  1.3021
  113MOL   H15042934   5.620   2.483   0.703 -2.6477  1.3083 -0.7921
  113MOL   H15142935   5.542   2.613   0.527 -0.4278  0.3883 -3.3104
  113MOL   H15242936   5.551   2.526   0.285  0.4195  1.1445  0.0575
  113MOL   H15342937   5.681   2.313   0.241  1.0410 -1.8473  0.1711
  113MOL   C15442938   5.784   2.143   0.423  1.0757  0.0391  1.2454
  113MOL   C15542939   5.710   2.012   0.388 -0.1006  0.5245  0.6981
  113MOL   O15642940   5.751   2.097   0.289  0.4373  0.5019 -0.4720
  113MOL   C15742941   5.560   1.996   0.382 -0.4177 -0.4888  0.7673
  113MOL   O15842942   5.515   1.904   0.279 -0.0289  0.4000 -0.0697
  113MOL   C15942943   5.382   1.904   0.243  0.4152  0.6153 -0.2507
  113MOL   C16042944   5.296   2.013   0.251  0.1796 -0.1045 -0.3401
  113MOL   C16142945   5.173   2.009   0.193 -0.2430 -0.2322 -0.1333
  113MOL   C16242946   5.121   1.889   0.133  0.5513 -0.1856  0.9656
  113MOL   C16342947   5.209   1.779   0.119  0.1945  0.0491 -0.2745
  113MOL   C16442948   5.342   1.786   0.175  0.8590  0.4903 -0.1968
  113MOL   H16542949   5.890   2.135   0.446  1.4597  1.4462  0.0775
  113MOL   H16642950   5.764   1.918   0.400  0.1349  0.9232  3.2281
  113MOL   H16742951   5.520   2.095   0.360 -2.1002 -1.3233  0.0314
  113MOL   H16842952   5.520   1.980   0.482 -1.7100 -1.1387  0.1536
  113MOL   H16942953   5.324   2.110   0.287 -0.0920  0.7270 -2.3188
  113MOL   H17042954   5.115   2.100   0.200 -1.0926 -0.5281 -2.5695
  113MOL   H17142955   5.021   1.878   0.092  1.4360  0.7558 -1.4998
  113MOL   H17242956   5.168   1.685   0.087 -2.2012  1.3950 -1.2844
  113MOL   C17342957   5.430   1.656   0.179 -0.2970 -0.0410  0.7236
  113MOL   C17442958   5.448   1.561   0.299  0.5637  0.8052 -0.1812
  113MOL   O17542959   5.350   1.539   0.198  0.0385 -0.2191 -0.4868
  113MOL   C17642960   5.392   1.593   0.438  0.2608 -0.5554 -0.5206
  113MOL   O17742961   5.330   1.482   0.495 -0.4458 -0.5063 -0.1038
  113MOL   C17842962   5.288   1.494   0.633  0.4993  0.7072  0.5579
  113MOL   C17942963   5.380   1.547   0.724  0.2559 -0.6972 -0.2431
  113MOL   C18042964   5.342   1.569   0.858 -0.9182  0.2866  0.6735
  113MOL   C18142965   5.206   1.538   0.900  0.0306 -0.4262 -0.3554
  113MOL   C18242966   5.116   1.480   0.818 -0.1422 -0.0356  0.1568
  113MOL   C18342967   5.154   1.457   0.677 -0.0927  0.1128  0.8370
  113MOL   H18442968   5.481   1.638   0.085  1.5675  0.0045  1.7001
  113MOL   H18542969   5.523   1.482   0.296  1.5447  1.7376 -1.4435
  113MOL   H18642970   5.313   1.666   0.422 -0.6912 -1.1265  1.3732
  113MOL   H18742971   5.468   1.645   0.497 -0.3704  1.2375 -1.2722
  113MOL   H18842972   5.476   1.582   0.689 -1.0270  1.2565 -1.9264
  113MOL   H18942973   5.420   1.594   0.928  1.0451 -0.4649 -1.1855
  113MOL   H19042974   5.180   1.563   1.002 -1.0674 -0.8925 -0.5169
  113MOL   H19142975   5.011   1.467   0.841  0.2953 -2.9683  0.7495
  113MOL   C19242976   5.053   1.392   0.593 -0.2007 -0.4420  0.1504
  113MOL   C19342977   5.054   1.241   0.555 -0.1698  0.2735  0.3946
  113MOL   O19442978   4.973   1.292   0.661 -0.1309  0.1617 -0.1831
  113MOL   C19542979   5.159   1.143   0.604  0.3974 -0.0428  0.3467
  113MOL   O19642980   5.113   1.005   0.622  0.0321 -0.3221 -0.3243
  113MOL   C19742981   5.191   0.909   0.685 -0.0185  0.0176 -0.2288
  113MOL   C19842982   5.329   0.926   0.711  0.1017 -0.1236 -0.8050
  113MOL   C19942983   5.401   0.825   0.784  0.2527  0.2432  0.2923
  113MOL   C20042984   5.323   0.718   0.838  0.2523 -0.1195 -0.2455
  113MOL   C20142985   5.192   0.700   0.802  1.5507 -0.2034 -0.8110
  113MOL   C20242986   5.122   0.792   0.722  0.3452 -0.0034 -0.4918
  113MOL   H20342987   4.991   1.465   0.542  0.2231 -0.5640 -0.5436
  113MOL   H20442988   4.998   1.206   0.469  0.4390  1.6816 -0.6024
  113MOL   H20542989   5.194   1.175   0.702 -1.8348  1.6868  0.6080
  113MOL   H20642990   5.243   1.143   0.535  0.4029 -1.9018  0.3207
  113MOL   H20742991   5.382   1.020   0.700  0.1643  0.0502  0.9622
  113MOL   H20842992   5.508   0.834   0.798  0.7870 -0.8204 -2.6325
  113MOL   H20942993   5.379   0.646   0.895  0.7361  0.4759  0.0322
  113MOL   H21042994   5.142   0.606   0.825  2.5086 -0.5309 -0.0148
  113MOL   C21142995   4.978   0.758   0.688 -0.3465  0.4356 -0.6372
  113MOL   C21242996   4.914   0.732   0.545 -0.1761 -0.3405 -0.3469
  113MOL   O21342997   4.962   0.624   0.637 -0.2794  0.0417  0.5692
  113MOL   C21442998   4.997   0.748   0.422  0.3944  0.8299  0.1217
  113MOL   O21542999   4.931   0.707   0.301  0.3178 -0.1913 -0.4184
  113MOL   C21643000   4.927   0.571   0.272  0.4160  0.9085 -0.2570
  113MOL   C21743001   4.977   0.467   0.349  0.0627  0.3284  0.1050
  113MOL   C21843002   4.971   0.329   0.311  0.8054  0.8151 -0.2425
  113MOL   C21943003   4.934   0.295   0.178 -0.4176  1.1278  0.5981
  113MOL   C22043004   4.880   0.403   0.102  0.2755 -0.5273  0.4726
  113MOL   C22143005   4.869   0.537   0.145 -0.7234  0.0053  0.5827
  113MOL   H22243006   4.904   0.797   0.757 -0.1988  1.0614 -0.8262
  113MOL   H22343007   4.806   0.746   0.538 -0.1267 -0.4702 -1.5391
  113MOL   H22443008   5.080   0.678   0.428 -1.2159 -1.2018 -0.9611
  113MOL   H22543009   5.047   0.844   0.406  3.0715 -0.5324  0.0642
  113MOL   H22643010   5.020   0.484   0.446 -0.4253 -0.1912  0.4140
  113MOL   H22743011   5.001   0.244   0.370  0.8767 -1.2942 -3.2227
  113MOL   H22843012   4.944   0.196   0.136 -0.3441  1.5959 -0.4918
  113MOL   H22943013   4.839   0.381   0.005  0.6999  1.0346 -0.0623
  113MOL   C23043014   4.836   0.655   0.055  0.4241 -0.1468  0.7582
  113MOL   C23143015   4.938   0.725   8.144 -0.0517  0.6822  0.1597
  113MOL   O23243016   4.864   0.613   8.087  0.0821 -0.1966 -0.3817
  113MOL   C23343017   5.086   0.695   8.156 -0.7928  0.6904  0.5565
  113MOL   O23443018   5.156   0.773   8.061 -0.2116 -0.4296 -0.0124
  113MOL   C23543019   5.231   0.706   7.976 -0.4400 -0.4642  0.5257
  113MOL   C23643020   5.317   0.603   8.017  0.4111  0.2242 -0.1821
  113MOL   C23743021   5.401   0.540   7.931  0.3460 -0.2174  0.0274
  113MOL   C23843022   5.411   0.590   7.802  0.4070 -0.1063  0.3237
  113MOL   C23943023   5.330   0.694   7.759  0.4263  0.5370 -0.2488
  113MOL   C24043024   5.236   0.754   7.846  0.7720 -0.2147  0.6817
  113MOL   H24143025   4.743   0.708   0.077  1.0015  0.9273  0.6409
  113MOL   H24243026   4.923   0.824   8.101 -0.0400  1.1399  1.2077
  113MOL   H24343027   5.103   0.588   8.156 -3.3001  0.2659  0.1374
  113MOL   H24443028   5.134   0.717   0.081 -0.1798 -1.8047  0.8473
  113MOL   H24543029   5.303   0.572   8.119 -0.0452  0.0724 -0.2894
  113MOL   H24643030   5.470   0.459   7.952  0.8463 -0.0251 -0.8425
  113MOL   H24743031   5.480   0.551   7.730  2.4726  0.4310  1.9736
  113MOL   H24843032   5.340   0.721   7.655 -0.7787  2.0632  0.0149
  113MOL   C24943033   5.148   0.868   7.802 -0.1241  0.2757  0.1790
  113MOL   C25043034   5.192   1.008   7.809 -0.3340  0.3313  0.4655
  113MOL   O25143035   5.203   0.934   7.684 -0.1113  0.6111 -0.2502
  113MOL   C25243036   5.322   1.041   7.875  0.5812  0.6342  0.6628
  113MOL   O25343037   5.324   1.183   7.888  0.2284 -0.5538 -0.3727
  113MOL   C25443038   5.436   1.237   7.943  0.4960  0.4796  0.4877
  113MOL   C25543039   5.518   1.171   8.041 -0.1045  0.4400 -0.5487
  113MOL   C25643040   5.636   1.226   8.084  0.2428  0.3699  0.3135
  113MOL   C25743041   5.678   1.355   8.047  0.5029 -0.4541 -0.4187
  113MOL   C25843042   5.591   1.425   7.957 -0.6089  0.3856  0.2047
  113MOL   C25943043   5.471   1.371   7.909 -0.0559  0.1831  0.1681
  113MOL   H26043044   5.040   0.856   7.811 -0.4438  1.4106 -1.8386
  113MOL   H26143045   5.115   1.085   7.815  1.4305  2.1401  0.6964
  113MOL   H26243046   5.406   1.008   7.814  0.6666 -0.4091  1.3234
  113MOL   H26343047   5.324   0.982   7.967 -0.2633 -0.8342 -0.2331
  113MOL   H26443048   5.498   1.071   8.075  0.6920  1.4835  3.2119
  113MOL   H26543049   5.697   1.176   8.157  0.7647 -2.6038 -2.0638
  113MOL   H26643050   5.765   1.407   8.083 -1.6192  1.5381  1.9584
  113MOL   H26743051   5.629   1.522   7.926 -1.7991  0.6321 -0.5165
  113MOL   C26843052   5.386   1.444   7.802 -1.5280 -0.4671  0.1015
  113MOL   C26943053   5.285   1.557   7.829  0.4607 -0.5172  0.4392
  113MOL   O27043054   5.415   1.581   7.772  0.2494 -0.2988 -0.3662
  113MOL   C27143055   5.257   1.625   7.962 -0.1316 -0.0490  0.2733
  113MOL   O27243056   5.237   1.764   7.950  0.4080  0.4819 -0.3525
  113MOL   C27343057   5.121   1.819   7.896 -1.3682 -0.1280 -1.0853
  113MOL   C27443058   5.006   1.746   7.864 -0.0994  0.1379  0.7645
  113MOL   C27543059   4.889   1.810   7.826  0.0818 -0.3011 -0.2188
  113MOL   C27643060   4.900   1.950   7.803  0.0862  0.7046 -0.3618
  113MOL   C27743061   5.013   2.027   7.834  0.0454 -0.7761  0.9386
  113MOL   C27843062   5.124   1.961   7.877 -0.3658  0.0000 -0.1451
  113MOL   H27943063   5.366   1.377   7.719  2.1113  0.0924 -1.3125
  113MOL   H28043064   5.208   1.595   7.762 -1.5323 -2.0854  1.7907
  113MOL   H28143065   5.331   1.594   8.036  1.5394 -0.5772 -1.5631
  113MOL   H28243066   5.159   1.594   7.997 -0.3100  0.6772  0.4301
  113MOL   H28343067   5.006   1.638   7.865 -1.0992  0.1415  0.8672
  113MOL   H28443068   4.804   1.747   7.803 -1.4009  1.3623  0.6172
  113MOL   H28543069   4.816   2.002   7.758  1.0447  0.8730 -2.0075
  113MOL   H28643070   5.005   2.133   7.817 -1.7903 -1.0797 -0.2366
  113MOL   C28743071   5.247   2.033   7.926 -0.3263 -0.0689 -0.6151
  113MOL   C28843072   5.360   2.083   7.825  0.3760  0.1119  0.1694
  113MOL   O28943073   5.255   2.168   7.868  0.6517 -0.4469 -0.2495
  113MOL   C29043074   5.359   2.032   7.682  0.0766  0.4160 -0.0431
  113MOL   O29143075   5.468   2.081   7.601 -0.7749  0.7139 -0.1795
  113MOL   C29243076   5.462   2.199   7.532 -0.0085 -0.4616 -0.6883
  113MOL   C29343077   5.397   2.314   7.589  0.0486 -0.8664  0.1903
  113MOL   C29443078   5.384   2.432   7.516  0.0519 -0.3532  0.8750
  113MOL   C29543079   5.431   2.445   7.385  0.2256 -0.3029 -0.7144
  113MOL   C29643080   5.504   2.339   7.329  0.2944  0.5865  0.2656
  113MOL   C29743081   5.520   2.216   7.402 -0.3781  0.2081 -0.4689
  113MOL   H29843082   5.255   2.038   8.034  2.0786  1.3477 -0.8238
  113MOL   H29943083   5.454   2.129   7.854  0.4204  0.1310 -0.0048
  113MOL   H30043084   5.267   2.050   7.627  2.0580  1.7546 -3.0745
  113MOL   H30143085   5.377   1.925   7.696 -0.9705  0.1466 -0.7019
  113MOL   H30243086   5.359   2.306   7.690 -2.9152  0.1124 -0.7866
  113MOL   H30343087   5.339   2.517   7.565 -0.1424  1.7192 -2.7343
  113MOL   H30443088   5.435   2.535   7.325 -0.0170 -0.6605 -1.2688
  113MOL   H30543089   5.540   2.355   7.228  4.0351  0.2124  1.5014
  113MOL   C30643090   5.602   2.106   7.339 -0.4180 -0.0795  0.7696
  113MOL   C30743091   5.564   2.017   7.223  0.4028 -0.5461  0.5971
  113MOL   O30843092   5.650   2.127   7.205  0.1682  0.6436 -0.5967
  113MOL   C30943093   5.428   2.028   7.158 -0.1672 -0.3957  0.0234
  113MOL   O31043094   5.424   1.962   7.028  0.2310  0.6130  0.2750
  113MOL   C31143095   5.310   1.959   6.949  0.2945 -0.3331  0.4708
  113MOL   C31243096   5.189   2.020   6.992 -0.1507  0.3242  0.3366
  113MOL   C31343097   5.073   2.020   6.907 -0.1209  0.0717  0.1781
  113MOL   C31443098   5.082   1.961   6.783  0.7996 -0.9512  0.1376
  113MOL   C31543099   5.203   1.898   6.745  0.5783 -0.8883 -0.8359
  113MOL   C31643100   5.310   1.885   6.828 -0.5106 -0.4920 -0.1113
  113MOL   H31743101   5.678   2.068   7.407  0.8243  2.3262  0.7745
  113MOL   H31843102   5.621   1.925   7.214  1.2264  0.1519 -1.6435
  113MOL   H31943103   5.393   2.131   7.158 -0.4770 -0.4898  1.2650
  113MOL   H32043104   5.354   1.968   7.212 -0.4183 -0.8660 -0.8204
  113MOL   H32143105   5.189   2.086   7.078  0.6779  0.0602  0.5421
  113MOL   H32243106   4.991   2.086   6.929 -0.8823 -0.9443  0.4145
  113MOL   H32343107   5.002   1.970   6.710 -0.4854  0.5133  1.6623
  113MOL   H32443108   5.201   1.845   6.651 -1.3609 -0.6930 -0.9191
  113MOL   C32543109   5.433   1.803   6.792  0.1971  0.4954  0.2560
  113MOL   C32643110   5.497   1.687   6.852  0.0066  0.0898 -0.4775
  113MOL   O32743111   5.397   1.669   6.749 -0.8061 -0.8192 -0.2790
  113MOL   C32843112   5.462   1.652   6.995  0.0916  0.3136  0.6247
  113MOL   O32943113   5.523   1.526   7.035 -0.5067  0.1454 -0.0741
  113MOL   C33043114   5.461   1.414   6.999  0.2394 -0.3997 -0.0383
  113MOL   C33143115   5.330   1.381   7.040  0.8663 -0.5238  0.7172
  113MOL   C33243116   5.261   1.262   6.998  0.6813  0.6144 -0.5243
  113MOL   C33343117   5.328   1.176   6.909  0.2050  0.2347 -0.3051
  113MOL   C33443118   5.463   1.210   6.871  0.6004  0.5171  0.3305
  113MOL   C33543119   5.527   1.329   6.911 -0.0897 -0.1023  0.0741
  113MOL   H33643120   5.504   1.846   6.721 -0.7046 -1.1490 -1.7079
  113MOL   H33743121   5.601   1.680   6.820  0.0236 -1.5885 -0.0979
  113MOL   H33843122   5.355   1.644   7.009  0.5275 -0.8899  3.6631
  113MOL   H33943123   5.510   1.728   7.058 -1.3566  1.0691  0.8378
  113MOL   H34043124   5.268   1.443   7.104 -0.4339 -2.1056  1.0421
  113MOL   H34143125   5.162   1.232   7.029  1.5145 -1.2284  0.4199
  113MOL   H34243126   5.287   1.085   6.869  1.3782 -0.2383 -0.4489
  113MOL   H34343127   5.517   1.128   6.828 -2.5358 -0.8599 -1.1656
  113MOL   C34443128   5.664   1.373   6.854 -0.2329 -0.6821  0.7168
  113MOL   C34543129   5.803   1.347   6.907 -0.0310  0.9603  0.0371
  113MOL   O34643130   5.744   1.258   6.812 -0.3501 -0.2115  0.4598
  113MOL   C34743131   5.816   1.300   7.050  0.6963 -0.4303  0.1069
  113MOL   O34843132   5.947   1.331   7.102  0.5970  0.1018  0.0970
  113MOL   C34943133   6.049   1.259   7.051 -0.4418 -0.0903 -0.6193
  113MOL   C35043134   6.027   1.133   6.986  0.3263  0.4638  0.4337
  113MOL   C35143135   6.137   1.049   6.960  0.4981 -0.0627  0.2023
  113MOL   C35243136   6.267   1.096   6.980  0.1487 -0.8986  0.3222
  113MOL   C35343137   6.294   1.222   7.034  1.3364 -0.0291  0.2288
  113MOL   C35443138   6.182   1.304   7.072  0.3169  0.0271  0.0032
  113MOL   H35543139   5.655   1.453   6.780 -0.8630 -1.4667 -0.0719
  113MOL   H35643140   5.882   1.416   6.876  0.8198  0.4109  0.9648
  113MOL   H35743141   5.781   1.197   7.061  0.0052 -0.4027 -1.6964
  113MOL   H35843142   5.755   1.359   7.119 -0.9450 -1.2205 -0.6205
  113MOL   H35943143   5.931   1.087   6.967 -0.4662  1.2886  2.2301
  113MOL   H36043144   6.125   0.955   6.909 -0.9488  0.7961 -1.1000
  113MOL   H36143145   6.353   1.036   6.957  1.3355  1.5611 -1.8675
  113MOL   H36243146   6.392   1.266   7.047  2.4346 -2.0605 -0.9130
  113MOL   C36343147   6.197   1.434   7.147 -0.3023 -0.5382  0.3773
  113MOL   C36443148   6.199   1.448   7.296 -0.1171  0.5885 -1.0185
  113MOL   O36543149   6.325   1.432   7.218 -0.7514 -0.2978 -0.7439
  113MOL   C36643150   6.156   1.334   7.390  0.2518  0.0592 -0.1250
  113MOL   O36743151   6.136   1.387   7.518 -0.1299 -0.0434  0.5012
  113MOL   C36843152   6.088   1.308   7.621 -0.6336  0.0625 -0.4149
  113MOL   C36943153   6.041   1.374   7.737  0.7292 -0.0409 -0.2336
  113MOL   C37043154   5.983   1.303   7.848 -0.0501  0.1939 -0.1392
  113MOL   C37143155   5.982   1.162   7.849 -0.3883  0.0820 -0.2239
  113MOL   C37243156   6.035   1.094   7.738 -0.4602 -0.0628  0.2352
  113MOL   C37343157   6.091   1.163   7.629 -0.8227 -0.6740  0.2568
  113MOL   H37443158   6.183   1.518   7.079 -0.9317  0.2090  1.4062
  113MOL   H37543159   6.173   1.550   7.323 -0.0543  0.1201  0.9125
  113MOL   H37643160   6.240   1.265   7.390 -0.3620 -0.7045  0.4055
  113MOL   H37743161   6.064   1.291   7.349  1.3793 -0.8068 -1.7890
  113MOL   H37843162   6.039   1.482   7.730  2.9427  0.1866  1.9056
  113MOL   H37943163   5.931   1.351   7.931  0.0927  2.3030 -1.2271
  113MOL   H38043164   5.940   1.104   7.931 -3.4517  1.2945 -0.8766
  113MOL   H38143165   6.038   0.986   7.727 -0.5182  0.1347 -2.0571
  113MOL   H38243166   6.113   1.104   7.540  0.5965  0.0640  0.1086
  114MOL     C143167   3.591   1.860   1.453  0.4164  0.7329  0.0339
  114MOL     C243168   3.531   1.887   1.321  0.4721  0.7275  0.5705
  114MOL     O343169   3.561   1.754   1.366  0.0239  0.1888 -0.6821
  114MOL     C443170   3.613   1.944   1.215  0.1953  0.1981 -0.0987
  114MOL     O543171   3.555   1.940   1.087 -0.0998 -0.4568 -0.4143
  114MOL     C643172   3.625   1.993   0.980 -0.3369  0.8993  0.2027
  114MOL     C743173   3.745   2.074   1.001  0.2491 -1.0201  0.5010
  114MOL     C843174   3.827   2.116   0.890 -0.6661 -0.2311  0.0601
  114MOL     C943175   3.778   2.084   0.760 -0.2940  0.0496  0.2742
  114MOL    C1043176   3.653   2.024   0.740 -0.5889 -0.7878 -0.2231
  114MOL    C1143177   3.577   1.977   0.848  0.0350  0.0893 -0.8132
  114MOL    H1243178   3.535   1.860   1.546  0.5626 -0.2228  0.1276
  114MOL    H1343179   3.423   1.895   1.308  0.7840  1.3386 -1.8068
  114MOL    H1443180   3.709   1.896   1.238 -0.3642 -0.4665  0.8732
  114MOL    H1543181   3.626   2.050   1.240 -4.0973  0.5634  0.9567
  114MOL    H1643182   3.790   2.084   1.098 -1.8149  1.1140  1.2861
  114MOL    H1743183   3.918   2.171   0.911 -0.6699 -0.4294  0.6197
  114MOL    H1843184   3.829   2.102   0.666 -2.1991  0.9667 -0.6019
  114MOL    H1943185   3.609   1.999   0.645  0.0664 -1.5457 -0.3304
  114MOL    H2043186   3.698   1.875   1.468  0.8356 -1.4612 -0.5760
  114MOL    C2143187   3.449   1.902   0.819  0.0560 -0.8074  0.0031
  114MOL    C2243188   3.305   1.949   0.827  0.5406  0.2317  0.3404
  114MOL    O2343189   3.380   1.955   0.706 -0.4761 -1.1823  0.4056
  114MOL    C2443190   3.263   2.087   0.875  0.4345  0.4544 -0.6899
  114MOL    O2543191   3.120   2.108   0.870 -0.3264  0.1492 -0.4144
  114MOL    C2643192   3.063   2.164   0.757 -0.5841 -0.0758  0.2282
  114MOL    C2743193   3.133   2.186   0.637 -0.0514  0.0148  0.4485
  114MOL    C2843194   3.066   2.243   0.527 -0.0694 -0.2477 -0.3264
  114MOL    C2943195   2.933   2.279   0.529  0.0896 -0.5258  0.2064
  114MOL    C3043196   2.864   2.263   0.651  0.2571  0.0837  0.6328
  114MOL    C3143197   2.924   2.203   0.762  0.4748  0.1667  0.4442
  114MOL    H3243198   3.472   1.798   0.799  0.7304 -0.5260 -0.7078
  114MOL    H3343199   3.237   1.864   0.828  1.0840 -0.2411 -1.1686
  114MOL    H3443200   3.326   2.157   0.819  0.9410  0.1164 -0.5419
  114MOL    H3543201   3.278   2.092   0.982 -1.1813  1.5888 -0.5084
  114MOL    H3643202   3.236   2.157   0.622 -0.1992 -1.0035  1.3887
  114MOL    H3743203   3.122   2.269   0.438 -2.3374  1.3278 -1.3202
  114MOL    H3843204   2.884   2.322   0.443  1.7476 -0.4053 -0.6786
  114MOL    H3943205   2.764   2.304   0.658 -0.9375 -2.5126 -0.5587
  114MOL    C4043206   2.855   2.188   0.895  0.2676 -0.5890 -0.5431
  114MOL    C4143207   2.808   2.309   0.978  0.4644  0.0930 -0.5152
  114MOL    O4243208   2.719   2.233   0.895 -0.0355 -0.0658 -0.2655
  114MOL    C4343209   2.805   2.454   0.935  0.0434  0.1282  0.4187
  114MOL    O4443210   2.919   2.496   0.860  0.3075 -0.4645 -0.1090
  114MOL    C4543211   3.022   2.549   0.932  0.0166 -0.2993  0.3350
  114MOL    C4643212   3.024   2.567   1.073  1.0416  0.5308  0.2979
  114MOL    C4743213   3.130   2.626   1.139  0.7497  0.2222 -0.1787
  114MOL    C4843214   3.229   2.683   1.066 -0.6962  0.0868 -0.7377
  114MOL    C4943215   3.236   2.656   0.924 -0.6129  0.2059 -0.0095
  114MOL    C5043216   3.134   2.587   0.860 -0.3085 -0.0215  0.3337
  114MOL    H5143217   2.863   2.088   0.936 -1.0056 -1.1831 -1.7086
  114MOL    H5243218   2.806   2.301   1.086  1.8758  0.8611 -0.4307
  114MOL    H5343219   2.771   2.514   1.020  0.5891 -0.1781  0.8519
  114MOL    H5443220   2.719   2.473   0.870  0.6340  1.0891 -0.1003
  114MOL    H5543221   2.940   2.547   1.138  0.9845 -3.3222 -0.8653
  114MOL    H5643222   3.144   2.635   1.245 -0.0276  0.9213 -0.1287
  114MOL    H5743223   3.309   2.741   1.108 -1.5713  1.5273 -1.0482
  114MOL    H5843224   3.320   2.684   0.862  0.7136 -0.1112  1.6186
  114MOL    C5943225   3.131   2.566   0.710  0.3047 -0.8689  0.2546
  114MOL    C6043226   3.051   2.647   0.612  0.0279  0.0173  0.7157
  114MOL    O6143227   3.188   2.670   0.633  0.1734 -0.6568 -0.1874
  114MOL    C6243228   2.960   2.758   0.659  0.0386  0.1644  0.0096
  114MOL    O6343229   2.899   2.817   0.539 -0.1146  0.3379 -0.9045
  114MOL    C6443230   2.811   2.739   0.464  0.1694 -0.5977 -0.4412
  114MOL    C6543231   2.744   2.634   0.522 -0.1687  0.4470 -0.2578
  114MOL    C6643232   2.652   2.558   0.446 -0.0406 -0.0400  0.4136
  114MOL    C6743233   2.641   2.585   0.307  0.0818  0.3832 -0.2910
  114MOL    C6843234   2.710   2.694   0.252  0.4410  0.6809 -0.0077
  114MOL    C6943235   2.790   2.781   0.329  0.2506  0.4613 -0.0406
  114MOL    H7043236   3.152   2.463   0.681  0.0661 -0.3716 -1.7479
  114MOL    H7143237   3.025   2.601   0.517  0.0559 -1.2940  1.3380
  114MOL    H7243238   3.007   2.822   0.734 -1.4674  0.0524  1.0774
  114MOL    H7343239   2.882   2.711   0.719  0.7115  0.9072  1.4852
  114MOL    H7443240   2.742   2.607   0.626  2.3235  1.1576  0.0013
  114MOL    H7543241   2.604   2.475   0.495 -0.6563  0.3109  0.4213
  114MOL    H7643242   2.582   2.519   0.245  0.4916 -0.6045  0.3501
  114MOL    H7743243   2.705   2.712   0.146 -0.3557  1.4759  0.1528
  114MOL    C7843244   2.854   2.913   0.266  0.5486  1.4290 -0.6816
  114MOL    C7943245   2.997   2.906   0.212  0.0347 -0.1606  0.2324
  114MOL    O8043246   2.883   2.904   0.124  0.1485  0.4493 -0.2023
  114MOL    C8143247   3.081   2.782   0.218 -0.1590  0.4006 -0.1975
  114MOL    O8243248   3.219   2.793   0.169  0.1901  0.0731  0.1613
  114MOL    C8343249   3.246   2.757   0.042  0.5228 -0.3335  0.3617
  114MOL    C8443250   3.145   2.699   8.122 -1.1833  0.4010 -0.5460
  114MOL    C8543251   3.180   2.690   7.984  0.1384 -0.4947 -0.4164
  114MOL    C8643252   3.311   2.721   7.932 -0.0269  0.6257  0.7752
  114MOL    C8743253   3.404   2.775   8.023 -0.1308 -1.0644  0.1882
  114MOL    C8843254   3.378   2.787   8.163 -0.1374 -0.0462 -0.1056
  114MOL    H8943255   2.803   3.004   0.298 -0.9987  0.1478  0.5600
  114MOL    H9043256   3.065   2.991   0.203  1.6754 -1.2071  2.3894
  114MOL    H9143257   3.023   2.694   0.190 -0.8053  0.5390  0.6929
  114MOL    H9243258   3.098   2.757   0.323  0.6551 -0.3497 -0.4990
  114MOL    H9343259   3.045   2.677   8.158  0.3007 -1.6167  2.6172
  114MOL    H9443260   3.104   2.638   7.928 -2.3575  0.0201  2.3466
  114MOL    H9543261   3.336   2.704   7.829 -1.8609 -0.8153  0.5460
  114MOL    H9643262   3.498   2.804   7.978 -0.8317 -0.6068 -1.0004
  114MOL    C9743263   3.484   2.846   0.085  0.1087 -0.2756  0.0962
  114MOL    C9843264   3.571   2.758   0.175  0.0925  0.6804 -0.9592
  114MOL    O9943265   3.620   2.817   0.055 -0.1905 -0.0356  0.4739
  114MOL   C10043266   3.566   2.605   0.176  0.2902  0.7713  0.2260
  114MOL   O10143267   3.663   2.546   0.262  0.0756 -0.4582  0.3238
  114MOL   C10243268   3.625   2.499   0.387 -0.0036  0.4039 -0.1446
  114MOL   C10343269   3.498   2.523   0.446  0.5968  0.2549 -0.5104
  114MOL   C10443270   3.464   2.466   0.575  0.0775  0.3926  0.0705
  114MOL   C10543271   3.563   2.396   0.650 -0.0153  0.1559  0.4424
  114MOL   C10643272   3.690   2.374   0.588  0.1475  0.0838 -0.8996
  114MOL   C10743273   3.716   2.422   0.459 -0.2946 -0.5499  0.6075
  114MOL   H10843274   3.456   2.945   0.120 -0.9578 -0.7341  0.5416
  114MOL   H10943275   3.598   2.804   0.270 -3.1378 -0.1029  0.4047
  114MOL   H11043276   3.589   2.564   0.077 -0.2233  1.6593 -0.2636
  114MOL   H11143277   3.465   2.569   0.199 -0.0667  1.5286 -0.1247
  114MOL   H11243278   3.418   2.577   0.397 -1.5639 -2.3540  0.0081
  114MOL   H11343279   3.364   2.466   0.614  0.5960 -1.9624  1.5045
  114MOL   H11443280   3.535   2.337   0.736  2.1403 -1.0850  0.3234
  114MOL   H11543281   3.759   2.319   0.651 -0.7800  0.8835  0.8321
  114MOL   C11643282   3.845   2.381   0.388 -0.0768 -0.3195 -0.4219
  114MOL   C11743283   3.978   2.412   0.441  0.2132  0.2538 -0.4114
  114MOL   O11843284   3.921   2.280   0.462  0.5591  0.1801 -0.2323
  114MOL   C11943285   3.998   2.513   0.550 -0.5912  0.3431 -0.3914
  114MOL   O12043286   3.952   2.635   0.505  0.2003  0.3324 -0.5094
  114MOL   C12143287   4.024   2.747   0.541 -0.1425 -0.3991 -0.1819
  114MOL   C12243288   4.078   2.759   0.670 -0.4403 -0.1401  0.3983
  114MOL   C12343289   4.156   2.873   0.704 -0.2089 -0.4524  0.2236
  114MOL   C12443290   4.162   2.986   0.617 -0.5076 -0.5355  0.1477
  114MOL   C12543291   4.098   2.972   0.489  0.2581 -0.3774  0.2942
  114MOL   C12643292   4.024   2.852   0.449 -0.0469 -0.3171 -1.0176
  114MOL   H12743293   3.833   2.351   0.284  1.9177  0.3855 -0.8911
  114MOL   H12843294   4.054   2.409   0.362  1.8812 -0.2565  1.1695
  114MOL   H12943295   4.107   2.517   0.557 -0.4480 -1.8812 -0.9135
  114MOL   H13043296   3.951   2.479   0.642 -0.9109  0.7945 -0.3882
  114MOL   H13143297   4.064   2.673   0.734 -1.2867 -1.5737 -1.6564
  114MOL   H13243298   4.204   2.870   0.801 -1.2174  0.3141  0.7492
  114MOL   H13343299   4.214   3.079   0.637 -0.7102 -0.6334  1.1444
  114MOL   H13443300   4.127   3.046   0.415 -0.1800 -2.1913 -1.7297
  114MOL   C13543301   3.962   2.838   0.312  0.4329  0.1268  0.2628
  114MOL   C13643302   3.864   2.935   0.260  0.4491  0.3801 -0.5679
  114MOL   O13743303   3.999   2.956   0.227 -0.2020 -0.3459  0.4222
  114MOL   C13843304   3.800   3.037   0.354  0.2818  0.6545 -0.2111
  114MOL   O13943305   3.737   2.987   0.470  0.3669  0.4484 -0.4146
  114MOL   C14043306   3.686   3.079   0.559 -0.5079  0.2372  0.6655
  114MOL   C14143307   3.720   3.218   0.570 -0.0185 -0.7244 -0.2012
  114MOL   C14243308   3.666   3.300   0.676  0.1952  0.0908  0.1227
  114MOL   C14343309   3.566   3.240   0.758  1.3618 -0.7991 -0.0816
  114MOL   C14443310   3.531   3.106   0.747  0.1971  0.3121 -0.2057
  114MOL   C14543311   3.582   3.025   0.644  0.2489 -0.0859 -0.7848
  114MOL   H14643312   3.981   2.744   0.260  0.3527  0.0346  0.4021
  114MOL   H14743313   3.810   2.899   0.173  0.6207 -2.1790  0.3645
  114MOL   H14843314   3.728   3.099   0.301  1.4394  1.2043 -1.1783
  114MOL   H14943315   3.881   3.104   0.384  2.2394 -2.2645  1.3201
  114MOL   H15043316   3.774   3.276   0.497 -0.8185 -1.0705 -1.0782
  114MOL   H15143317   3.691   3.403   0.695 -0.3154  0.2904 -0.2997
  114MOL   H15243318   3.524   3.293   0.842 -0.6333 -1.0191 -0.8955
  114MOL   H15343319   3.464   3.068   0.824  0.4774  2.6530  1.2584
  114MOL   C15443320   3.544   2.881   0.638  0.7184 -0.2312 -0.1157
  114MOL   C15543321   3.617   2.763   0.708  0.0126 -0.0270 -0.8762
  114MOL   O15643322   3.507   2.829   0.765 -0.2312  0.3174 -0.1428
  114MOL   C15743323   3.739   2.775   0.800  0.2457  1.4063  0.0627
  114MOL   O15843324   3.806   2.648   0.806  0.1846  0.4190  0.4250
  114MOL   C15943325   3.767   2.567   0.914  0.2000 -0.1375 -0.0221
  114MOL   C16043326   3.631   2.551   0.948 -0.0026 -0.0216 -0.2531
  114MOL   C16143327   3.591   2.463   1.047 -0.5511  0.0492 -0.3680
  114MOL   C16243328   3.688   2.400   1.126  0.3792 -0.4957 -0.0914
  114MOL   C16343329   3.826   2.411   1.092 -0.0523  0.2471  0.2107
  114MOL   C16443330   3.863   2.494   0.986  0.6835  0.6206 -0.5938
  114MOL   H16543331   3.480   2.851   0.555 -0.5498 -0.0792  0.7791
  114MOL   H16643332   3.588   2.660   0.687  0.2747 -0.1025 -0.8610
  114MOL   H16743333   3.703   2.802   0.899 -0.9465  2.6725 -0.6845
  114MOL   H16843334   3.815   2.843   0.760  0.7809  0.8309  0.1021
  114MOL   H16943335   3.551   2.600   0.896  1.4411  0.3628 -2.1568
  114MOL   H17043336   3.490   2.453   1.082 -0.7959  1.4004 -0.6529
  114MOL   H17143337   3.651   2.338   1.206  1.3662 -0.2863  0.5393
  114MOL   H17243338   3.900   2.363   1.154  0.9976 -0.1011 -1.2709
  114MOL   C17343339   4.007   2.519   0.954 -0.2185 -0.1443  0.4860
  114MOL   C17443340   4.091   2.613   1.038 -0.2269 -0.4258 -0.2018
  114MOL   O17543341   4.092   2.472   1.060 -0.0627  0.0596  0.2482
  114MOL   C17643342   4.023   2.685   1.156  0.9095  0.3755  0.0137
  114MOL   O17743343   4.083   2.812   1.196 -0.0904  0.4217  0.2153
  114MOL   C17843344   4.056   2.922   1.121  0.3600 -0.7936 -0.0970
  114MOL   C17943345   3.945   2.945   1.033  0.2372 -0.7738 -0.7757
  114MOL   C18043346   3.946   3.058   0.947  0.1581 -0.3997 -0.3495
  114MOL   C18143347   4.053   3.147   0.948  0.3520  0.2308 -0.0681
  114MOL   C18243348   4.157   3.125   1.039 -0.7099  0.0951  0.8134
  114MOL   C18343349   4.158   3.016   1.132  0.0257 -0.0365 -0.6497
  114MOL   H18443350   4.031   2.478   0.856 -0.1993 -2.2159  1.3143
  114MOL   H18543351   4.188   2.648   1.004 -0.4193 -1.7734 -2.2286
  114MOL   H18643352   4.034   2.625   1.247 -0.9814 -1.2377 -0.7768
  114MOL   H18743353   3.917   2.701   1.137  0.9630  3.0938  1.7961
  114MOL   H18843354   3.863   2.875   1.024  0.1199 -1.1790  2.9768
  114MOL   H18943355   3.859   3.078   0.886 -0.1505 -1.9572 -0.4340
  114MOL   H19043356   4.060   3.233   0.883  0.8568  1.6743  1.8646
  114MOL   H19143357   4.239   3.194   1.049  0.7195 -1.7111  1.9348
  114MOL   C19243358   4.264   2.992   1.239  0.2651 -0.0304  0.4659
  114MOL   C19343359   4.385   2.910   1.203  0.2701 -0.2734  0.0526
  114MOL   O19443360   4.390   3.056   1.217 -0.0677 -0.9197  0.1119
  114MOL   C19543361   4.412   2.855   1.061  0.0768  0.2323 -0.1336
  114MOL   O19643362   4.544   2.809   1.052  0.0995  0.1621  0.0672
  114MOL   C19743363   4.621   2.881   0.962  0.4583 -0.3356  0.1369
  114MOL   C19843364   4.602   2.865   0.822  1.0600 -0.3778 -0.9127
  114MOL   C19943365   4.693   2.914   0.730  0.1148  0.6972 -0.3304
  114MOL   C20043366   4.801   2.996   0.776  0.0098  0.3483  0.2510
  114MOL   C20143367   4.817   3.016   0.916 -0.4449 -0.2791  0.5770
  114MOL   C20243368   4.734   2.952   1.010  0.6229 -0.7393 -0.2468
  114MOL   H20343369   4.225   3.012   1.338 -0.6380 -0.1634  0.1417
  114MOL   H20443370   4.432   2.859   1.287  2.2160 -0.1339 -0.9077
  114MOL   H20543371   4.389   2.925   0.981 -1.2833  0.3245  0.3356
  114MOL   H20643372   4.331   2.783   1.063  0.0551  0.2824  0.8880
  114MOL   H20743373   4.514   2.808   0.796  0.1934 -0.1889  1.4837
  114MOL   H20843374   4.687   2.887   0.626  2.3541 -0.4790 -0.1815
  114MOL   H20943375   4.869   3.039   0.704  2.5439 -2.2883  0.9703
  114MOL   H21043376   4.896   3.080   0.954 -0.8514  0.3394  0.3935
  114MOL   C21143377   4.759   2.966   1.158  0.0860  0.9228 -0.6480
  114MOL   C21243378   4.807   2.859   1.248  0.4831  0.6062 -0.1863
  114MOL   O21343379   4.896   2.961   1.192 -0.4791 -0.1917 -0.0184
  114MOL   C21443380   4.842   2.717   1.190  0.2384  0.8937 -0.6835
  114MOL   O21543381   4.899   2.635   1.291  0.2011 -0.4358  0.0783
  114MOL   C21643382   5.014   2.667   1.352 -0.2231 -0.0565 -0.1206
  114MOL   C21743383   5.103   2.770   1.315 -0.2585  0.5696  0.2138
  114MOL   C21843384   5.231   2.772   1.375 -0.3326  0.4734 -0.3366
  114MOL   C21943385   5.257   2.690   1.485  0.5039  0.1326 -0.4488
  114MOL   C22043386   5.162   2.593   1.527 -0.9091 -0.2575 -0.6049
  114MOL   C22143387   5.044   2.580   1.452  0.2756  0.5738  0.2368
  114MOL   H22243388   4.698   3.040   1.209 -1.0666  0.7929 -1.7978
  114MOL   H22343389   4.768   2.869   1.349  0.0182 -2.5037 -0.0121
  114MOL   H22443390   4.915   2.725   1.110  0.4575 -2.0428 -0.8310
  114MOL   H22543391   4.756   2.668   1.143  0.0399  1.9775 -1.4782
  114MOL   H22643392   5.081   2.838   1.233 -1.1964  0.3153  0.2508
  114MOL   H22743393   5.305   2.848   1.357  2.0877 -1.5047  0.9229
  114MOL   H22843394   5.346   2.696   1.545  0.0679 -4.7959  0.8892
  114MOL   H22943395   5.182   2.532   1.614 -2.9493 -0.7061 -0.4153
  114MOL   C23043396   4.947   2.466   1.477  0.6823  0.2960 -0.5142
  114MOL   C23143397   4.935   2.340   1.403 -0.0329 -0.2518 -0.0452
  114MOL   O23243398   4.995   2.346   1.537  0.0312 -0.1274 -0.2944
  114MOL   C23343399   5.020   2.294   1.290  0.2863 -0.3544  0.0064
  114MOL   O23443400   4.960   2.176   1.229 -0.2271 -0.2688 -0.2845
  114MOL   C23543401   4.982   2.056   1.291 -0.8007 -0.3740  0.4924
  114MOL   C23643402   4.992   2.038   1.428  0.2669  0.2982  0.0912
  114MOL   C23743403   5.029   1.913   1.482 -0.4476  0.8423 -0.0041
  114MOL   C23843404   5.050   1.796   1.396 -0.0186  0.2199  0.4214
  114MOL   C23943405   5.030   1.817   1.253  0.7639 -0.0445 -0.0220
  114MOL   C24043406   4.992   1.944   1.207  0.1548 -0.2907  0.2644
  114MOL   H24143407   4.851   2.500   1.517  2.3054  0.1277  3.7748
  114MOL   H24243408   4.834   2.299   1.395 -0.6090  1.0863  0.1333
  114MOL   H24343409   5.126   2.292   1.311  0.1504  2.5832  1.3443
  114MOL   H24443410   5.020   2.359   1.202 -0.5724 -1.4789 -0.8451
  114MOL   H24543411   4.970   2.118   1.497 -2.3560  0.4382 -0.8314
  114MOL   H24643412   5.041   1.912   1.589  1.6619 -0.0613 -0.2040
  114MOL   H24743413   5.090   1.703   1.433  1.0870  0.4157 -0.2509
  114MOL   H24843414   5.032   1.734   1.184  1.1330 -1.1181  1.2616
  114MOL   C24943415   4.971   1.971   1.060  0.1127 -0.9109 -0.4094
  114MOL   C25043416   5.090   2.003   0.971  0.1726  0.1000 -0.4020
  114MOL   O25143417   5.038   1.874   0.975 -0.3792 -0.3264 -0.5715
  114MOL   C25243418   5.223   2.048   1.026  0.2687 -0.1946 -0.2543
  114MOL   O25343419   5.333   2.046   0.932 -0.1967  0.5601 -0.2921
  114MOL   C25443420   5.318   2.140   0.833  0.2363  0.2134 -0.4965
  114MOL   C25543421   5.311   2.282   0.857 -0.1626 -0.5058  0.2449
  114MOL   C25643422   5.295   2.368   0.745  0.6783  0.0497 -0.1440
  114MOL   C25743423   5.303   2.308   0.619 -0.0321  0.4064  0.2719
  114MOL   C25843424   5.314   2.173   0.598  0.7808  0.3238  0.1098
  114MOL   C25943425   5.303   2.087   0.704 -0.5767 -0.1879  0.2889
  114MOL   H26043426   4.868   1.981   1.029  0.2692  0.2442 -0.5822
  114MOL   H26143427   5.057   2.057   0.883  0.2076  0.0233 -0.4617
  114MOL   H26243428   5.247   1.981   1.109 -0.0034  0.3715  0.2870
  114MOL   H26343429   5.199   2.142   1.075 -3.1625 -1.5013  0.7746
  114MOL   H26443430   5.321   2.323   0.956 -0.0410  1.5513 -0.5854
  114MOL   H26543431   5.304   2.475   0.751  1.4089  0.1238 -2.0670
  114MOL   H26643432   5.313   2.376   0.536 -1.2829 -0.5649 -0.6880
  114MOL   H26743433   5.330   2.125   0.503  2.7902 -1.7380  1.4219
  114MOL   C26843434   5.311   1.940   0.684 -0.1396 -0.4029 -0.5459
  114MOL   C26943435   5.195   1.854   0.632 -0.1003  0.1234 -1.0158
  114MOL   O27043436   5.302   1.898   0.544  0.8092  0.2406  0.1598
  114MOL   C27143437   5.051   1.906   0.608 -0.2102  0.3724  0.0964
  114MOL   O27243438   4.979   1.818   0.512 -1.0316  0.6317  0.4883
  114MOL   C27343439   4.893   1.719   0.565  0.0774 -0.4488 -0.2783
  114MOL   C27443440   4.889   1.683   0.703 -0.0051  0.0950 -0.7397
  114MOL   C27543441   4.790   1.594   0.757  0.1864  0.0498 -0.4861
  114MOL   C27643442   4.692   1.542   0.671 -0.6472  0.0262 -0.6827
  114MOL   C27743443   4.708   1.565   0.532 -0.7334 -0.0585 -0.4338
  114MOL   C27843444   4.806   1.648   0.478  0.0830  0.9196  0.2169
  114MOL   H27943445   5.405   1.896   0.717 -0.2968 -1.2006 -1.1338
  114MOL   H28043446   5.200   1.749   0.659 -0.2661 -0.1211 -1.9239
  114MOL   H28143447   5.059   2.004   0.562 -0.8493  0.4936  0.2403
  114MOL   H28243448   5.003   1.922   0.705  0.2512 -0.5719  0.4907
  114MOL   H28343449   4.961   1.714   0.777  1.7909 -0.7528 -2.0953
  114MOL   H28443450   4.799   1.569   0.862  0.4280 -1.0268 -0.7470
  114MOL   H28543451   4.622   1.474   0.716  1.3150 -1.3133  0.4508
  114MOL   H28643452   4.630   1.528   0.466 -1.1781  0.8614 -0.4395
  114MOL   C28743453   4.811   1.682   0.334  0.1682 -0.0652  0.4312
  114MOL   C28843454   4.877   1.596   0.227  0.2236  0.4371  0.1006
  114MOL   O28943455   4.744   1.587   0.254 -0.6655  0.2082 -0.2928
  114MOL   C29043456   4.962   1.474   0.262 -0.7011  0.2098  0.2965
  114MOL   O29143457   5.014   1.414   0.142 -0.4167 -0.1762  0.3320
  114MOL   C29243458   4.942   1.303   0.097  0.7999 -0.9695 -0.0555
  114MOL   C29343459   4.805   1.277   0.126  1.4406  0.6128  0.4473
  114MOL   C29443460   4.729   1.167   0.068 -0.0994 -0.1261 -0.5716
  114MOL   C29543461   4.803   1.083   8.156 -0.0401 -0.0247 -0.3287
  114MOL   C29643462   4.937   1.110   8.124  0.9126 -0.1051  0.4421
  114MOL   C29743463   5.006   1.212   0.011  0.1831 -0.3741 -0.4791
  114MOL   H29843464   4.787   1.786   0.313 -0.2251 -0.1344  0.5295
  114MOL   H29943465   4.893   1.646   0.132 -0.0912 -1.3665 -0.9143
  114MOL   H30043466   4.923   1.399   0.331 -0.0372  2.0121  2.7285
  114MOL   H30143467   5.049   1.521   0.308  1.9909 -1.5413 -2.7705
  114MOL   H30243468   4.753   1.357   0.176  2.2996  1.7812 -0.4923
  114MOL   H30343469   4.623   1.158   0.087  0.2588 -4.1969 -0.2734
  114MOL   H30443470   4.752   1.001   8.108  0.2228 -0.6549  0.4517
  114MOL   H30543471   4.986   1.047   8.051  1.9573  0.9171  0.2368
  114MOL   C30643472   5.151   1.220   8.151  0.5127  0.4816 -0.1366
  114MOL   C30743473   5.260   1.207   0.078  0.0156 -0.6200  0.3978
  114MOL   O30843474   5.217   1.094   8.165  0.6537 -0.2666  0.2771
  114MOL   C30943475   5.236   1.197   0.229  0.2596  0.5243 -0.1973
  114MOL   O31043476   5.358   1.173   0.294 -0.7726  0.0579  0.1762
  114MOL   C31143477   5.422   1.051   0.269  0.0932  0.2679  1.0446
  114MOL   C31243478   5.355   0.930   0.234  0.0767  0.0115 -0.2866
  114MOL   C31343479   5.425   0.813   0.226  0.0426 -0.4155 -0.3416
  114MOL   C31443480   5.563   0.815   0.258  0.6410 -0.3173  0.0058
  114MOL   C31543481   5.633   0.932   0.286  0.4781 -0.1805  0.2434
  114MOL   C31643482   5.562   1.053   0.293  0.0799 -0.2498 -1.1868
  114MOL   H31743483   5.173   1.264   8.054  2.3509  0.7644  0.3928
  114MOL   H31843484   5.351   1.257   0.045 -0.1433 -0.4520  0.2127
  114MOL   H31943485   5.177   1.108   0.249  1.4127 -0.6594 -1.9914
  114MOL   H32043486   5.183   1.285   0.265 -1.9688 -0.1420 -1.7500
  114MOL   H32143487   5.247   0.933   0.237  0.1243  1.1622  0.3435
  114MOL   H32243488   5.379   0.718   0.204  2.2762 -1.4069 -0.9655
  114MOL   H32343489   5.613   0.719   0.252 -0.6966 -1.0446  0.2901
  114MOL   H32443490   5.739   0.940   0.304  0.3041 -0.4826  1.4356
  114MOL   C32543491   5.631   1.188   0.315  1.5055 -0.0053 -0.6970
  114MOL   C32643492   5.623   1.266   0.451 -0.3469  0.6038 -0.6114
  114MOL   O32743493   5.729   1.178   0.421  0.4405  0.1602 -0.1568
  114MOL   C32843494   5.533   1.230   0.569  0.0057 -0.2200 -0.5099
  114MOL   O32943495   5.593   1.295   0.681  0.0427 -0.2144 -0.2211
  114MOL   C33043496   5.576   1.231   0.799 -0.0220  0.2778  0.0630
  114MOL   C33143497   5.453   1.226   0.865 -0.9762  0.4159 -0.1257
  114MOL   C33243498   5.436   1.141   0.977  0.1938  0.3979 -0.0325
  114MOL   C33343499   5.541   1.061   1.020 -0.4463 -0.0715 -0.3622
  114MOL   C33443500   5.673   1.078   0.964  0.3243  0.7328 -0.2556
  114MOL   C33543501   5.689   1.158   0.850 -0.2700 -0.0361  0.5236
  114MOL   H33643502   5.651   1.239   0.221  1.3895 -0.3425 -0.9056
  114MOL   H33743503   5.655   1.370   0.452 -0.5808  0.6852 -1.3469
  114MOL   H33843504   5.543   1.122   0.580 -0.4049 -0.2762 -0.7006
  114MOL   H33943505   5.429   1.261   0.557  0.6260  1.6205 -1.3307
  114MOL   H34043506   5.364   1.280   0.834 -1.0467  0.4925  0.2111
  114MOL   H34143507   5.343   1.138   1.031 -0.7718  3.0816 -1.4854
  114MOL   H34243508   5.526   0.987   1.097 -0.8902 -2.2937 -2.5478
  114MOL   H34343509   5.754   1.020   1.005 -0.1345 -0.1276 -0.5607
  114MOL   C34443510   5.820   1.180   0.790  0.1737  0.0557  0.4980
  114MOL   C34543511   5.895   1.309   0.816  0.2845 -0.8603 -0.0095
  114MOL   O34643512   5.918   1.190   0.891 -0.2284 -0.0087  0.2128
  114MOL   C34743513   5.837   1.426   0.885  0.1916  0.2313  0.4226
  114MOL   O34843514   5.845   1.543   0.800  0.8145 -0.1944 -0.5507
  114MOL   C34943515   5.786   1.660   0.846  0.4181  0.0755  0.0548
  114MOL   C35043516   5.686   1.671   0.942  0.4632  0.0446  0.3659
  114MOL   C35143517   5.625   1.798   0.959 -1.0606  0.2041 -0.3066
  114MOL   C35243518   5.665   1.902   0.879  0.9071  0.0872  0.9843
  114MOL   C35343519   5.773   1.903   0.790 -0.1431 -1.0279 -0.2244
  114MOL   C35443520   5.832   1.778   0.773 -0.2582 -0.3256  0.1027
  114MOL   H35543521   5.844   1.108   0.713  1.1880  1.4742 -0.5255
  114MOL   H35643522   5.973   1.322   0.741 -0.0839 -0.0871 -0.2631
  114MOL   H35743523   5.897   1.436   0.975  1.9803  2.8600 -1.0111
  114MOL   H35843524   5.732   1.415   0.912  0.0858 -0.8349 -0.3991
  114MOL   H35943525   5.653   1.585   0.999 -1.0589  0.9995  0.9377
  114MOL   H36043526   5.547   1.804   1.034 -0.5973  2.1273  0.0317
  114MOL   H36143527   5.606   1.993   0.877  0.8762  0.0489 -0.4121
  114MOL   H36243528   5.795   1.992   0.733  1.2270 -0.4743  1.1352
  114MOL   C36343529   5.938   1.761   0.667 -0.8651 -0.2165 -0.2863
  114MOL   C36443530   5.895   1.717   0.531 -0.2396 -0.6362  0.0371
  114MOL   O36543531   5.903   1.858   0.565  0.5483  0.4132  0.2697
  114MOL   C36643532   5.757   1.658   0.501  0.4375  0.0243  0.3113
  114MOL   O36743533   5.713   1.665   0.364 -0.0303  0.6160 -0.5322
  114MOL   C36843534   5.793   1.613   0.265  0.2203  0.8286 -0.8417
  114MOL   C36943535   5.803   1.678   0.144 -0.7337 -0.5764 -0.0942
  114MOL   C37043536   5.875   1.618   0.038  0.4349 -0.5751  0.1619
  114MOL   C37143537   5.952   1.506   0.057 -0.8000  0.5104  0.5121
  114MOL   C37243538   5.942   1.437   0.179  0.9142 -0.3466 -0.4547
  114MOL   C37343539   5.859   1.489   0.281  0.1609 -0.3868 -0.7584
  114MOL   H37443540   6.039   1.763   0.707 -0.8921 -0.9385 -0.1777
  114MOL   H37543541   5.976   1.678   0.469 -1.0006 -2.6088  0.2558
  114MOL   H37643542   5.680   1.706   0.561 -0.5537  0.4639 -1.2978
  114MOL   H37743543   5.757   1.552   0.528 -0.2432 -0.5927 -1.9799
  114MOL   H37843544   5.756   1.769   0.111 -0.9955 -1.4337 -2.1356
  114MOL   H37943545   5.873   1.668   8.112 -0.9199 -0.4389  0.2591
  114MOL   H38043546   6.003   1.470   8.138  0.8140 -0.6676  1.8863
  114MOL   H38143547   5.993   1.344   0.198  0.8801 -0.2795 -0.0253
  114MOL   H38243548   5.847   1.435   0.374  1.5227  0.2702 -0.1913
  115MOL     C143549   6.164   2.470   1.071 -0.3267 -0.0263 -0.1458
  115MOL     C243550   6.242   2.563   0.983 -0.5107 -0.0238  0.2023
  115MOL     O343551   6.104   2.591   1.018  0.5196 -0.7703  0.3223
  115MOL     C443552   6.281   2.506   0.854  0.5440 -0.9765 -0.1007
  115MOL     O543553   6.318   2.613   0.767  0.5632  0.0018  0.1753
  115MOL     C643554   6.225   2.678   0.687  1.1154 -0.6002 -0.3581
  115MOL     C743555   6.089   2.664   0.701  0.0917  0.7802 -0.3410
  115MOL     C843556   5.998   2.727   0.607 -0.2362  0.5591 -0.1964
  115MOL     C943557   6.047   2.792   0.494  0.0550 -0.1960 -0.2782
  115MOL    C1043558   6.184   2.810   0.479  0.8172  0.1733 -0.1511
  115MOL    C1143559   6.273   2.757   0.578 -1.1760  0.2954 -0.2791
  115MOL    H1243560   6.186   2.473   1.178 -1.3249 -0.4614  0.0812
  115MOL    H1343561   6.304   2.639   1.030  1.3153 -0.9616 -0.6370
  115MOL    H1443562   6.193   2.455   0.815  0.2578  0.1730 -0.9614
  115MOL    H1543563   6.356   2.429   0.873  1.5324 -0.3368 -1.3329
  115MOL    H1643564   6.042   2.605   0.778 -0.7750  0.8915 -0.7741
  115MOL    H1743565   5.893   2.713   0.627 -0.1401  0.1493  0.0280
  115MOL    H1843566   5.975   2.833   0.424  0.3011 -2.1310 -1.7041
  115MOL    H1943567   6.227   2.870   0.399  1.1870 -0.4255 -0.4029
  115MOL    H2043568   6.120   2.379   1.030  0.8312 -1.9803  2.7468
  115MOL    C2143569   6.421   2.772   0.550  0.1252  0.2941  1.0183
  115MOL    C2243570   6.504   2.649   0.512 -0.6024  0.7821  0.3898
  115MOL    O2343571   6.454   2.742   0.410  0.1441 -0.1491 -0.0825
  115MOL    C2443572   6.455   2.507   0.500  0.2448  0.3790 -0.6684
  115MOL    O2543573   6.531   2.435   0.406 -0.0697 -0.1481  0.3630
  115MOL    C2643574   6.490   2.430   0.273 -0.0700 -0.3156  0.0327
  115MOL    C2743575   6.383   2.503   0.218 -0.5379  0.9980 -0.4029
  115MOL    C2843576   6.339   2.480   0.084  0.3391 -0.4013 -0.1335
  115MOL    C2943577   6.410   2.398   8.170 -0.2178  0.8717  0.6865
  115MOL    C3043578   6.526   2.333   0.052  0.2943 -0.8045  0.5801
  115MOL    C3143579   6.575   2.355   0.184  0.9570 -0.2162 -0.2221
  115MOL    H3243580   6.462   2.858   0.602  0.6390 -0.0278  1.1575
  115MOL    H3343581   6.612   2.662   0.512 -0.7932  2.8405  2.9577
  115MOL    H3443582   6.347   2.508   0.483  0.2576  1.3991 -0.7020
  115MOL    H3543583   6.472   2.459   0.597  2.3964 -1.4539 -1.9134
  115MOL    H3643584   6.318   2.563   0.281 -0.3073  1.7800 -0.8984
  115MOL    H3743585   6.251   2.532   0.049 -0.1245 -1.0015  0.1334
  115MOL    H3843586   6.378   2.370   8.070 -0.9673  0.2684  1.0914
  115MOL    H3943587   6.578   2.271   8.150  0.5745 -0.0939  0.1641
  115MOL    C4043588   6.703   2.291   0.234 -0.2571  0.2529  0.7078
  115MOL    C4143589   6.725   2.145   0.269 -0.7756  0.0258  0.5027
  115MOL    O4243590   6.756   2.198   0.146 -0.1238  0.4591  0.1710
  115MOL    C4343591   6.619   2.034   0.287 -0.0374  0.0618 -0.4920
  115MOL    O4443592   6.679   1.934   0.369 -0.0492  0.2958 -0.4560
  115MOL    C4543593   6.700   1.950   0.507  0.1622  1.1475  0.7678
  115MOL    C4643594   6.665   2.062   0.580 -0.5281  0.8892  0.4355
  115MOL    C4743595   6.706   2.072   0.715 -1.0272 -0.2565  0.6547
  115MOL    C4843596   6.771   1.969   0.782 -0.3442 -0.1898 -0.3476
  115MOL    C4943597   6.807   1.857   0.707 -0.4348  0.4126  0.1075
  115MOL    C5043598   6.776   1.850   0.566 -0.6323  0.0760  0.5011
  115MOL    H5143599   6.778   2.364   0.262 -0.2974  0.0295  1.4178
  115MOL    H5243600   6.810   2.135   0.337 -0.0116  1.0056 -0.3039
  115MOL    H5343601   6.597   1.999   0.186  1.3569  1.3290 -1.2642
  115MOL    H5443602   6.529   2.068   0.340  0.2805 -2.1390  1.5256
  115MOL    H5543603   6.629   2.149   0.526 -1.6415  0.4373  0.4226
  115MOL    H5643604   6.688   2.164   0.770 -0.7766  0.0259  0.2706
  115MOL    H5743605   6.812   1.979   0.882  0.1964  1.0808 -0.6877
  115MOL    H5843606   6.865   1.777   0.750 -0.9849  0.4100  0.8411
  115MOL    C5943607   6.830   1.747   0.472 -0.5049  0.4887 -0.3985
  115MOL    C6043608   6.978   1.715   0.457  0.5690  0.4651 -0.2768
  115MOL    O6143609   6.898   1.641   0.550  0.3119  0.2329  0.2947
  115MOL    C6243610   7.090   1.792   0.523 -0.3552  0.5137 -0.7904
  115MOL    O6343611   7.158   1.706   0.618  0.3171  0.1309 -0.4047
  115MOL    C6443612   7.170   1.754   0.746 -0.4951 -0.3139 -0.0064
  115MOL    C6543613   7.213   1.887   0.770  0.2933  0.6500  0.1754
  115MOL    C6643614   7.224   1.936   0.896  0.1341  0.0461  0.3079
  115MOL    C6743615   7.193   1.855   1.005 -0.0080 -0.0927 -0.4596
  115MOL    C6843616   7.154   1.719   0.988  0.8387 -0.4848  0.2070
  115MOL    C6943617   7.148   1.665   0.860 -0.4739  0.0656  0.9892
  115MOL    H7043618   6.758   1.696   0.409  0.4258 -1.2796 -0.0843
  115MOL    H7143619   7.004   1.665   0.364  0.6916 -2.0421  1.0724
  115MOL    H7243620   7.052   1.887   0.561 -1.2464 -0.1154 -0.0857
  115MOL    H7343621   7.163   1.824   0.449  1.0217 -0.2437  0.2120
  115MOL    H7443622   7.232   1.964   0.696 -1.6459 -1.2631 -2.4135
  115MOL    H7543623   7.244   2.041   0.911 -0.5693 -0.0537  2.0216
  115MOL    H7643624   7.184   1.893   1.106 -0.8823 -2.8472  0.5419
  115MOL    H7743625   7.135   1.662   1.078 -0.6190 -0.1238  0.1354
  115MOL    C7843626   7.104   1.520   0.835 -0.1392 -0.0834  0.3996
  115MOL    C7943627   7.205   1.403   0.854 -0.3764  0.0653  0.0402
  115MOL    O8043628   7.097   1.436   0.946  0.3929  0.1218 -0.3920
  115MOL    C8143629   7.340   1.416   0.919 -0.3565 -0.4327 -0.0372
  115MOL    O8243630   7.383   1.292   0.974  0.3687  0.2488  0.6776
  115MOL    C8343631   7.316   1.225   1.075  0.3672 -0.4071 -0.0646
  115MOL    C8443632   7.252   1.297   1.178 -0.4516 -0.0592  0.2161
  115MOL    C8543633   7.214   1.232   1.298  0.8582 -0.2727 -0.2233
  115MOL    C8643634   7.222   1.091   1.294 -0.9340 -0.0525  0.1087
  115MOL    C8743635   7.278   1.021   1.190  0.0224  0.2513  0.2359
  115MOL    C8843636   7.341   1.084   1.085  0.1773 -0.3804  0.5846
  115MOL    H8943637   7.022   1.520   0.763  1.0342 -0.8355 -0.9794
  115MOL    H9043638   7.188   1.312   0.796  0.0323 -1.5904  2.4222
  115MOL    H9143639   7.326   1.486   1.001 -2.0194  0.7715 -1.2868
  115MOL    H9243640   7.412   1.467   0.855 -1.5702  1.5502  0.1435
  115MOL    H9343641   7.251   1.405   1.183  1.4497 -0.0624  1.0777
  115MOL    H9443642   7.170   1.290   1.377 -1.9185  0.6122 -2.3193
  115MOL    H9543643   7.175   1.042   1.378 -0.8904 -0.3496 -0.0409
  115MOL    H9643644   7.292   0.915   1.202 -0.8460  0.1236  0.1988
  115MOL    C9743645   7.423   1.015   0.980  0.3218  0.2049 -0.3687
  115MOL    C9843646   7.572   1.010   0.980  0.5243  0.5042 -0.0261
  115MOL    O9943647   7.490   0.906   1.044  0.6110 -0.4456  0.8710
  115MOL   C10043648   7.658   1.086   1.091  0.1081  0.0315 -0.2476
  115MOL   O10143649   7.766   1.020   1.149 -0.7352  0.2019 -0.2170
  115MOL   C10243650   7.842   0.928   1.077 -0.1279  0.1641 -0.3768
  115MOL   C10343651   7.905   0.952   0.954 -0.2607  0.6181  0.4488
  115MOL   C10443652   7.987   0.863   0.881 -0.7309  0.0491  0.7458
  115MOL   C10543653   8.008   0.737   0.941  0.1772  0.3805  0.2820
  115MOL   C10643654   7.957   0.709   1.066 -0.3597  0.3323  0.7882
  115MOL   C10743655   7.874   0.803   1.134 -0.4003  0.0246  0.5154
  115MOL   H10843656   7.361   0.978   0.898  0.1204  1.2013 -0.6830
  115MOL   H10943657   7.626   0.950   0.907 -2.5452 -1.9511 -0.4038
  115MOL   H11043658   7.593   1.125   1.169  0.1643 -1.3926  0.5260
  115MOL   H11143659   7.693   1.175   1.038  1.1155 -0.8452 -1.0770
  115MOL   H11243660   7.887   1.050   0.914  1.0123  0.2116 -1.1661
  115MOL   H11343661   8.013   0.892   0.781 -0.9694  1.8753  1.1914
  115MOL   H11443662   8.075   0.663   0.898  0.2020  1.2386 -1.1504
  115MOL   H11543663   7.983   0.616   1.114 -0.4975 -0.4617 -0.6508
  115MOL   C11643664   7.817   0.772   1.269  0.0560 -0.9050 -0.1569
  115MOL   C11743665   7.704   0.678   1.289 -0.0725 -0.1449  0.3512
  115MOL   O11843666   7.837   0.636   1.307  0.2330 -0.5947 -0.4755
  115MOL   C11943667   7.636   0.593   1.181  0.7642  0.2897 -0.2522
  115MOL   O12043668   7.502   0.570   1.239  0.3132 -0.2231 -0.2557
  115MOL   C12143669   7.408   0.516   1.156 -0.2520 -0.3290  0.1362
  115MOL   C12243670   7.422   0.506   1.016  0.2608  0.2400 -0.0403
  115MOL   C12343671   7.322   0.451   0.933 -0.3964  0.5310 -0.8261
  115MOL   C12443672   7.201   0.409   0.989 -0.1433  0.3130  0.2324
  115MOL   C12543673   7.182   0.430   1.125  0.4275  0.7603  0.0472
  115MOL   C12643674   7.284   0.477   1.211  0.0494  0.5669 -0.1606
  115MOL   H12743675   7.845   0.845   1.345 -1.1752 -0.9167  0.3124
  115MOL   H12843676   7.647   0.695   1.381  0.2677 -1.0474  0.7363
  115MOL   H12943677   7.685   0.498   1.162  0.7607 -0.1713  1.9300
  115MOL   H13043678   7.633   0.657   1.092  1.0722 -1.2550 -1.4030
  115MOL   H13143679   7.510   0.526   0.956 -1.4362  1.5080 -2.1819
  115MOL   H13243680   7.345   0.459   0.828  2.2056  0.0476 -0.3465
  115MOL   H13343681   7.121   0.374   0.926  1.2636 -2.3277 -0.2061
  115MOL   H13443682   7.094   0.397   1.179  1.2562 -0.1217  0.9041
  115MOL   C13543683   7.260   0.488   1.356  0.7263  0.0603  0.3028
  115MOL   C13643684   7.152   0.573   1.417  0.0830 -0.1817  0.1047
  115MOL   O13743685   7.140   0.426   1.402  0.0984 -0.5073  0.0807
  115MOL   C13843686   7.052   0.660   1.341 -0.0232  0.0340  0.0056
  115MOL   O13943687   6.984   0.733   1.442  0.0519 -0.4787 -0.6217
  115MOL   C14043688   6.864   0.690   1.500  0.0365  0.1908 -0.8671
  115MOL   C14143689   6.802   0.566   1.471  0.3564  0.1767 -0.1973
  115MOL   C14243690   6.679   0.531   1.523 -0.5403 -0.3660  0.2590
  115MOL   C14343691   6.628   0.615   1.629 -0.2635  0.4529  0.0730
  115MOL   C14443692   6.684   0.741   1.646 -0.1901 -0.6301  0.1171
  115MOL   C14543693   6.795   0.783   1.579  0.0390  0.6041  0.6037
  115MOL   H14643694   7.347   0.472   1.419 -0.0592 -1.7377  0.9941
  115MOL   H14743695   7.175   0.608   1.517  2.5095 -0.2909 -0.3697
  115MOL   H14843696   6.989   0.600   1.275  0.2068 -0.6479  0.4044
  115MOL   H14943697   7.107   0.730   1.279 -0.5851  0.5432  0.0784
  115MOL   H15043698   6.846   0.500   1.398 -0.2511  0.5315 -0.8923
  115MOL   H15143699   6.625   0.441   1.498 -1.7260  0.2252  0.6600
  115MOL   H15243700   6.540   0.581   1.681  0.5608 -1.5149  0.2324
  115MOL   H15343701   6.624   0.797   1.716  0.0052 -0.7869  0.4141
  115MOL   C15443702   6.859   0.917   1.610 -0.4855  0.5670 -0.2464
  115MOL   C15543703   6.840   1.039   1.526  0.4103  0.3101 -0.0268
  115MOL   O15643704   6.759   1.021   1.648 -1.4850 -0.0595  0.8445
  115MOL   C15743705   6.758   1.053   1.396  1.0728  0.1118  0.0950
  115MOL   O15843706   6.771   1.192   1.350  0.1288  0.3132 -0.0735
  115MOL   C15943707   6.723   1.292   1.427 -0.4228  0.2568  0.1632
  115MOL   C16043708   6.634   1.271   1.535 -0.1250  0.1722  0.5220
  115MOL   C16143709   6.606   1.378   1.616  0.9774  0.3873  0.5553
  115MOL   C16243710   6.650   1.511   1.589  0.2086 -0.3374  0.1220
  115MOL   C16343711   6.714   1.532   1.467 -0.3212  0.6996 -0.0138
  115MOL   C16443712   6.760   1.424   1.388  0.1604  0.0349 -0.0973
  115MOL   H16543713   6.932   0.910   1.691 -0.6212 -0.2720 -0.1974
  115MOL   H16643714   6.915   1.116   1.543 -0.1107  0.6121  0.9879
  115MOL   H16743715   6.654   1.024   1.415  1.1272  0.3865  0.8453
  115MOL   H16843716   6.786   0.988   1.314  0.1229 -3.3470  2.3954
  115MOL   H16943717   6.603   1.173   1.567  1.6816 -0.7916 -0.5950
  115MOL   H17043718   6.534   1.363   1.695  1.6591  0.1990  1.1357
  115MOL   H17143719   6.608   1.590   1.649 -0.9319 -1.5292  0.9462
  115MOL   H17243720   6.739   1.631   1.434  3.1339  0.1151  0.7279
  115MOL   C17343721   6.842   1.445   1.265 -0.6556  0.0812  0.7610
  115MOL   C17443722   6.776   1.456   1.132  0.2299  0.5497  0.3332
  115MOL   O17543723   6.805   1.572   1.205  0.2480 -0.1170  0.6883
  115MOL   C17643724   6.629   1.439   1.097 -0.0466 -0.5047  0.2420
  115MOL   O17743725   6.595   1.487   0.965  0.2217 -0.8683 -0.0543
  115MOL   C17843726   6.464   1.483   0.916 -0.4916 -0.1599  0.1195
  115MOL   C17943727   6.351   1.440   0.986  0.8887  0.2007  0.2489
  115MOL   C18043728   6.221   1.452   0.926 -0.4087 -0.3238  0.5517
  115MOL   C18143729   6.213   1.507   0.798 -0.0758  0.1658 -0.3141
  115MOL   C18243730   6.325   1.552   0.734 -0.2631 -0.8803 -0.4483
  115MOL   C18343731   6.451   1.536   0.787 -0.7761  0.2041  0.3510
  115MOL   H18443732   6.947   1.417   1.268 -1.2911 -2.3578  0.5185
  115MOL   H18543733   6.846   1.435   1.050  0.5012 -4.0660  1.6015
  115MOL   H18643734   6.567   1.476   1.179 -0.0077 -0.8851  0.4483
  115MOL   H18743735   6.606   1.333   1.109 -2.5896  0.2197  2.5167
  115MOL   H18843736   6.355   1.413   1.091 -1.3256  0.6468  0.4729
  115MOL   H18943737   6.134   1.428   0.987 -1.3931  1.9324  0.0802
  115MOL   H19043738   6.113   1.524   0.761 -0.9770 -0.3530  1.7844
  115MOL   H19143739   6.302   1.588   0.635  0.6162  1.5132  0.2023
  115MOL   C19243740   6.578   1.576   0.712  0.4064 -0.3419 -0.1415
  115MOL   C19343741   6.669   1.459   0.658  0.2323 -0.9916 -0.0283
  115MOL   O19443742   6.583   1.538   0.574 -0.1350 -1.1214  0.0803
  115MOL   C19543743   6.630   1.311   0.658 -0.0211  0.0553  0.2408
  115MOL   O19643744   6.726   1.221   0.608 -0.0591  0.2486  0.1964
  115MOL   C19743745   6.830   1.185   0.688  0.5174 -0.6772 -0.1705
  115MOL   C19843746   6.841   1.229   0.824  0.0256 -0.1072 -0.9356
  115MOL   C19943747   6.931   1.171   0.914 -0.1152  0.1817  0.4829
  115MOL   C20043748   7.016   1.071   0.858  0.0425  0.5203  0.6819
  115MOL   C20143749   7.008   1.022   0.725 -0.2647 -0.5157 -0.2339
  115MOL   C20243750   6.916   1.085   0.638 -0.3421 -0.0408 -0.5912
  115MOL   H20343751   6.623   1.671   0.740  1.5487 -1.0451  0.4521
  115MOL   H20443752   6.775   1.475   0.640  0.4271 -1.9236  0.2836
  115MOL   H20543753   6.536   1.294   0.604 -0.2996 -0.7853  0.9668
  115MOL   H20643754   6.604   1.285   0.761  3.3421 -0.8090  0.9103
  115MOL   H20743755   6.786   1.312   0.866  1.6853  0.4233  0.2181
  115MOL   H20843756   6.936   1.217   1.011 -1.8225  1.0297  0.1749
  115MOL   H20943757   7.087   1.027   0.926  1.7877  1.7560 -0.3045
  115MOL   H21043758   7.072   0.940   0.693 -0.6005 -0.8149 -0.1418
  115MOL   C21143759   6.923   1.036   0.495 -0.6718 -0.8368 -0.2726
  115MOL   C21243760   6.942   1.128   0.377 -0.1156  0.2411  0.3992
  115MOL   O21343761   7.052   1.062   0.439  0.2537  0.0078  0.3710
  115MOL   C21443762   6.947   1.279   0.363  0.2136  0.1931  0.0240
  115MOL   O21543763   7.038   1.321   0.258 -0.3317 -0.3892 -0.5843
  115MOL   C21643764   7.127   1.427   0.264 -0.0693 -0.2123 -0.4994
  115MOL   C21743765   7.147   1.507   0.142 -0.3319  0.2769 -0.0995
  115MOL   C21843766   7.240   1.613   0.139 -0.8915 -0.2274  0.3655
  115MOL   C21943767   7.311   1.643   0.257 -0.1534 -0.4861  0.4250
  115MOL   C22043768   7.294   1.564   0.377 -0.4288 -0.9528 -0.0385
  115MOL   C22143769   7.213   1.450   0.376  0.0220 -0.6244  0.4116
  115MOL   H22243770   6.891   0.933   0.489  0.7883 -1.4672  2.0360
  115MOL   H22343771   6.912   1.083   0.283  0.9959 -2.1695  1.1490
  115MOL   H22443772   6.969   1.316   0.464 -1.0503 -0.2766  0.4805
  115MOL   H22543773   6.846   1.316   0.345  0.2388  0.1236 -0.2515
  115MOL   H22643774   7.086   1.495   0.054  0.3372  1.4433 -0.7324
  115MOL   H22743775   7.269   1.657   0.045 -0.5881  0.4189  0.7613
  115MOL   H22843776   7.390   1.716   0.262 -0.8878  0.4978 -1.5800
  115MOL   H22943777   7.366   1.581   0.456 -1.8097 -0.0849  1.0462
  115MOL   C23043778   7.214   1.363   0.491  0.3196 -0.6103 -0.8273
  115MOL   C23143779   7.283   1.234   0.503  0.1074  0.2328 -0.6239
  115MOL   O23243780   7.343   1.356   0.547  0.5117  0.6414 -0.0965
  115MOL   C23343781   7.358   1.159   0.390 -0.1326 -0.3573 -0.7687
  115MOL   O23443782   7.476   1.094   0.437  0.1743 -0.0017  0.0140
  115MOL   C23543783   7.479   0.988   0.523  0.7201 -0.4282  0.1655
  115MOL   C23643784   7.366   0.904   0.545  0.4959  0.4415 -0.8139
  115MOL   C23743785   7.375   0.791   0.636 -0.5631  0.2168  0.0541
  115MOL   C23843786   7.501   0.759   0.687 -0.0902  0.8299  0.1215
  115MOL   C23943787   7.608   0.844   0.667 -0.5527  0.1642  0.2141
  115MOL   C24043788   7.600   0.951   0.579 -0.3316 -0.1010  0.9109
  115MOL   H24143789   7.136   1.380   0.565 -0.2865 -0.0282 -1.5979
  115MOL   H24243790   7.237   1.175   0.582 -2.4780  1.1409 -1.4180
  115MOL   H24343791   7.385   1.232   0.313 -0.3695 -0.4118 -0.9046
  115MOL   H24443792   7.280   1.093   0.353 -1.5138  0.4491  0.6311
  115MOL   H24543793   7.272   0.931   0.498 -0.6376 -0.0898  1.0971
  115MOL   H24643794   7.297   0.722   0.665 -0.0986 -0.9342 -1.3824
  115MOL   H24743795   7.513   0.677   0.757  0.4564  0.4321 -0.4354
  115MOL   H24843796   7.708   0.828   0.704  0.2340 -1.9063 -2.6514
  115MOL   C24943797   7.720   1.029   0.535  0.4051  0.4804  0.2939
  115MOL   C25043798   7.755   1.161   0.584 -0.2135 -0.2494 -0.0581
  115MOL   O25143799   7.815   1.047   0.644 -0.1440 -0.1308  0.1758
  115MOL   C25243800   7.669   1.247   0.678  0.5738  0.3805 -0.6457
  115MOL   O25343801   7.738   1.361   0.720  0.3271 -0.3184 -0.2180
  115MOL   C25443802   7.769   1.462   0.637  0.6276  0.4043  0.5576
  115MOL   C25543803   7.685   1.498   0.523 -0.2793  0.1603  0.0972
  115MOL   C25643804   7.709   1.615   0.450  1.1495  1.0055 -0.2826
  115MOL   C25743805   7.821   1.697   0.476 -0.2152  0.5343 -0.1904
  115MOL   C25843806   7.905   1.659   0.586 -0.8020  0.1541  0.3063
  115MOL   C25943807   7.874   1.548   0.669  0.8051  0.8700 -0.4375
  115MOL   H26043808   7.755   0.992   0.439 -1.7395  0.1869 -0.3916
  115MOL   H26143809   7.821   1.217   0.518  2.3685 -1.6351  1.2487
  115MOL   H26243810   7.647   1.183   0.764 -1.3957  3.5287  1.3145
  115MOL   H26343811   7.572   1.269   0.633  1.7466  0.3643 -3.2548
  115MOL   H26443812   7.616   1.425   0.484 -0.0407 -1.4054  2.4423
  115MOL   H26543813   7.640   1.638   0.371  0.2508 -0.3133  0.1074
  115MOL   H26643814   7.845   1.777   0.408 -0.1104 -0.8119 -1.7554
  115MOL   H26743815   7.988   1.721   0.618 -2.3863  2.4300  0.1300
  115MOL   C26843816   7.955   1.528   0.790  0.1488  0.9641  0.1131
  115MOL   C26943817   8.068   1.438   0.794 -0.0863 -0.0478  0.3729
  115MOL   O27043818   8.088   1.579   0.786 -0.1262  0.1750 -0.3136
  115MOL   C27143819   8.114   1.354   0.675 -0.4899 -0.4875  0.6333
  115MOL   O27243820   0.065   1.288   0.721  0.2749 -0.3352  0.0183
  115MOL   C27343821   0.107   1.180   0.643  0.8460 -0.9051 -0.2251
  115MOL   C27443822   0.031   1.061   0.650  0.1630  0.0742  0.5042
  115MOL   C27543823   0.079   0.949   0.574  0.2117  0.2138 -0.2910
  115MOL   C27643824   0.189   0.968   0.480  0.3458 -1.2406  0.2159
  115MOL   C27743825   0.251   1.093   0.472  0.2137  0.0472 -0.8544
  115MOL   C27843826   0.218   1.193   0.566  0.5695  0.1573  0.5705
  115MOL   H27943827   7.897   1.517   0.881 -0.5890  0.5973 -0.3901
  115MOL   H28043828   8.087   1.398   0.894 -1.7844 -1.2228  0.2404
  115MOL   H28143829   8.119   1.418   0.587 -2.4809 -0.6284  0.4053
  115MOL   H28243830   8.034   1.292   0.635 -0.4832  0.2091 -0.4800
  115MOL   H28343831   8.123   1.041   0.722 -0.6021 -3.4916 -1.2255
  115MOL   H28443832   0.034   0.851   0.576  2.5641 -0.9505 -2.4808
  115MOL   H28543833   0.226   0.887   0.419  0.3798 -0.3116 -0.9995
  115MOL   H28643834   0.329   1.100   0.398  0.0874 -1.1553 -1.1211
  115MOL   C28743835   0.285   1.328   0.577 -0.1135 -0.1288 -0.1226
  115MOL   C28843836   0.407   1.358   0.666 -0.5986  0.1049  0.1717
  115MOL   O28943837   0.414   1.317   0.523  0.4224  0.2290  0.9213
  115MOL   C29043838   0.479   1.260   0.762  0.6606 -0.3622 -0.3060
  115MOL   O29143839   0.620   1.281   0.771  0.6647  0.5762  0.5229
  115MOL   C29243840   0.700   1.187   0.714  0.4938  0.8264 -1.2175
  115MOL   C29343841   0.698   1.158   0.582 -0.0810 -0.6120  0.0262
  115MOL   C29443842   0.777   1.066   0.520  0.4630  0.4909 -0.3485
  115MOL   C29543843   0.870   0.993   0.595 -0.7665  0.4079  0.4705
  115MOL   C29643844   0.876   1.022   0.732 -0.0711  0.4223 -0.3622
  115MOL   C29743845   0.786   1.109   0.796  0.4239 -0.4938 -0.2388
  115MOL   H29843846   0.224   1.405   0.531  2.2860  0.9152 -1.6349
  115MOL   H29943847   0.418   1.462   0.694 -0.4208  0.2630 -0.4724
  115MOL   H30043848   0.445   1.158   0.742  0.8691 -0.5552  0.3173
  115MOL   H30143849   0.460   1.288   0.866  1.4800 -0.7919 -0.0417
  115MOL   H30243850   0.632   1.215   0.519  2.5284  0.5539 -1.7045
  115MOL   H30343851   0.776   1.051   0.413 -0.3087 -0.5985 -0.1998
  115MOL   H30443852   0.933   0.912   0.561  0.8514  2.2991 -1.1427
  115MOL   H30543853   0.947   0.962   0.788  0.8720  1.0734 -0.8405
  115MOL   C30643854   0.784   1.130   0.946  0.4807  0.0721 -0.7970
  115MOL   C30743855   0.723   1.034   1.040  0.2544 -0.4006  0.1846
  115MOL   O30843856   0.868   1.041   1.022  0.4150  0.2936  0.0535
  115MOL   C30943857   0.659   0.898   1.000 -0.1421  0.9218 -0.0070
  115MOL   O31043858   0.536   0.932   0.930  0.0964 -0.2511  0.4074
  115MOL   C31143859   0.435   0.841   0.923  0.0794 -0.2264  0.0995
  115MOL   C31243860   0.463   0.704   0.897  0.3997  0.1277 -0.2153
  115MOL   C31343861   0.360   0.610   0.880 -0.1237 -0.0124 -0.1153
  115MOL   C31443862   0.225   0.650   0.892  0.2047  0.8031  0.2152
  115MOL   C31543863   0.195   0.784   0.927  0.0976  1.0338  0.6280
  115MOL   C31643864   0.296   0.882   0.938 -0.0715  0.1784  0.1728
  115MOL   H31743865   0.784   1.233   0.980 -3.7249 -0.2618  0.4594
  115MOL   H31843866   0.690   1.075   1.135 -0.1595  2.4723 -1.1590
  115MOL   H31943867   0.645   0.854   1.099  2.8867 -2.0523 -0.8023
  115MOL   H32043868   0.729   0.826   0.957 -0.7613  0.2974  0.0014
  115MOL   H32143869   0.564   0.671   0.879  1.1260  2.0022  0.2360
  115MOL   H32243870   0.377   0.505   0.861 -0.9476 -0.3716  1.0862
  115MOL   H32343871   0.145   0.577   0.890 -1.0168  2.0604  1.7045
  115MOL   H32443872   0.094   0.820   0.936  0.8670  3.9005 -1.2126
  115MOL   C32543873   0.264   1.024   0.970 -0.6596  0.2983  0.2780
  115MOL   C32643874   0.171   1.063   1.080 -0.6976  0.1538 -0.2145
  115MOL   O32743875   0.316   1.070   1.098 -0.1360  0.3161 -0.1889
  115MOL   C32843876   0.097   0.975   1.181 -1.0243  0.2495 -0.0352
  115MOL   O32943877   0.067   1.050   1.304  0.1151  0.2216 -0.0630
  115MOL   C33043878   8.153   0.985   1.388  0.0129 -0.5940 -1.1763
  115MOL   C33143879   8.146   0.846   1.409 -0.3536  0.5146 -0.4802
  115MOL   C33243880   8.063   0.788   1.506 -0.3832 -0.4889 -1.1418
  115MOL   C33343881   7.991   0.864   1.600  0.3283  0.1777 -0.0178
  115MOL   C33443882   8.007   1.006   1.579 -0.4780  0.0943 -0.1791
  115MOL   C33543883   8.084   1.068   1.477  0.2885  0.1519 -0.2212
  115MOL   H33643884   0.290   1.086   0.884  1.2281 -1.0520 -0.1529
  115MOL   H33743885   0.118   1.158   1.076 -2.5261 -0.8073  0.4532
  115MOL   H33843886   0.161   0.890   1.206  0.3449  0.6069 -2.2342
  115MOL   H33943887   0.008   0.943   1.127 -0.5377  1.0437 -1.3281
  115MOL   H34043888   0.042   0.779   1.355  1.7688  1.9247  0.2697
  115MOL   H34143889   8.058   0.680   1.511 -0.6047 -0.3783  2.4083
  115MOL   H34243890   7.939   0.826   1.687 -0.6308 -1.1279 -1.1425
  115MOL   H34343891   7.954   1.072   1.647  0.2384  0.9985 -0.4826
  115MOL   C34443892   8.107   1.225   1.472 -0.4816 -0.0537 -0.2587
  115MOL   C34543893   8.065   1.321   1.367 -0.6329 -0.2881  0.2129
  115MOL   O34643894   7.986   1.297   1.484  0.2032 -0.6218 -0.2273
  115MOL   C34743895   8.005   1.277   1.237 -0.1078  0.2703  0.5296
  115MOL   O34843896   7.871   1.334   1.216  0.2649 -0.4170 -0.0879
  115MOL   C34943897   7.861   1.472   1.190 -0.2354 -0.7552  0.1931
  115MOL   C35043898   7.973   1.550   1.156 -0.6361 -0.7819  0.8616
  115MOL   C35143899   7.957   1.689   1.122 -0.0076  0.3384  0.2104
  115MOL   C35243900   7.831   1.749   1.117  0.3943 -0.4166 -0.1256
  115MOL   C35343901   7.722   1.667   1.149 -0.4522 -0.5064 -1.0203
  115MOL   C35443902   7.732   1.532   1.180 -0.0561 -0.2246  0.1035
  115MOL   H35543903   0.016   1.255   1.541  1.4698 -3.4555 -0.8794
  115MOL   H35643904   8.124   1.412   1.366 -1.7805  0.4596 -0.1532
  115MOL   H35743905   7.986   1.170   1.235 -0.9735  0.4308 -1.8819
  115MOL   H35843906   8.079   1.281   1.158  0.6583  2.4632  1.3306
  115MOL   H35943907   8.077   1.519   1.154  0.1934  1.8562 -0.3152
  115MOL   H36043908   8.050   1.744   1.115  0.3653  0.0746  2.8171
  115MOL   H36143909   7.829   1.857   1.116  1.4738 -0.3923 -0.2676
  115MOL   H36243910   7.625   1.714   1.160 -0.4367 -0.9086  0.9723
  115MOL   C36343911   7.603   1.468   1.226 -0.7248 -0.0465 -0.0735
  115MOL   C36443912   7.570   1.396   1.355  0.7348 -0.6868 -0.0574
  115MOL   O36543913   7.549   1.538   1.339  0.0503  0.6952  0.5060
  115MOL   C36643914   7.678   1.352   1.456 -0.3088 -0.0387  0.1995
  115MOL   O36743915   7.613   1.318   1.580  0.0666 -0.2398  0.8372
  115MOL   C36843916   7.567   1.191   1.603 -1.1604 -0.1701  0.3782
  115MOL   C36943917   7.530   1.094   1.506  0.4072 -0.4813 -0.4239
  115MOL   C37043918   7.466   0.975   1.541  0.6408  0.3497  0.1520
  115MOL   C37143919   7.444   0.942   1.675  0.5050  0.6917  0.2348
  115MOL   C37243920   7.488   1.032   1.769 -0.5548  0.7955 -0.2822
  115MOL   C37343921   7.553   1.153   1.738 -0.0613 -0.1454  0.9721
  115MOL   H37443922   7.531   1.443   1.149  1.3936 -0.4530 -1.9544
  115MOL   H37543923   7.481   1.333   1.357 -0.6945  1.3046  0.4624
  115MOL   H37643924   7.747   1.437   1.454 -0.3674  0.0032 -0.3203
  115MOL   H37743925   7.718   1.259   1.415  0.3953  0.3361  0.0327
  115MOL   H37843926   7.534   1.114   1.400  1.0453 -1.1495 -0.5347
  115MOL   H37943927   7.420   0.920   1.460 -1.3534  1.9589  0.1597
  115MOL   H38043928   7.384   0.862   1.717 -0.7756  0.6960 -1.4978
  115MOL   H38143929   7.462   1.005   1.870 -0.7310 -2.6558 -1.1815
  115MOL   H38243930   7.574   1.222   1.819 -0.2346  1.2850 -0.1766
  116MOL     C143931   4.372   3.449   1.803  0.2361 -0.1432 -0.2391
  116MOL     C243932   4.477   3.557   1.781  0.0500  0.2290  0.7043
  116MOL     O343933   4.368   3.584   1.858 -0.4969 -0.0399 -0.4129
  116MOL     C443934   4.497   3.623   1.645  0.3520  0.4598  0.1347
  116MOL     O543935   4.538   3.758   1.646  0.3194  0.2493 -0.0591
  116MOL     C643936   4.660   3.776   1.698 -0.0535 -0.2306 -0.2305
  116MOL     C743937   4.775   3.712   1.648 -1.3306 -0.4464 -0.7567
  116MOL     C843938   4.899   3.753   1.686 -0.6269  0.9923  0.6511
  116MOL     C943939   4.924   3.860   1.771  0.2856  0.5586  0.6010
  116MOL    C1043940   4.816   3.926   1.827  1.2510  0.5606 -0.0531
  116MOL    C1143941   4.682   3.887   1.789  0.5029 -0.2400 -0.2060
  116MOL    H1243942   4.377   3.385   1.891 -0.5516  0.9345  0.6064
  116MOL    H1343943   4.573   3.537   1.829  0.7869  0.4406 -0.6517
  116MOL    H1443944   4.402   3.629   1.593  0.0510 -0.5422  0.5733
  116MOL    H1543945   4.568   3.568   1.582  0.4955 -0.9211  1.4922
  116MOL    H1643946   4.772   3.621   1.590  0.7070 -0.8242 -0.3226
  116MOL    H1743947   4.990   3.709   1.649 -0.0116  2.5086  0.3512
  116MOL    H1843948   5.023   3.896   1.791 -0.4345  2.0829  1.5219
  116MOL    H1943949   4.832   4.009   1.894 -0.2450  2.1125 -1.5767
  116MOL    H2043950   4.300   3.438   1.722  1.9700  0.6800 -1.9275
  116MOL    C2143951   4.559   3.961   1.835 -0.3074  0.3441 -0.0831
  116MOL    C2243952   4.486   3.923   1.955  0.5520  0.3060 -0.7507
  116MOL    O2343953   4.576   4.035   1.960  0.2465  0.4551  0.1304
  116MOL    C2443954   4.519   3.802   2.044 -0.4342 -0.2533  0.0691
  116MOL    O2543955   4.400   3.743   2.100  0.5828 -0.1905  0.6156
  116MOL    C2643956   4.313   3.814   2.177  0.9872  0.2540 -0.1482
  116MOL    C2743957   4.360   3.923   2.256  0.5816  0.5488 -0.1322
  116MOL    C2843958   4.272   4.002   2.332 -0.5297  0.1886 -0.1378
  116MOL    C2943959   4.135   3.971   2.332 -0.1669  0.0275  0.4038
  116MOL    C3043960   4.086   3.869   2.248 -0.3803 -0.6546 -0.1119
  116MOL    C3143961   4.174   3.793   2.167 -0.3355 -0.2592  0.0370
  116MOL    H3243962   4.517   4.025   1.759  0.4666 -0.0991 -0.8857
  116MOL    H3343963   4.382   3.953   1.971  0.7728  0.6655  0.0045
  116MOL    H3443964   4.593   3.828   2.120  2.1322  1.4295 -2.8973
  116MOL    H3543965   4.571   3.728   1.983 -0.8764 -1.7244  1.4287
  116MOL    H3643966   4.462   3.958   2.263  0.6644  0.1704  0.6395
  116MOL    H3743967   4.308   4.080   2.397 -2.3588  0.3695  0.6833
  116MOL    H3843968   4.068   4.024   2.398 -1.6159 -0.1719 -0.8580
  116MOL    H3943969   3.981   3.852   2.263 -0.2913  0.2725  1.6646
  116MOL    C4043970   4.105   3.696   2.073  0.2135  0.3800  0.2801
  116MOL    C4143971   4.024   3.578   2.124 -0.3611  0.3229 -0.3467
  116MOL    O4243972   3.957   3.698   2.090  0.7842 -0.2422 -0.0084
  116MOL    C4343973   4.026   3.536   2.274  0.6762  0.1516  0.0437
  116MOL    O4443974   4.115   3.428   2.304 -1.2322  0.2473  0.2391
  116MOL    C4543975   4.131   3.397   2.435 -0.1484  0.3605 -0.4929
  116MOL    C4643976   4.049   3.458   2.533 -0.5396 -0.1223 -0.4802
  116MOL    C4743977   4.076   3.421   2.667 -0.0758  0.0922  0.4969
  116MOL    C4843978   4.182   3.338   2.706  0.3600  0.0229  0.1771
  116MOL    C4943979   4.261   3.282   2.602  0.2467  0.7062  0.5750
  116MOL    C5043980   4.238   3.312   2.468 -0.9801 -0.3495 -0.2930
  116MOL    H5143981   4.131   3.704   1.968 -1.6371  2.2517 -0.0822
  116MOL    H5243982   3.997   3.499   2.055 -1.4646  0.1154  0.3156
  116MOL    H5343983   3.922   3.505   2.291  0.2053  1.2186 -0.8200
  116MOL    H5443984   4.058   3.626   2.325  3.8753 -0.6242 -0.4743
  116MOL    H5543985   3.965   3.522   2.509 -0.8844  0.0386  1.0709
  116MOL    H5643986   4.006   3.452   2.743  0.0264 -0.6061  0.8865
  116MOL    H5743987   4.194   3.298   2.805 -0.8188 -2.2080 -0.5466
  116MOL    H5843988   4.342   3.216   2.630  0.6386  0.4784 -1.0515
  116MOL    C5943989   4.319   3.239   2.368 -0.5222 -0.3362 -0.5759
  116MOL    C6043990   4.404   3.296   2.253 -0.0543  0.0601 -0.8052
  116MOL    O6143991   4.461   3.268   2.377  0.2356  0.1052 -0.2084
  116MOL    C6243992   4.411   3.441   2.214 -0.6241  0.2701  0.9142
  116MOL    O6343993   4.521   3.451   2.127 -0.5886  0.5286  0.2118
  116MOL    C6443994   4.639   3.502   2.172  0.3343 -0.0446 -0.3416
  116MOL    C6543995   4.643   3.610   2.260  0.2060 -0.4897 -0.4700
  116MOL    C6643996   4.764   3.653   2.311  0.5730  0.2754  0.1941
  116MOL    C6743997   4.883   3.615   2.256 -0.1527  0.3663 -0.0886
  116MOL    C6843998   4.879   3.512   2.161 -0.6938 -0.2402  0.1166
  116MOL    C6943999   4.758   3.449   2.118  0.4743 -0.1710  0.5254
  116MOL    H7044000   4.282   3.139   2.345 -0.7199  0.1893 -2.5893
  116MOL    H7144001   4.428   3.224   2.174 -0.8042  0.1464 -1.1149
  116MOL    H7244002   4.404   3.501   2.304 -3.3948 -0.2901  1.1169
  116MOL    H7344003   4.328   3.471   2.151  0.4310 -0.8199 -1.0792
  116MOL    H7444004   4.548   3.653   2.290 -0.9459 -2.5522 -1.0691
  116MOL    H7544005   4.759   3.733   2.383  2.1987 -0.7459  1.4798
  116MOL    H7644006   4.975   3.659   2.293 -0.2266  1.8371 -1.6181
  116MOL    H7744007   4.977   3.475   2.135  0.3117  0.7011  2.4534
  116MOL    C7844008   4.741   3.329   2.030  0.3330 -0.7376 -0.9692
  116MOL    C7944009   4.811   3.299   1.897  0.3647 -0.2274  0.4401
  116MOL    O8044010   4.865   3.247   2.017 -0.2138 -0.1319 -0.1244
  116MOL    C8144011   4.902   3.399   1.817  0.1876 -0.3846  0.4342
  116MOL    O8244012   4.956   3.352   1.697  0.1880 -0.0472  0.6692
  116MOL    C8344013   5.051   3.253   1.699 -0.8448  0.3073  0.1531
  116MOL    C8444014   5.098   3.186   1.818  0.3769  0.0124 -0.0314
  116MOL    C8544015   5.212   3.105   1.812  0.7518 -0.2424  0.3434
  116MOL    C8644016   5.280   3.077   1.689  0.6574 -0.5030 -0.1280
  116MOL    C8744017   5.223   3.131   1.570 -0.5654  0.6234 -0.6562
  116MOL    C8844018   5.120   3.225   1.577  0.0024 -0.5267  0.7178
  116MOL    H8944019   4.651   3.270   2.045  0.0566  0.2754  1.5552
  116MOL    H9044020   4.757   3.224   1.841 -1.7648  0.9901  0.8012
  116MOL    H9144021   4.985   3.430   1.880  0.1062 -0.1048  0.4023
  116MOL    H9244022   4.846   3.491   1.800  2.3782  0.8307 -0.3847
  116MOL    H9344023   5.053   3.204   1.914 -1.7464  0.3227 -1.0445
  116MOL    H9444024   5.250   3.061   1.903  2.8722  0.7501 -0.0232
  116MOL    H9544025   5.366   3.012   1.694 -0.3250 -1.9146 -1.1380
  116MOL    H9644026   5.268   3.116   1.474 -0.0269 -1.5812 -0.0916
  116MOL    C9744027   5.072   3.300   1.453  0.8616  0.2685  0.4364
  116MOL    C9844028   5.149   3.407   1.373  0.1015 -0.4878  0.1757
  116MOL    O9944029   5.146   3.271   1.329  0.0002 -0.0425  0.1126
  116MOL   C10044030   5.280   3.468   1.417  0.7955 -0.1207 -0.3354
  116MOL   O10144031   5.280   3.610   1.436 -0.1200 -0.4457 -0.1329
  116MOL   C10244032   5.272   3.657   1.568  0.0255  0.1823  0.0223
  116MOL   C10344033   5.237   3.580   1.679  0.1848 -0.3735  0.3054
  116MOL   C10444034   5.247   3.634   1.806  0.1944  0.1292 -0.3165
  116MOL   C10544035   5.270   3.773   1.820 -0.0215  0.4482  0.1931
  116MOL   C10644036   5.293   3.850   1.707 -0.3961  0.1240  0.9671
  116MOL   C10744037   5.299   3.791   1.578 -0.6781  0.6269 -0.0083
  116MOL   H10844038   4.965   3.306   1.432  1.0634  0.7469 -0.5134
  116MOL   H10944039   5.096   3.476   1.308  3.0891  0.4733 -1.3600
  116MOL   H11044040   5.340   3.455   1.327 -0.5616 -0.7149 -1.1688
  116MOL   H11144041   5.330   3.409   1.494  1.1747  0.0919 -0.4191
  116MOL   H11244042   5.221   3.474   1.669 -0.9020 -0.1177 -0.9350
  116MOL   H11344043   5.231   3.577   1.896  3.1466  1.5751  1.1967
  116MOL   H11444044   5.261   3.814   1.919  0.3802 -0.4004  0.5882
  116MOL   H11544045   5.311   3.956   1.717 -1.0069  0.4718 -1.2802
  116MOL   C11644046   5.338   3.868   1.457 -0.1167 -0.0540  0.3703
  116MOL   C11744047   5.253   3.981   1.400 -0.6011  0.9256  0.7059
  116MOL   O11844048   5.370   4.005   1.480 -0.1559  0.5637  0.3142
  116MOL   C11944049   5.106   4.004   1.448  0.3437 -0.1647 -0.2723
  116MOL   O12044050   5.056   4.128   1.413 -0.1770  0.1923  0.1101
  116MOL   C12144051   4.938   4.160   1.467 -0.0670  0.2911  0.6395
  116MOL   C12244052   4.826   4.077   1.441  0.1939 -0.1612  0.4974
  116MOL   C12344053   4.700   4.116   1.491 -0.1952  0.5968 -0.1199
  116MOL   C12444054   4.689   4.233   1.576 -0.0197  0.1314 -0.5318
  116MOL   C12544055   4.806   4.303   1.609  0.7001 -0.0243  0.0591
  116MOL   C12644056   4.927   4.273   1.549  0.1299  0.1932 -0.0674
  116MOL   H12744057   5.401   3.813   1.387  0.0278 -1.3156  1.4784
  116MOL   H12844058   5.274   4.009   1.297 -0.2840 -0.7211  0.3094
  116MOL   H12944059   5.098   3.980   1.554 -0.1903 -2.0163 -0.7092
  116MOL   H13044060   5.056   3.920   1.401 -1.8606  0.3546  1.0779
  116MOL   H13144061   4.850   3.996   1.374  0.7827 -0.6919  1.3302
  116MOL   H13244062   4.616   4.056   1.462  1.3097 -1.5801 -0.0731
  116MOL   H13344063   4.594   4.260   1.619  1.8505  3.5883  1.7054
  116MOL   H13444064   4.788   4.388   1.674  0.6319  0.9477 -1.2147
  116MOL   C13544065   5.044   4.347   1.598  0.0243  0.0311 -0.2950
  116MOL   C13644066   5.092   4.468   1.519 -1.0592  0.1060  0.2567
  116MOL   O13744067   5.000   4.481   1.630  0.3279 -0.1489 -0.6877
  116MOL   C13844068   5.040   4.512   1.384  0.1355  0.9405 -0.2847
  116MOL   O13944069   5.144   4.582   1.320 -0.5179  0.7614 -0.3705
  116MOL   C14044070   5.137   4.718   1.310  0.0582 -0.3173 -0.2074
  116MOL   C14144071   5.022   4.797   1.346  0.5208 -0.8550 -0.7561
  116MOL   C14244072   5.022   4.935   1.324  0.2183  0.5091  0.7048
  116MOL   C14344073   5.141   4.996   1.263  1.4756  0.4436  0.4554
  116MOL   C14444074   5.253   4.918   1.224 -0.1815  0.1037 -0.1736
  116MOL   C14544075   5.255   4.778   1.253  0.1944  0.1233 -0.0923
  116MOL   H14644076   5.105   4.289   1.666 -1.9103 -2.6776 -0.7754
  116MOL   H14744077   5.191   4.507   1.539 -1.2204  1.6378 -1.7393
  116MOL   H14844078   4.947   4.560   1.418  1.4159  2.5433  1.0634
  116MOL   H14944079   5.018   4.429   1.316  1.2192 -0.0417  0.5509
  116MOL   H15044080   4.930   4.761   1.389  0.8431 -0.5931  0.1694
  116MOL   H15144081   4.932   4.992   1.338  0.0398  0.3908  0.0396
  116MOL   H15244082   5.134   5.101   1.237  2.7435 -0.2215 -2.8489
  116MOL   H15344083   5.335   4.966   1.174  0.3871 -0.0067  0.6287
  116MOL   C15444084   5.382   4.688   1.226 -0.5395 -1.0029  0.2451
  116MOL   C15544085   5.400   4.621   1.096  0.0013  0.3342 -0.5372
  116MOL   O15644086   5.471   4.740   1.128  0.2896  0.2199  0.8962
  116MOL   C15744087   5.290   4.631   0.990 -0.6687 -0.1070 -0.3150
  116MOL   O15844088   5.346   4.598   0.860 -0.3104 -0.8916  0.0152
  116MOL   C15944089   5.261   4.572   0.753  0.1059  0.8572  0.0949
  116MOL   C16044090   5.121   4.553   0.762 -0.3012 -0.1531 -0.3108
  116MOL   C16144091   5.052   4.515   0.640  0.0525 -0.4046  0.2776
  116MOL   C16244092   5.122   4.503   0.519 -0.6287 -0.2630 -1.0128
  116MOL   C16344093   5.255   4.513   0.519 -0.3059 -0.2743  0.2518
  116MOL   C16444094   5.330   4.549   0.629  0.0917  0.0873  1.2052
  116MOL   H16544095   5.421   4.637   1.313 -1.4710 -2.3821 -0.1071
  116MOL   H16644096   5.467   4.536   1.088  0.9079  0.5398  3.6205
  116MOL   H16744097   5.255   4.734   0.988  2.5672  1.1239  2.1312
  116MOL   H16844098   5.213   4.558   1.016 -1.1196  0.1146 -0.9900
  116MOL   H16944099   5.070   4.574   0.854 -0.9703 -0.9642 -0.4846
  116MOL   H17044100   4.945   4.501   0.636 -0.3238  2.0600  0.6618
  116MOL   H17144101   5.070   4.477   0.428 -1.9282  0.0116 -0.3675
  116MOL   H17244102   5.317   4.481   0.436  1.9379  1.7881  1.0808
  116MOL   C17344103   5.481   4.554   0.619 -0.3678 -0.0509 -0.1835
  116MOL   C17444104   5.584   4.470   0.700 -0.4852 -0.5665  0.1189
  116MOL   O17544105   5.536   4.434   0.569 -0.2329 -0.8934  0.4345
  116MOL   C17644106   5.568   4.359   0.803 -0.3808  0.1457 -0.1363
  116MOL   O17744107   5.699   4.317   0.851  0.1307 -0.3398  0.3496
  116MOL   C17844108   5.769   4.387   0.944 -0.1383  0.1093 -0.1626
  116MOL   C17944109   5.742   4.521   0.983  0.0569 -0.4644 -0.1157
  116MOL   C18044110   5.816   4.583   1.085  0.1578 -0.2502 -0.5904
  116MOL   C18144111   5.927   4.514   1.146 -0.0543  0.4132 -0.0935
  116MOL   C18244112   5.939   4.379   1.120  0.1046 -0.1254  0.3170
  116MOL   C18344113   5.876   4.318   1.008  1.0068 -0.6314  0.1596
  116MOL   H18444114   5.520   4.643   0.570  1.1778 -0.5119  0.2027
  116MOL   H18544115   5.684   4.510   0.683 -1.1750  0.9137 -0.5848
  116MOL   H18644116   5.526   4.274   0.749  1.8541 -0.0353 -1.6642
  116MOL   H18744117   5.504   4.401   0.881 -0.0029 -0.7017  0.6375
  116MOL   H18844118   5.655   4.580   0.957  1.0459  0.6635 -0.9084
  116MOL   H18944119   5.785   4.681   1.117  0.0665 -0.6724  0.6224
  116MOL   H19044120   5.980   4.563   1.226  0.7379 -1.3565  0.4833
  116MOL   H19144121   6.011   4.314   1.169  0.0656 -1.0439 -0.8156
  116MOL   C19244122   5.924   4.181   0.982 -0.2882 -0.4726  0.1491
  116MOL   C19344123   6.003   4.155   0.854  0.6269 -0.0114 -0.4087
  116MOL   O19444124   6.067   4.167   0.980 -0.7097 -0.0692  0.0159
  116MOL   C19544125   6.044   4.262   0.759  0.0098  0.7011  0.4136
  116MOL   O19644126   6.138   4.204   0.664 -0.1070  0.3180 -0.1965
  116MOL   C19744127   6.086   4.118   0.568 -0.0389  0.5466 -0.0770
  116MOL   C19844128   5.947   4.092   0.545 -0.2421  0.4545  0.0041
  116MOL   C19944129   5.908   4.011   0.435  0.1627 -0.0676 -0.1533
  116MOL   C20044130   6.007   3.956   0.351 -0.4196 -0.1821  0.6081
  116MOL   C20144131   6.146   3.975   0.381  0.0309  0.4072  0.7805
  116MOL   C20244132   6.184   4.061   0.484 -0.7744 -0.0274 -0.1574
  116MOL   H20344133   5.855   4.104   1.018  1.7494 -1.9636  0.9539
  116MOL   H20444134   6.018   4.055   0.815 -0.4797 -0.1479 -0.5110
  116MOL   H20544135   6.096   4.338   0.817  2.9158  0.6448 -1.9974
  116MOL   H20644136   5.965   4.315   0.706 -1.4015  0.1698  1.9744
  116MOL   H20744137   5.873   4.140   0.607 -0.5617  0.8648 -0.6912
  116MOL   H20844138   5.803   3.993   0.421 -0.1457  0.3904  1.4739
  116MOL   H20944139   5.989   3.878   0.277  1.5523  1.0855 -1.2604
  116MOL   H21044140   6.228   3.928   0.329 -1.4944  0.2865 -1.5705
  116MOL   C21144141   6.332   4.090   0.511  0.4885  0.0175 -0.4236
  116MOL   C21244142   6.416   4.038   0.627 -0.2824  0.0071 -0.3394
  116MOL   O21344143   6.417   3.981   0.492 -0.4674  0.2978 -0.3519
  116MOL   C21444144   6.353   3.946   0.733  0.4574 -0.4948  0.9792
  116MOL   O21544145   6.453   3.886   0.821  0.8352 -0.2304 -0.0789
  116MOL   C21644146   6.514   3.768   0.785  0.2994 -0.4103 -0.0015
  116MOL   C21744147   6.520   3.722   0.649 -0.4796 -0.1625  0.1205
  116MOL   C21844148   6.561   3.591   0.612  0.7829 -0.4915  0.1534
  116MOL   C21944149   6.601   3.506   0.716 -0.7048  0.1469  0.4204
  116MOL   C22044150   6.610   3.556   0.844 -0.6152 -0.3780  0.1921
  116MOL   C22144151   6.578   3.688   0.885 -0.1172 -0.3259 -0.0771
  116MOL   H22244152   6.367   4.183   0.468  1.0465 -0.3639 -0.7926
  116MOL   H22344153   6.503   4.100   0.646 -0.5319  0.4006 -0.4756
  116MOL   H22444154   6.277   3.874   0.701 -0.1657  0.7226 -0.3268
  116MOL   H22544155   6.303   4.017   0.799  1.3940  0.4354  0.6934
  116MOL   H22644156   6.472   3.778   0.571  1.1290  2.3349  0.8437
  116MOL   H22744157   6.538   3.555   0.513  0.6463 -1.6932  0.6174
  116MOL   H22844158   6.611   3.403   0.685  0.4430  0.7243 -1.1943
  116MOL   H22944159   6.642   3.490   0.924 -1.0680  0.9601  1.4829
  116MOL   C23044160   6.584   3.735   1.029  0.7552 -0.8880 -0.2344
  116MOL   C23144161   6.459   3.727   1.111  0.2780  0.1648 -0.5676
  116MOL   O23244162   6.572   3.632   1.125  0.1101 -0.5970  0.5621
  116MOL   C23344163   6.328   3.666   1.067 -0.5918  0.2860 -0.0881
  116MOL   O23444164   6.254   3.631   1.185  0.5794 -0.2739  0.2980
  116MOL   C23544165   6.187   3.510   1.186 -0.0502 -0.4261 -0.3852
  116MOL   C23644166   6.136   3.451   1.070 -0.1813  0.0682 -0.1316
  116MOL   C23744167   6.049   3.340   1.072 -0.1563 -0.2538 -0.7411
  116MOL   C23844168   6.015   3.288   1.208  0.9243  0.3360 -0.0428
  116MOL   C23944169   6.071   3.346   1.322  0.1941 -0.2903 -0.1007
  116MOL   C24044170   6.154   3.458   1.310  0.0143  0.2070 -0.0939
  116MOL   H24144171   6.665   3.807   1.037  0.2801 -0.3864  0.1179
  116MOL   H24244172   6.449   3.794   1.197  0.2647  1.1323 -1.3094
  116MOL   H24344173   6.359   3.588   0.998 -0.6406  0.8461 -0.7382
  116MOL   H24444174   6.270   3.743   1.018 -0.6790 -0.0132 -0.4561
  116MOL   H24544175   6.161   3.492   0.973  2.7539 -0.6022  0.3024
  116MOL   H24644176   6.009   3.287   0.987  0.3605 -0.8018 -0.6458
  116MOL   H24744177   5.956   3.199   1.220  2.9052 -1.1851 -1.3448
  116MOL   H24844178   6.051   3.306   1.420  0.8830  1.0093  0.5885
  116MOL   C24944179   6.210   3.522   1.430 -0.1046  0.1235  0.2149
  116MOL   C25044180   6.155   3.648   1.487 -0.7958 -0.1918  0.5186
  116MOL   O25144181   6.115   3.515   1.535  0.5775  0.1595 -0.1658
  116MOL   C25244182   6.054   3.730   1.417  0.6359 -0.4127 -0.1854
  116MOL   O25344183   5.983   3.830   1.493 -0.0533  0.1702 -0.2443
  116MOL   C25444184   5.864   3.808   1.566  0.1035 -0.7015  0.3781
  116MOL   C25544185   5.828   3.679   1.598 -0.5485  0.7133 -0.0526
  116MOL   C25644186   5.701   3.654   1.652  0.3512  0.1602 -0.0313
  116MOL   C25744187   5.624   3.767   1.693 -0.1370 -0.0379 -0.5874
  116MOL   C25844188   5.676   3.898   1.677  0.1966  0.0470  0.9320
  116MOL   C25944189   5.794   3.922   1.604 -0.2606  0.4544  1.0205
  116MOL   H26044190   6.307   3.486   1.464  1.1072  5.3208  2.7662
  116MOL   H26144191   6.219   3.709   1.551 -0.5645  3.2267 -2.8180
  116MOL   H26244192   5.981   3.668   1.365 -1.4836  2.0962 -0.2843
  116MOL   H26344193   6.103   3.778   1.332 -0.2187  0.9992  0.1207
  116MOL   H26444194   5.891   3.604   1.552 -3.1726 -1.1763 -0.6838
  116MOL   H26544195   5.678   3.551   1.674  0.8734 -0.6559 -2.9551
  116MOL   H26644196   5.531   3.744   1.744 -0.1484 -0.5115 -0.8149
  116MOL   H26744197   5.618   3.981   1.716  0.1566 -0.1983  1.3984
  116MOL   C26844198   5.853   4.065   1.584  0.5663  0.2713 -0.3478
  116MOL   C26944199   5.818   4.154   1.465 -0.1182 -0.3500 -0.3965
  116MOL   O27044200   5.751   4.166   1.586 -0.3806  0.0362 -0.3485
  116MOL   C27144201   5.743   4.097   1.345  0.1467  0.4841 -0.1485
  116MOL   O27244202   5.713   4.195   1.251  0.0105 -0.1287  0.4530
  116MOL   C27344203   5.579   4.214   1.217 -0.3367  0.1503  0.2405
  116MOL   C27444204   5.534   4.183   1.086  0.2510 -0.3650 -0.5805
  116MOL   C27544205   5.398   4.211   1.044 -1.7667  0.1030 -0.5117
  116MOL   C27644206   5.304   4.264   1.136  0.5170  0.6493 -0.0523
  116MOL   C27744207   5.354   4.293   1.266  0.0062  0.0547  0.2222
  116MOL   C27844208   5.486   4.274   1.306  0.4621  0.8508  0.0139
  116MOL   H27944209   5.949   4.077   1.633 -0.2857 -1.6343  1.8623
  116MOL   H28044210   5.887   4.233   1.439  0.2991 -0.3382  0.7436
  116MOL   H28144211   5.658   4.050   1.394  0.7741 -0.1052  0.3895
  116MOL   H28244212   5.800   4.019   1.295  0.8038  1.2179 -0.5613
  116MOL   H28344213   5.608   4.153   1.014  1.2480 -0.3308  0.4191
  116MOL   H28444214   5.370   4.189   0.942  0.2135 -0.4118 -0.9689
  116MOL   H28544215   5.200   4.278   1.113 -0.2981 -5.1442 -0.7321
  116MOL   H28644216   5.298   4.341   1.345  1.3763  0.9188  0.6826
  116MOL   C28744217   5.531   4.322   1.445 -0.1808  0.4382 -0.3412
  116MOL   C28844218   5.620   4.436   1.479 -0.4529 -0.2144  0.1979
  116MOL   O28944219   5.474   4.451   1.486  0.0828  0.0273 -0.2763
  116MOL   C29044220   5.695   4.517   1.373  0.4478 -0.4547  0.2147
  116MOL   O29144221   5.656   4.651   1.385 -0.1112  0.5381 -0.7567
  116MOL   C29244222   5.722   4.746   1.461 -0.2756  0.2879  0.0059
  116MOL   C29344223   5.863   4.743   1.467 -0.6651 -0.9030  0.0938
  116MOL   C29444224   5.933   4.838   1.544 -0.6403  0.5421 -0.1236
  116MOL   C29544225   5.852   4.930   1.622 -0.5667 -0.1189 -0.7429
  116MOL   C29644226   5.713   4.929   1.615 -0.2669 -0.4262 -0.2097
  116MOL   C29744227   5.644   4.837   1.536  0.6654 -1.1822  0.6457
  116MOL   H29844228   5.528   4.241   1.516 -1.2219 -0.8376 -1.8049
  116MOL   H29944229   5.659   4.451   1.579  1.2781 -2.2184 -0.1415
  116MOL   H30044230   5.664   4.486   1.273 -2.5643 -1.7037  1.4670
  116MOL   H30144231   5.802   4.496   1.382  0.6466 -0.3093 -1.6523
  116MOL   H30244232   5.914   4.687   1.390  1.4433  1.1800 -0.0545
  116MOL   H30344233   6.041   4.839   1.544 -0.6193  3.6717 -0.4193
  116MOL   H30444234   5.903   5.009   1.676  1.2728 -1.7690 -0.0272
  116MOL   H30544235   5.660   5.013   1.658  0.5328 -0.7147  1.3718
  116MOL   C30644236   5.497   4.836   1.524 -0.1536 -0.9811  0.1044
  116MOL   C30744237   5.398   4.790   1.628 -0.2374  0.0085 -0.2317
  116MOL   O30844238   5.417   4.929   1.604 -0.1394 -0.1191 -0.1439
  116MOL   C30944239   5.453   4.733   1.753 -0.8926  0.2778  0.9119
  116MOL   O31044240   5.359   4.690   1.851 -0.1321 -0.0950  0.0892
  116MOL   C31144241   5.343   4.783   1.950  0.0783 -0.1546  1.2542
  116MOL   C31244242   5.420   4.771   2.068 -0.0688 -0.2499  0.6735
  116MOL   C31344243   5.399   4.859   2.174  0.0594 -0.7144  0.7610
  116MOL   C31444244   5.304   4.962   2.163  0.7608  0.2096 -0.3363
  116MOL   C31544245   5.235   4.983   2.041  0.5805 -0.9474  0.6595
  116MOL   C31644246   5.245   4.885   1.936 -0.2756 -0.0618  0.3806
  116MOL   H31744247   5.463   4.851   1.422 -1.0713 -0.3359  0.4954
  116MOL   H31844248   5.311   4.743   1.582 -1.2756  1.6725 -0.0037
  116MOL   H31944249   5.526   4.800   1.799 -1.1802 -0.6251  2.6850
  116MOL   H32044250   5.514   4.647   1.724 -0.4355  1.0412 -0.4662
  116MOL   H32144251   5.486   4.689   2.091  1.2928  1.4683  3.0804
  116MOL   H32244252   5.454   4.840   2.266  1.9015 -1.1481 -0.3988
  116MOL   H32344253   5.291   5.031   2.245  3.1981  0.0615  0.2246
  116MOL   H32444254   5.165   5.065   2.032  1.8414  0.3286  2.3440
  116MOL   C32544255   5.154   4.899   1.816 -0.1414  0.2275  0.0094
  116MOL   C32644256   5.038   4.808   1.783 -0.0290 -0.1091  0.7605
  116MOL   O32744257   5.024   4.936   1.851  0.3334 -0.1375 -0.3540
  116MOL   C32844258   5.006   4.687   1.870  0.5415  0.3666 -0.0467
  116MOL   O32944259   4.869   4.659   1.858 -0.0890  0.0408 -0.1102
  116MOL   C33044260   4.832   4.535   1.913 -0.6873  0.3554 -0.2010
  116MOL   C33144261   4.923   4.438   1.974  0.3733 -0.0696 -0.2590
  116MOL   C33244262   4.873   4.319   2.031 -0.0485  0.4519  0.4971
  116MOL   C33344263   4.738   4.298   2.018  0.1280  0.3245 -0.0503
  116MOL   C33444264   4.658   4.378   1.943 -0.1318 -0.2052 -0.9091
  116MOL   C33544265   4.699   4.503   1.903 -0.4168 -0.0481  0.2122
  116MOL   H33644266   5.194   4.959   1.735  1.4796 -2.2031 -1.0468
  116MOL   H33744267   4.988   4.806   1.686  1.1119 -1.1474  0.1787
  116MOL   H33844268   5.037   4.714   1.971  1.8080 -0.7027 -0.1418
  116MOL   H33944269   5.071   4.606   1.837 -0.5795 -0.4742 -0.2388
  116MOL   H34044270   5.026   4.469   1.979  0.3835  0.2216 -2.0232
  116MOL   H34144271   4.941   4.246   2.072 -1.0158 -0.8128 -0.1016
  116MOL   H34244272   4.704   4.205   2.061 -0.2545  0.4403 -0.0957
  116MOL   H34344273   4.555   4.355   1.922 -0.4504  0.6657 -0.2788
  116MOL   C34444274   4.603   4.602   1.848  0.3205 -0.3738  0.4729
  116MOL   C34544275   4.582   4.651   1.706 -0.9041 -0.4224  0.0149
  116MOL   O34644276   4.511   4.542   1.759 -0.2332 -0.2705 -0.7342
  116MOL   C34744277   4.681   4.619   1.596  0.1712  0.4963 -0.4540
  116MOL   O34844278   4.666   4.705   1.484 -0.2378  0.2642  0.3301
  116MOL   C34944279   4.687   4.837   1.489  0.1896  0.9301  0.2058
  116MOL   C35044280   4.738   4.907   1.602  0.2020 -0.4384 -0.3862
  116MOL   C35144281   4.758   5.046   1.597 -0.2606  0.0782 -0.2023
  116MOL   C35244282   4.730   5.119   1.480 -0.0715 -0.0812  0.3541
  116MOL   C35344283   4.679   5.054   1.365  0.3706 -0.3559  0.2862
  116MOL   C35444284   4.662   4.913   1.371  0.3308  0.2229 -0.8347
  116MOL   H35544285   4.560   4.662   1.929  0.5689 -1.9815  1.8254
  116MOL   H35644286   4.514   4.730   1.675 -0.9886 -0.2229  0.6989
  116MOL   H35744287   4.671   4.520   1.552  2.3946 -0.9862  2.2324
  116MOL   H35844288   4.785   4.619   1.629  0.7721 -1.1024 -2.2703
  116MOL   H35944289   4.765   4.851   1.691  0.4196  0.0695 -0.1293
  116MOL   H36044290   4.817   5.089   1.676 -1.0529 -0.4645  0.6922
  116MOL   H36144291   4.750   5.225   1.476 -2.7625  0.4881  0.8738
  116MOL   H36244292   4.670   5.107   1.271  0.5484 -2.5921 -1.0221
  116MOL   C36344293   4.611   4.847   1.252  0.2918 -0.3633  0.2123
  116MOL   C36444294   4.469   4.814   1.245 -0.1722 -0.5525 -0.2233
  116MOL   O36544295   4.526   4.921   1.167  0.0432  0.2753  0.1231
  116MOL   C36644296   4.361   4.862   1.337 -0.0542  0.3540 -0.3480
  116MOL   O36744297   4.231   4.846   1.284 -0.8062  0.5712  0.1137
  116MOL   C36844298   4.164   4.943   1.213 -0.3704 -0.8025  0.3974
  116MOL   C36944299   4.226   5.025   1.115  0.3538  0.3245  0.2732
  116MOL   C37044300   4.148   5.096   1.023 -0.4704  0.3230  0.5970
  116MOL   C37144301   4.007   5.113   1.044  0.1708  0.4274  0.0951
  116MOL   C37244302   3.942   5.038   1.146 -0.9570  0.2206 -0.4669
  116MOL   C37344303   4.025   4.952   1.221  0.5426 -0.1216  0.8148
  116MOL   H37444304   4.679   4.787   1.191  1.0254  0.0558  0.6104
  116MOL   H37544305   4.444   4.722   1.192 -1.7949 -0.8246  0.9540
  116MOL   H37644306   4.372   4.963   1.377  2.6728  0.2091 -0.6602
  116MOL   H37744307   4.363   4.793   1.422 -2.2859  1.3512  0.5514
  116MOL   H37844308   4.334   5.032   1.113  0.4956 -1.8122 -4.4429
  116MOL   H37944309   4.206   5.168   0.968 -1.8496  0.9422 -0.0896
  116MOL   H38044310   3.946   5.165   0.972 -1.5041  0.4755  1.5247
  116MOL   H38144311   3.835   5.039   1.157 -0.7087 -0.2333  2.2524
  116MOL   H38244312   3.981   4.890   1.297 -0.5340  0.2894  0.5291
  117MOL     C144313   4.595   1.183   5.530  0.2317 -0.7694  0.1741
  117MOL     C244314   4.681   1.059   5.556  0.4994 -0.0234 -0.1997
  117MOL     O344315   4.541   1.048   5.528 -0.0163  0.0236 -0.1070
  117MOL     C444316   4.725   1.011   5.692 -0.7029  0.1776  0.2434
  117MOL     O544317   4.692   1.107   5.791 -0.6596 -0.2507 -0.4036
  117MOL     C644318   4.793   1.188   5.837 -0.0911  0.1795 -0.5371
  117MOL     C744319   4.901   1.232   5.760 -0.1122 -0.1202  0.0214
  117MOL     C844320   5.003   1.322   5.810  0.8266  0.6374  0.6525
  117MOL     C944321   4.983   1.372   5.941 -1.7439  0.2375  0.8659
  117MOL    C1044322   4.878   1.328   6.016  0.6310 -0.3302  0.0573
  117MOL    C1144323   4.782   1.236   5.966 -0.5868  0.3331  0.1708
  117MOL    H1244324   4.611   1.236   5.436  1.3997 -0.8371  0.3242
  117MOL    H1344325   4.735   1.014   5.472  0.3263 -0.0496 -0.2971
  117MOL    H1444326   4.831   0.982   5.688 -1.0634 -1.0179 -1.1099
  117MOL    H1544327   4.667   0.920   5.709 -3.9392  2.4815  1.9865
  117MOL    H1644328   4.918   1.196   5.659  2.9038 -1.3791  0.9061
  117MOL    H1744329   5.086   1.346   5.745 -1.0275 -0.0082 -2.0617
  117MOL    H1844330   5.059   1.442   5.973 -1.3121  0.4923 -0.6824
  117MOL    H1944331   4.866   1.352   6.121 -2.2227  1.5858 -0.6575
  117MOL    H2044332   4.537   1.235   5.605 -0.3048 -1.2988  0.1259
  117MOL    C2144333   4.657   1.195   6.043  0.6629  0.5091 -0.2046
  117MOL    C2244334   4.648   1.064   6.115 -0.4442  0.4593 -0.1539
  117MOL    O2344335   4.685   1.185   6.182 -0.7619 -0.5127 -0.1840
  117MOL    C2444336   4.754   0.962   6.113 -0.6508  0.2903 -0.4809
  117MOL    O2544337   4.752   0.903   6.238 -0.9225  0.4970  0.2967
  117MOL    C2644338   4.716   0.769   6.237  0.6975 -0.5490 -0.2938
  117MOL    C2744339   4.605   0.729   6.160  0.1311 -0.1066 -0.4497
  117MOL    C2844340   4.576   0.593   6.163  0.1605  0.0705  0.0894
  117MOL    C2944341   4.657   0.499   6.227  0.4201  0.3216  0.0337
  117MOL    C3044342   4.764   0.543   6.309 -0.2483 -0.3502  0.2097
  117MOL    C3144343   4.796   0.681   6.311  0.1952 -0.6690 -0.0037
  117MOL    H3244344   4.564   1.248   6.020 -1.0216 -1.2298  2.2848
  117MOL    H3344345   4.547   1.037   6.145 -0.6083  1.3496  0.1018
  117MOL    H3444346   4.852   1.003   6.092 -0.3158  0.0131  0.5535
  117MOL    H3544347   4.748   0.890   6.031 -1.0956  0.9807 -1.0623
  117MOL    H3644348   4.549   0.799   6.101  0.9205 -0.2534 -1.3885
  117MOL    H3744349   4.502   0.558   6.093  1.3492 -0.5330 -0.8886
  117MOL    H3844350   4.628   0.395   6.220 -1.3794  0.6533  1.9546
  117MOL    H3944351   4.821   0.472   6.368 -1.7666 -1.4340  0.3786
  117MOL    C4044352   4.915   0.725   6.394  0.4797 -0.1682 -1.0095
  117MOL    C4144353   4.901   0.765   6.540 -0.4755 -0.8986  0.1809
  117MOL    O4244354   4.960   0.639   6.501  0.1325  0.2680  0.3553
  117MOL    C4344355   4.784   0.736   6.638 -0.7583  0.1609 -0.2581
  117MOL    O4444356   4.810   0.646   6.743 -0.3366 -0.4787 -0.4981
  117MOL    C4544357   4.904   0.676   6.839  0.5566 -0.6335 -0.4297
  117MOL    C4644358   4.976   0.801   6.843 -0.2434 -0.8799 -0.8787
  117MOL    C4744359   5.090   0.803   6.924  0.1801  0.2047  0.1815
  117MOL    C4844360   5.117   0.701   7.018  0.5436  0.0027 -0.6218
  117MOL    C4944361   5.036   0.584   7.021  0.3237  0.0371  0.4991
  117MOL    C5044362   4.927   0.568   6.929 -0.1299 -0.1110 -1.3686
  117MOL    H5144363   4.993   0.765   6.330 -1.0179  1.0918 -2.0988
  117MOL    H5244364   4.976   0.838   6.567  0.3953 -1.5410 -0.4726
  117MOL    H5344365   4.698   0.697   6.582  0.2279 -0.1814 -1.5527
  117MOL    H5444366   4.744   0.830   6.676 -0.7366  0.5986 -1.2910
  117MOL    H5544367   4.961   0.878   6.768 -0.4143 -0.2310 -0.1874
  117MOL    H5644368   5.168   0.877   6.911 -0.7523  0.9052 -1.5194
  117MOL    H5744369   5.198   0.721   7.087 -0.3537 -2.2284  1.1327
  117MOL    H5844370   5.062   0.510   7.095  1.9792 -1.7254 -1.7912
  117MOL    C5944371   4.844   0.443   6.922 -0.0830 -0.2095 -0.1713
  117MOL    C6044372   4.863   0.334   6.818  0.0336  0.3859  0.2987
  117MOL    O6144373   4.924   0.328   6.946 -0.0987  0.0070  0.2283
  117MOL    C6244374   4.965   0.356   6.712 -0.5970 -0.2761  0.7730
  117MOL    O6344375   4.974   0.237   6.639  0.0763 -0.3469 -0.4883
  117MOL    C6444376   5.032   0.233   6.520  0.0542 -0.4275 -0.4444
  117MOL    C6544377   5.145   0.318   6.499  0.1506  0.0327 -0.4044
  117MOL    C6644378   5.209   0.316   6.374 -0.5771 -0.0134  0.1992
  117MOL    C6744379   5.172   0.230   6.273 -0.0783  0.2329 -0.0610
  117MOL    C6844380   5.066   0.142   6.295  0.2243  0.3470  0.0364
  117MOL    C6944381   4.991   0.141   6.413 -0.7087 -0.2762  0.0248
  117MOL    H7044382   4.758   0.441   6.989 -1.0824  1.1879 -1.3937
  117MOL    H7144383   4.781   0.266   6.797  0.4080  0.1514 -0.4158
  117MOL    H7244384   5.063   0.376   6.757 -0.0217  1.2063 -1.0993
  117MOL    H7344385   4.933   0.445   6.658  0.7041 -0.8175 -0.9195
  117MOL    H7444386   5.187   0.365   6.587  3.4410 -0.5863 -1.5843
  117MOL    H7544387   5.302   0.369   6.362 -0.9250  0.2974 -1.1926
  117MOL    H7644388   5.230   0.228   6.182 -0.2499  0.0515 -0.1679
  117MOL    H7744389   5.037   0.087   6.207  1.5931 -2.6461  1.3742
  117MOL    C7844390   4.879   0.039   6.420 -0.3920  0.6839  0.2555
  117MOL    C7944391   4.733   0.070   6.428  0.4710 -0.6722  0.2428
  117MOL    O8044392   4.801   0.047   6.301 -0.3809 -0.0867 -0.5230
  117MOL    C8144393   4.694   0.206   6.463  0.3760 -0.1614  0.2400
  117MOL    O8244394   4.554   0.203   6.487  0.3747 -0.1615 -0.3052
  117MOL    C8344395   4.500   0.294   6.580  0.1708  0.7136 -0.0790
  117MOL    C8444396   4.566   0.415   6.623  0.9879 -0.3186 -0.7338
  117MOL    C8544397   4.506   0.500   6.719 -0.7481 -0.0153 -0.7024
  117MOL    C8644398   4.372   0.479   6.765  0.4408  0.1491  0.2994
  117MOL    C8744399   4.314   0.356   6.726  0.5511 -0.2295  0.4515
  117MOL    C8844400   4.374   0.265   6.635 -0.1769  0.2646  0.9532
  117MOL    H8944401   4.912   8.109   6.448  2.0234  1.2374 -0.4446
  117MOL    H9044402   4.661   8.163   6.455  2.1580 -1.2299  3.3096
  117MOL    H9144403   4.713   0.275   6.380  0.5226 -1.4980 -0.8474
  117MOL    H9244404   4.749   0.233   6.553 -0.2291  0.1953  0.5108
  117MOL    H9344405   4.660   0.443   6.579  0.3228  0.6265 -1.5889
  117MOL    H9444406   4.560   0.590   6.748  1.0716 -1.1367 -0.5626
  117MOL    H9544407   4.332   0.550   6.835  0.1098 -0.1685  0.4358
  117MOL    H9644408   4.213   0.339   6.762  1.1575 -1.5656  1.5115
  117MOL    C9744409   4.297   0.140   6.589 -0.1655 -0.4073 -0.6222
  117MOL    C9844410   4.240   0.019   6.677 -0.1759 -0.2085  0.2229
  117MOL    O9944411   4.165   0.139   6.651  0.1957  0.0086  0.4939
  117MOL   C10044412   4.247   8.168   6.822 -0.1854 -0.1254  0.2942
  117MOL   O10144413   4.335   0.091   6.894 -0.0928  0.4211  0.2949
  117MOL   C10244414   4.362   0.068   7.025  0.8287 -0.4614 -0.8807
  117MOL   C10344415   4.298   8.127   7.095 -0.4598 -0.1980 -0.1127
  117MOL   C10444416   4.329   8.103   7.229  0.1564 -0.2808  0.0216
  117MOL   C10544417   4.413   0.017   7.305 -0.7378  0.6356  0.7859
  117MOL   C10644418   4.474   0.126   7.245 -0.0896  0.0424 -0.0041
  117MOL   C10744419   4.447   0.153   7.107  0.2739  0.2270 -0.9331
  117MOL   H10844420   4.309   0.123   6.482 -0.1445  2.3148 -1.0907
  117MOL   H10944421   4.217   8.102   6.616  1.8086 -1.3420  1.0589
  117MOL   H11044422   4.277   8.064   6.834 -0.4828 -0.3695 -1.0121
  117MOL   H11144423   4.146   0.006   6.862 -0.3150 -0.4540  0.0376
  117MOL   H11244424   4.220   8.062   7.057 -0.3852 -1.0357  1.1246
  117MOL   H11344425   4.299   8.012   7.280 -0.1714 -0.4352 -0.4540
  117MOL   H11444426   4.431   8.163   7.409 -3.6519  0.3041  1.2348
  117MOL   H11544427   4.555   0.171   7.299  2.6015 -1.9472 -2.2622
  117MOL   C11644428   4.499   0.280   7.046  0.1576 -0.1243  0.6682
  117MOL   C11744429   4.461   0.417   7.089 -0.3150  0.3462  0.2996
  117MOL   O11844430   4.579   0.350   7.133 -0.2717  0.0502  0.1057
  117MOL   C11944431   4.363   0.463   7.193 -0.3976  0.0815 -0.2064
  117MOL   O12044432   4.414   0.583   7.248 -0.1403 -0.0659  0.0371
  117MOL   C12144433   4.462   0.585   7.378  0.4566  0.0703 -0.5240
  117MOL   C12244434   4.494   0.459   7.446 -0.1251  0.2088 -0.3881
  117MOL   C12344435   4.555   0.461   7.573 -0.0535  0.5246 -0.0486
  117MOL   C12444436   4.585   0.581   7.640 -0.9129 -0.1124  0.5559
  117MOL   C12544437   4.558   0.701   7.570  0.5468  0.7448 -0.1045
  117MOL   C12644438   4.487   0.705   7.445  0.1710 -0.4467  0.1774
  117MOL   H12744439   4.560   0.261   6.958 -2.0561  0.4184 -1.0009
  117MOL   H12844440   4.493   0.497   7.023 -0.4752  0.4479  0.3458
  117MOL   H12944441   4.328   0.392   7.268  1.2896 -0.2935  0.2340
  117MOL   H13044442   4.270   0.492   7.143 -1.2647 -1.1234  0.6947
  117MOL   H13144443   4.473   0.360   7.407 -0.1340  0.1495 -0.2333
  117MOL   H13244444   4.583   0.365   7.614 -0.4989  0.2839 -0.2920
  117MOL   H13344445   4.626   0.575   7.740  1.4840 -1.6205 -0.4785
  117MOL   H13444446   4.572   0.789   7.632 -1.6644  0.1759  1.2672
  117MOL   C13544447   4.435   0.831   7.385  0.2754 -0.8054  0.0239
  117MOL   C13644448   4.305   0.894   7.435  0.3517 -0.2911 -0.0699
  117MOL   O13744449   4.431   0.952   7.460  0.3851 -0.0743 -0.2267
  117MOL   C13844450   4.229   0.876   7.566 -1.1703  0.8100  0.1982
  117MOL   O13944451   4.088   0.880   7.539  0.3184  0.7389  0.1339
  117MOL   C14044452   4.033   0.773   7.466 -0.0575 -0.0128 -0.3354
  117MOL   C14144453   4.081   0.637   7.456 -0.6436 -0.3614  0.2525
  117MOL   C14244454   4.021   0.535   7.378 -0.6450 -0.2155 -0.3658
  117MOL   C14344455   3.895   0.560   7.327 -0.6375  0.3311  0.2158
  117MOL   C14444456   3.839   0.688   7.338  0.0527 -0.0218 -1.2360
  117MOL   C14544457   3.905   0.792   7.408 -0.7575 -0.1805 -0.2797
  117MOL   H14644458   4.447   0.832   7.277  0.1155 -0.8075  0.0060
  117MOL   H14744459   4.254   0.963   7.367  0.6522 -0.2439 -0.2455
  117MOL   H14844460   4.252   0.950   7.642  0.3024 -0.9211  1.4925
  117MOL   H14944461   4.259   0.784   7.617  0.0330  2.0460  1.7567
  117MOL   H15044462   4.172   0.604   7.503 -0.8187 -2.4344 -0.8088
  117MOL   H15144463   4.066   0.437   7.369 -0.7394 -0.1497 -1.6186
  117MOL   H15244464   3.851   0.482   7.266 -0.5882 -0.3341  1.0152
  117MOL   H15344465   3.740   0.706   7.298 -0.9841 -2.6083  0.0598
  117MOL   C15444466   3.835   0.925   7.417 -0.1023  0.0898 -0.2913
  117MOL   C15544467   3.840   1.035   7.319 -1.4556 -0.6554  0.4417
  117MOL   O15644468   3.723   0.938   7.323 -0.8994 -0.1357  0.4069
  117MOL   C15744469   3.921   1.023   7.196  0.1258 -0.0025  0.2069
  117MOL   O15844470   3.909   1.138   7.113 -0.3903 -0.2578  0.0998
  117MOL   C15944471   4.016   1.214   7.085 -0.6336 -0.1724 -0.9016
  117MOL   C16044472   4.137   1.213   7.158 -0.3020 -0.2131  0.5609
  117MOL   C16144473   4.248   1.295   7.113 -0.4000  0.3769 -0.0997
  117MOL   C16244474   4.236   1.384   7.006  0.3932  0.2032  0.3993
  117MOL   C16344475   4.109   1.402   6.947  0.5504  0.0099  0.0897
  117MOL   C16444476   4.003   1.311   6.979 -0.1361 -0.5461  0.1052
  117MOL   H16544477   3.807   0.957   7.517 -3.3360  0.5356 -1.2922
  117MOL   H16644478   3.822   1.134   7.359  1.8763  0.1493  0.0917
  117MOL   H16744479   3.867   0.957   7.129 -0.1122  2.1543 -1.8146
  117MOL   H16844480   4.024   0.998   7.221  0.0558  0.0551  0.5561
  117MOL   H16944481   4.157   1.143   7.238  0.3783 -1.2656 -0.5060
  117MOL   H17044482   4.344   1.290   7.161 -0.3858  1.0173 -0.0664
  117MOL   H17144483   4.328   1.432   6.974  0.4158  0.4059  0.7649
  117MOL   H17244484   4.090   1.478   6.873 -2.6037  1.2981  2.1248
  117MOL   C17344485   3.870   1.314   6.903  0.2188 -0.3324 -0.1677
  117MOL   C17444486   3.752   1.391   6.953  0.7655 -0.2422  0.0523
  117MOL   O17544487   3.837   1.445   6.859  0.0007  0.3278 -0.3292
  117MOL   C17644488   3.742   1.467   7.086 -0.1504 -0.7635  0.3661
  117MOL   O17744489   3.621   1.540   7.104  0.2024 -0.3558 -0.2387
  117MOL   C17844490   3.593   1.647   7.016  0.6941 -0.4828  0.0328
  117MOL   C17944491   3.694   1.722   6.954  0.1613 -0.0173  0.0639
  117MOL   C18044492   3.656   1.832   6.868  0.0660  0.3148 -0.3551
  117MOL   C18144493   3.524   1.872   6.852 -0.5475  0.1818 -0.3416
  117MOL   C18244494   3.424   1.809   6.928  0.4354 -0.0486  0.0076
  117MOL   C18344495   3.463   1.696   7.006  0.9150 -0.3669  0.4654
  117MOL   H18444496   3.862   1.234   6.830  2.4347 -1.6157  0.9555
  117MOL   H18544497   3.654   1.353   6.926 -0.7862  3.7003 -0.1957
  117MOL   H18644498   3.830   1.527   7.110 -0.8956 -0.3454  2.0515
  117MOL   H18744499   3.739   1.394   7.166 -0.6674 -1.1980 -0.0441
  117MOL   H18844500   3.795   1.686   6.966  0.3927  0.6319  0.0749
  117MOL   H18944501   3.727   1.885   6.806  0.2515  2.1693  1.3857
  117MOL   H19044502   3.505   1.955   6.785  0.8639  0.6899 -0.1291
  117MOL   H19144503   3.322   1.845   6.924  0.2006 -0.4365  1.7440
  117MOL   C19244504   3.352   1.629   7.089 -0.7463  0.7846 -0.4389
  117MOL   C19344505   3.330   1.651   7.237 -0.1465 -0.3232 -0.1938
  117MOL   O19444506   3.265   1.732   7.141 -0.9530 -0.4889 -0.1938
  117MOL   C19544507   3.422   1.729   7.328 -0.2144 -0.7636 -0.4757
  117MOL   O19644508   3.370   1.737   7.460  0.0727  0.2026 -0.3082
  117MOL   C19744509   3.399   1.848   7.537 -0.3545 -0.5496 -0.5645
  117MOL   C19844510   3.519   1.928   7.528  0.2983  0.8180 -0.1879
  117MOL   C19944511   3.552   2.023   7.626 -0.2125  0.3216  0.6283
  117MOL   C20044512   3.464   2.041   7.738  0.3684  0.0306  0.6556
  117MOL   C20144513   3.342   1.977   7.740 -0.4207  0.5319 -0.5231
  117MOL   C20244514   3.312   1.877   7.640 -0.1608  0.0951  0.5896
  117MOL   H20344515   3.296   1.552   7.036 -2.8390  1.3851  0.8773
  117MOL   H20444516   3.260   1.587   7.289 -0.4031  0.1292  0.0162
  117MOL   H20544517   3.443   1.829   7.290  1.6209 -0.9787 -0.0806
  117MOL   H20644518   3.511   1.667   7.330  0.4678  0.2391  1.2410
  117MOL   H20744519   3.594   1.896   7.457  1.0503 -1.1433  1.4567
  117MOL   H20844520   3.650   2.069   7.633  0.2863 -0.5591 -0.4103
  117MOL   H20944521   3.478   2.122   7.808  0.2563  1.6399 -1.1456
  117MOL   H21044522   3.293   1.984   7.836 -0.5553  0.2250 -0.5662
  117MOL   C21144523   3.184   1.804   7.655 -0.1781  0.5371 -0.2061
  117MOL   C21244524   3.191   1.691   7.760  0.4474  0.2037  0.3181
  117MOL   O21344525   3.118   1.810   7.785 -0.5620  0.1405  0.1017
  117MOL   C21444526   3.307   1.658   7.852  0.0606 -0.1771 -0.0621
  117MOL   O21544527   3.275   1.535   7.912 -0.3425  0.3652  0.1350
  117MOL   C21644528   3.323   1.517   8.039 -0.3877  0.7094 -0.0512
  117MOL   C21744529   3.238   1.534   8.152 -0.3527 -0.3589 -0.2436
  117MOL   C21844530   3.287   1.515   0.113  0.1623  0.2897 -0.0772
  117MOL   C21944531   3.420   1.483   0.128 -0.2207 -0.3960 -0.3374
  117MOL   C22044532   3.508   1.463   0.018  0.3059 -0.1171 -0.3479
  117MOL   C22144533   3.458   1.483   8.060 -0.5601  0.8237 -0.0564
  117MOL   H22244534   3.120   1.785   7.568 -0.7809  0.9986  0.1355
  117MOL   H22344535   3.122   1.608   7.751 -0.9690  1.5346 -1.7333
  117MOL   H22444536   3.320   1.734   7.929 -0.3904  0.5521 -0.7018
  117MOL   H22544537   3.396   1.650   7.789 -0.2453  0.8849 -0.6561
  117MOL   H22644538   3.135   1.566   8.142 -0.5576 -1.0540 -0.4031
  117MOL   H22744539   3.222   1.528   0.198 -1.7517  1.7659 -1.7317
  117MOL   H22844540   3.460   1.471   0.227  1.0762 -0.9839 -0.9273
  117MOL   H22944541   3.612   1.440   0.038  0.5703 -0.5011 -2.1160
  117MOL   C23044542   3.548   1.455   7.940  0.2399 -0.1007  0.1750
  117MOL   C23144543   3.668   1.536   7.893 -0.1178 -0.4933 -0.4041
  117MOL   O23244544   3.681   1.413   7.966  0.0928 -0.3625 -0.2898
  117MOL   C23344545   3.717   1.665   7.970 -0.1061  0.5489 -0.8530
  117MOL   O23444546   3.857   1.687   7.961 -0.5502 -0.4357 -0.3239
  117MOL   C23544547   3.917   1.806   8.010  0.5110 -0.5938  0.1352
  117MOL   C23644548   3.834   1.907   8.064  0.2148 -0.4011 -0.8119
  117MOL   C23744549   3.892   2.018   8.125  0.6060  0.4767  0.5779
  117MOL   C23844550   4.028   2.029   8.129  0.0097  0.9603 -0.3090
  117MOL   C23944551   4.113   1.934   8.071 -1.0623  0.8884  0.3947
  117MOL   C24044552   4.057   1.812   8.017  0.1160 -0.6551  0.1104
  117MOL   H24144553   3.504   1.389   7.865  0.7508  1.5421 -1.5844
  117MOL   H24244554   3.701   1.532   7.790  1.9520 -2.6023  0.2909
  117MOL   H24344555   3.687   1.650   8.073  1.6185 -0.0068 -0.4088
  117MOL   H24444556   3.677   1.757   7.927  0.1853 -0.2552 -2.9327
  117MOL   H24544557   3.727   1.902   8.082  0.2655 -3.5511 -1.1555
  117MOL   H24644558   3.829   2.089   0.007  0.9934  2.2694 -1.3202
  117MOL   H24744559   4.079   2.113   0.004  1.2831 -1.6129  3.2446
  117MOL   H24844560   4.221   1.935   8.064 -1.1146  0.4694 -0.5932
  117MOL   C24944561   4.139   1.690   7.987 -0.0603 -0.1496 -0.1824
  117MOL   C25044562   4.155   1.632   7.855 -0.7032  0.6694 -0.1253
  117MOL   O25144563   4.250   1.720   7.902 -0.0755 -0.5748 -0.4870
  117MOL   C25244564   4.095   1.678   7.721  0.3723 -0.3707  1.1094
  117MOL   O25344565   4.154   1.618   7.602 -0.0370 -0.4251 -1.0734
  117MOL   C25444566   4.130   1.486   7.578  0.0626 -0.2381 -0.3627
  117MOL   C25544567   4.025   1.408   7.625  0.2266 -0.6548 -0.7902
  117MOL   C25644568   4.006   1.274   7.596 -0.5994 -0.3187 -0.5897
  117MOL   C25744569   4.097   1.217   7.503  0.0535  0.4611  0.3968
  117MOL   C25844570   4.207   1.292   7.451  0.6863  0.1691  0.6536
  117MOL   C25944571   4.223   1.425   7.494  0.3763  0.7616  0.0799
  117MOL   H26044572   4.163   1.626   8.072  2.6489  1.6392  0.4496
  117MOL   H26144573   4.176   1.525   7.861 -0.3895  0.7271 -0.1820
  117MOL   H26244574   4.104   1.787   7.725  1.9173 -0.5391  2.8993
  117MOL   H26344575   3.987   1.673   7.727  0.3816 -1.4084  0.5215
  117MOL   H26444576   3.957   1.449   7.699  1.0074 -0.8780  0.0576
  117MOL   H26544577   3.922   1.223   7.639  0.8344  0.0728  2.8487
  117MOL   H26644578   4.083   1.115   7.470 -5.1732  1.7195 -1.7368
  117MOL   H26744579   4.274   1.240   7.384 -0.0550 -1.2164  0.9544
  117MOL   C26844580   4.349   1.492   7.438 -0.4997 -0.0271  0.6356
  117MOL   C26944581   4.492   1.458   7.482 -0.6350  0.5140  0.4661
  117MOL   O27044582   4.441   1.405   7.362  0.1890 -0.3661  0.0882
  117MOL   C27144583   4.526   1.376   7.604 -0.8015  0.5965 -0.3218
  117MOL   O27244584   4.658   1.387   7.664  0.3258 -0.0413 -0.5704
  117MOL   C27344585   4.674   1.460   7.782  0.0719 -0.4715 -0.8263
  117MOL   C27444586   4.576   1.555   7.822  0.6964 -0.1539  0.3043
  117MOL   C27544587   4.595   1.624   7.938  0.8977  0.1050 -0.3275
  117MOL   C27644588   4.714   1.604   8.014  0.2565 -0.7176  0.0840
  117MOL   C27744589   4.814   1.516   7.981 -0.7121  0.8182  0.5123
  117MOL   C27844590   4.793   1.442   7.859 -0.2214  0.6497  0.0584
  117MOL   H27944591   4.322   1.573   7.371  3.3895  0.0202 -0.9611
  117MOL   H28044592   4.556   1.544   7.460  0.1269 -0.0660  0.3950
  117MOL   H28144593   4.511   1.270   7.584 -0.7274  0.6021 -0.4097
  117MOL   H28244594   4.448   1.395   7.678 -1.3168  2.4717 -1.2997
  117MOL   H28344595   4.483   1.568   7.770 -0.0361 -0.0221  1.6414
  117MOL   H28444596   4.519   1.692   7.976  1.3698 -0.3103  1.3698
  117MOL   H28544597   4.725   1.673   8.097  1.0705 -1.3607  0.5155
  117MOL   H28644598   4.902   1.500   8.042 -0.4609 -0.6231 -0.2102
  117MOL   C28744599   4.895   1.336   7.816  0.8018 -0.8943  0.5435
  117MOL   C28844600   4.990   1.355   7.697  0.3417 -0.3078 -0.7600
  117MOL   O28944601   5.029   1.397   7.829 -0.1170  0.0038 -0.6044
  117MOL   C29044602   4.964   1.460   7.593  0.2485 -0.4327 -0.3567
  117MOL   O29144603   5.080   1.488   7.517 -0.1548  0.2477 -0.2958
  117MOL   C29244604   5.068   1.534   7.392  0.9379  0.1904 -0.1173
  117MOL   C29344605   4.979   1.471   7.298 -0.8399  0.0158 -0.3670
  117MOL   C29444606   4.975   1.518   7.166 -0.2322  0.1439 -0.3096
  117MOL   C29544607   5.051   1.634   7.135  0.6284 -0.2401 -0.0807
  117MOL   C29644608   5.136   1.693   7.229  0.7005  0.9208  0.3882
  117MOL   C29744609   5.150   1.643   7.361  0.2287  0.4559  0.2074
  117MOL   H29844610   4.888   1.248   7.880 -2.3273 -1.4373 -0.4841
  117MOL   H29944611   5.034   1.262   7.661  0.0271 -0.6098 -0.3782
  117MOL   H30044612   4.930   1.549   7.646 -0.9184 -1.9032  1.4330
  117MOL   H30144613   4.877   1.435   7.532 -1.4649  2.9295  0.5639
  117MOL   H30244614   4.932   1.379   7.330  1.3709 -0.9962  0.1292
  117MOL   H30344615   4.910   1.474   7.091  0.5117 -0.4654 -0.6072
  117MOL   H30444616   5.043   1.675   7.036 -1.5245 -3.4229 -1.3246
  117MOL   H30544617   5.194   1.777   7.194  0.8839  0.9998  0.8819
  117MOL   C30644618   5.249   1.709   7.459 -0.3527 -0.4747 -0.7088
  117MOL   C30744619   5.398   1.708   7.452 -0.2084 -0.2932  0.2951
  117MOL   O30844620   5.326   1.819   7.408  0.5246 -0.1369  0.2823
  117MOL   C30944621   5.480   1.653   7.338  0.5142 -0.9331 -0.1802
  117MOL   O31044622   5.486   1.507   7.343 -0.1916 -0.1905  0.3497
  117MOL   C31144623   5.532   1.441   7.456 -0.5407  0.0602  0.4365
  117MOL   C31244624   5.631   1.503   7.542  0.5008 -0.1359  0.2001
  117MOL   C31344625   5.687   1.430   7.648  0.8595  0.2329 -0.0690
  117MOL   C31444626   5.649   1.295   7.664 -0.0723  0.2223 -0.3525
  117MOL   C31544627   5.562   1.231   7.575 -0.4430 -0.5534 -0.5351
  117MOL   C31644628   5.503   1.308   7.474  0.3692  0.6249  0.9879
  117MOL   H31744629   5.217   1.708   7.563  0.2403 -1.7769 -0.5237
  117MOL   H31844630   5.447   1.727   7.547  1.1019 -0.6797 -0.2947
  117MOL   H31944631   5.579   1.699   7.339  0.1529 -0.1448  1.5153
  117MOL   H32044632   5.430   1.682   7.247  0.6325  2.3141  0.7288
  117MOL   H32144633   5.661   1.607   7.540  1.7995 -0.5075  0.0952
  117MOL   H32244634   5.766   1.467   7.712  0.8564 -2.9381  1.8407
  117MOL   H32344635   5.689   1.233   7.743 -1.2209 -1.4536 -1.0643
  117MOL   H32444636   5.547   1.125   7.590  3.6100 -1.0810  0.2889
  117MOL   C32544637   5.398   1.241   7.391 -0.2143 -0.2224  0.1307
  117MOL   C32644638   5.437   1.143   7.287 -0.1887 -0.6320 -0.0057
  117MOL   O32744639   5.386   1.093   7.408 -0.1008 -0.2295  0.1976
  117MOL   C32844640   5.582   1.109   7.265 -0.2187 -0.3718 -0.4667
  117MOL   O32944641   5.590   1.000   7.177  0.1302 -0.0164 -0.7518
  117MOL   C33044642   5.694   0.911   7.193  0.4269  0.6001 -0.2195
  117MOL   C33144643   5.818   0.946   7.258 -0.0117  0.2206  0.0883
  117MOL   C33244644   5.917   0.855   7.263 -0.3903  0.1073 -0.8775
  117MOL   C33344645   5.914   0.730   7.193  0.0557 -0.1884  0.3270
  117MOL   C33444646   5.793   0.697   7.129 -0.2632  0.2185  0.5540
  117MOL   C33544647   5.684   0.785   7.127 -0.2172 -0.3275  0.4521
  117MOL   H33644648   5.296   1.281   7.388  0.9182  2.7353 -0.9262
  117MOL   H33744649   5.363   1.150   7.207 -2.7920  0.6225  2.4521
  117MOL   H33844650   5.619   1.091   7.366  0.6012  1.7662 -0.3576
  117MOL   H33944651   5.634   1.197   7.224 -0.8628  1.6145  2.8049
  117MOL   H34044652   5.833   1.042   7.304 -1.9508 -0.1190  1.5070
  117MOL   H34144653   6.008   0.875   7.318  0.1507 -1.8907 -1.0313
  117MOL   H34244654   5.999   0.664   7.196  0.3419  0.0670 -1.7000
  117MOL   H34344655   5.788   0.600   7.082  1.3670  0.3242  0.1403
  117MOL   C34444656   5.546   0.756   7.071 -0.2257 -0.0453  0.2009
  117MOL   C34544657   5.528   0.781   6.922  0.2145 -0.0854 -0.0833
  117MOL   O34644658   5.549   0.647   6.978  0.3408  0.5511  0.2521
  117MOL   C34744659   5.633   0.822   6.817 -0.0065 -0.6852  0.0000
  117MOL   O34844660   5.603   0.787   6.680  0.0041  0.3842  0.0265
  117MOL   C34944661   5.624   0.657   6.641  0.2776  0.1252  0.1414
  117MOL   C35044662   5.753   0.616   6.613  0.4405 -0.7115  0.3311
  117MOL   C35144663   5.776   0.479   6.581  0.2565  0.2747 -0.0177
  117MOL   C35244664   5.671   0.395   6.553 -0.6414 -0.0467 -0.7663
  117MOL   C35344665   5.540   0.445   6.570 -0.4986 -0.3682 -0.1600
  117MOL   C35444666   5.512   0.575   6.609 -1.0457  0.6227  0.3839
  117MOL   H35544667   5.457   0.763   7.133 -0.6262  1.7429 -0.5391
  117MOL   H35644668   5.426   0.819   6.912  0.5892  1.2921  1.1515
  117MOL   H35744669   5.720   0.764   6.848 -0.8935 -0.6281  2.7016
  117MOL   H35844670   5.646   0.929   6.833 -1.0721 -0.2389 -2.0191
  117MOL   H35944671   5.834   0.686   6.624 -0.5089  0.5588 -0.6001
  117MOL   H36044672   5.880   0.451   6.576  0.5403  0.6048  2.9982
  117MOL   H36144673   5.695   0.292   6.529 -0.3124 -0.1741  0.1000
  117MOL   H36244674   5.450   0.389   6.547 -1.6314  1.3670 -0.0341
  117MOL   C36344675   5.374   0.621   6.616 -0.0768 -0.3884  0.6699
  117MOL   C36444676   5.318   0.728   6.529  0.1255  1.6953  0.3792
  117MOL   O36544677   5.301   0.584   6.503 -0.4011  0.1794 -0.6076
  117MOL   C36644678   5.411   0.802   6.434  0.7101  0.2163 -0.5794
  117MOL   O36744679   5.339   0.893   6.353 -0.3277 -0.3294  0.4010
  117MOL   C36844680   5.285   0.851   6.232  0.5018  0.5723 -0.1278
  117MOL   C36944681   5.239   0.953   6.139  0.3377  0.4050  0.4649
  117MOL   C37044682   5.187   0.913   6.008 -0.3807 -0.7995 -0.2268
  117MOL   C37144683   5.159   0.779   5.987 -0.4179  0.2052 -0.4922
  117MOL   C37244684   5.204   0.683   6.078 -0.0110 -0.2711 -0.2915
  117MOL   C37344685   5.263   0.713   6.201 -0.6005 -0.0027  0.5397
  117MOL   H37444686   5.319   0.588   6.704 -1.1882 -1.3729 -0.3651
  117MOL   H37544687   5.231   0.776   6.573  0.5475 -0.2546  3.5013
  117MOL   H37644688   5.463   0.727   6.374 -1.1443 -1.3822 -0.2607
  117MOL   H37744689   5.493   0.856   6.481  1.3891  1.0240 -2.6378
  117MOL   H37844690   5.258   1.059   6.152  2.0976  0.4265 -2.1004
  117MOL   H37944691   5.176   0.992   5.937  1.2063 -0.0254  0.3522
  117MOL   H38044692   5.118   0.739   5.896 -3.0088  0.7684  0.3771
  117MOL   H38144693   5.184   0.580   6.051 -1.0429 -0.2518  0.3722
  117MOL   H38244694   5.284   0.640   6.278 -0.6138 -1.4290 -0.7779
  118MOL     C144695   4.335   3.720   6.291  0.5024 -0.0119 -0.9409
  118MOL     C244696   4.396   3.686   6.168  0.2904  0.1355 -0.2524
  118MOL     O344697   4.289   3.607   6.214 -0.2580 -0.2056  0.0748
  118MOL     C444698   4.517   3.600   6.141 -0.2184  0.4544  0.5975
  118MOL     O544699   4.573   3.558   6.260  0.2430 -0.4692  0.2690
  118MOL     C644700   4.650   3.441   6.260  0.7144  0.9403  0.7033
  118MOL     C744701   4.687   3.370   6.137 -0.1860  0.4136 -0.4818
  118MOL     C844702   4.753   3.248   6.152 -0.7791  0.9538 -0.1514
  118MOL     C944703   4.782   3.196   6.274  0.4118 -0.2344 -0.1326
  118MOL    C1044704   4.740   3.256   6.393 -0.3986  0.2342 -0.9887
  118MOL    C1144705   4.672   3.382   6.387  0.0983 -0.0877  0.3952
  118MOL    H1244706   4.271   3.807   6.284  2.0401  1.4028  1.8579
  118MOL    H1344707   4.363   3.746   6.084  0.5567  1.5955  0.6677
  118MOL    H1444708   4.603   3.650   6.095 -0.3481 -0.7452 -0.9589
  118MOL    H1544709   4.491   3.513   6.081  0.9924 -0.6802  1.7157
  118MOL    H1644710   4.664   3.400   6.036 -1.8407  0.4134 -0.1185
  118MOL    H1744711   4.790   3.202   6.062  0.1820  2.4795 -0.5530
  118MOL    H1844712   4.832   3.101   6.282 -1.3555 -1.0769  1.5024
  118MOL    H1944713   4.769   3.212   6.487 -1.3536  0.4298 -0.6033
  118MOL    H2044714   4.388   3.702   6.384  2.1033  0.6319 -1.6956
  118MOL    C2144715   4.612   3.453   6.509  0.1900  0.0416 -0.0746
  118MOL    C2244716   4.503   3.389   6.591 -0.1595 -0.5796 -0.1092
  118MOL    O2344717   4.643   3.372   6.626  0.2292  0.3547  0.1343
  118MOL    C2444718   4.427   3.251   6.563  0.0515  0.5886  0.0052
  118MOL    O2544719   4.375   3.269   6.434 -0.3823 -0.2723 -0.5564
  118MOL    C2644720   4.248   3.318   6.423 -0.2657 -0.5862 -0.1116
  118MOL    C2744721   4.165   3.358   6.530 -0.0435 -0.2319  0.3328
  118MOL    C2844722   4.036   3.409   6.503  0.1098  0.4340 -0.7920
  118MOL    C2944723   3.982   3.405   6.373  0.4858  0.3386 -0.1143
  118MOL    C3044724   4.069   3.359   6.267  0.0484 -0.2434  0.0723
  118MOL    C3144725   4.198   3.318   6.293 -0.4578  0.1175  0.3685
  118MOL    H3244726   4.642   3.557   6.520  2.0085 -0.1782 -2.4865
  118MOL    H3344727   4.438   3.453   6.650  1.0982  1.4085 -0.8482
  118MOL    H3444728   4.348   3.228   6.634 -0.4486  0.2178 -0.6756
  118MOL    H3544729   4.501   3.171   6.557 -0.2876  0.3808 -1.7376
  118MOL    H3644730   4.199   3.361   6.632 -1.7675  0.9106  0.9031
  118MOL    H3744731   3.973   3.436   6.587 -2.9217  1.7613 -3.3846
  118MOL    H3844732   3.877   3.431   6.364  0.2272 -1.3561 -2.3928
  118MOL    H3944733   4.025   3.362   6.169 -0.3803  0.5483  0.2860
  118MOL    C4044734   4.286   3.267   6.182  0.2220  0.5633 -0.0388
  118MOL    C4144735   4.335   3.123   6.167  0.3000  0.9611 -0.5021
  118MOL    O4244736   4.210   3.172   6.109 -0.5427 -0.6324 -0.2304
  118MOL    C4344737   4.322   3.010   6.262 -0.3987  0.0606 -0.9416
  118MOL    O4444738   4.300   2.892   6.191 -0.0529  0.5822  0.4645
  118MOL    C4544739   4.176   2.833   6.202  0.2582  0.0876  0.3610
  118MOL    C4644740   4.052   2.899   6.234  0.0587 -0.5281  0.6629
  118MOL    C4744741   3.930   2.836   6.231  0.1343 -0.4841  0.1438
  118MOL    C4844742   3.927   2.695   6.204 -0.1841  0.4258  0.5674
  118MOL    C4944743   4.046   2.632   6.171 -0.7251  0.1966 -1.4377
  118MOL    C5044744   4.170   2.699   6.165 -0.1586  0.4215  0.3554
  118MOL    H5144745   4.325   3.350   6.124  1.9436  0.3375  0.7818
  118MOL    H5244746   4.411   3.108   6.090 -0.7493 -0.7677 -1.2224
  118MOL    H5344747   4.245   3.032   6.336 -0.0733 -2.4578  0.2057
  118MOL    H5444748   4.412   2.996   6.322 -0.0448  0.8862 -1.2812
  118MOL    H5544749   4.050   3.006   6.241  0.3407 -0.3918 -0.9978
  118MOL    H5644750   3.844   2.893   6.260  1.4918  1.1509  1.0505
  118MOL    H5744751   3.831   2.646   6.217 -0.1602  0.2998  0.2740
  118MOL    H5844752   4.055   2.526   6.149 -0.8552  0.3971 -2.4756
  118MOL    C5944753   4.295   2.615   6.127  0.5490  0.0022 -0.9039
  118MOL    C6044754   4.392   2.559   6.237  0.5250  0.0554  0.9545
  118MOL    O6144755   4.284   2.482   6.177  0.3381  0.0818 -0.6543
  118MOL    C6244756   4.373   2.584   6.386  0.2260 -0.0699  0.8006
  118MOL    O6344757   4.493   2.545   6.446 -0.3609  0.3954 -0.8175
  118MOL    C6444758   4.592   2.638   6.466 -0.4819 -0.2654 -0.3607
  118MOL    C6544759   4.577   2.771   6.426 -0.4940 -0.6629 -0.1400
  118MOL    C6644760   4.684   2.861   6.443 -0.6077 -0.1161 -0.1345
  118MOL    C6744761   4.807   2.824   6.503  0.6669  0.7751  0.5842
  118MOL    C6844762   4.824   2.689   6.541  0.0988 -0.2051 -0.0480
  118MOL    C6944763   4.715   2.591   6.520 -0.2248  0.3613  0.2151
  118MOL    H7044764   4.313   2.642   6.023  0.1194  1.0088 -0.7327
  118MOL    H7144765   4.492   2.528   6.207 -0.1168 -0.2333 -0.9892
  118MOL    H7244766   4.284   2.530   6.419 -1.2013  2.0674  0.5825
  118MOL    H7344767   4.341   2.684   6.413 -2.9725 -1.1414  1.1537
  118MOL    H7444768   4.488   2.808   6.376 -0.2099 -1.5341 -1.2921
  118MOL    H7544769   4.676   2.966   6.420  2.8317  0.7469  2.1302
  118MOL    H7644770   4.891   2.890   6.510  1.3492  0.1844 -1.4479
  118MOL    H7744771   4.916   2.656   6.588  1.2778 -1.2099 -2.9232
  118MOL    C7844772   4.720   2.448   6.560 -0.0424  0.1233 -0.1968
  118MOL    C7944773   4.808   2.330   6.500  0.7848  0.8146  0.0666
  118MOL    O8044774   4.851   2.415   6.610 -0.1306 -0.3384  0.4025
  118MOL    C8144775   4.902   2.331   6.381 -0.4137 -0.1572 -0.3969
  118MOL    O8244776   4.849   2.402   6.266  0.5096  0.1117  0.2872
  118MOL    C8344777   4.918   2.416   6.148  0.3139  0.9847  0.7915
  118MOL    C8444778   5.048   2.365   6.135  1.0009 -0.3152  0.3682
  118MOL    C8544779   5.117   2.363   6.014 -0.3070  0.0882 -0.2266
  118MOL    C8644780   5.058   2.435   5.908  0.2738  0.1441 -0.2771
  118MOL    C8744781   4.929   2.498   5.922 -0.4289 -0.4933  0.4732
  118MOL    C8844782   4.867   2.497   6.050 -0.3361 -0.6771  0.3854
  118MOL    H8944783   4.640   2.416   6.626  0.6442  0.3433  0.7484
  118MOL    H9044784   4.767   2.235   6.533  0.4298  0.8122 -0.3795
  118MOL    H9144785   4.916   2.227   6.350  2.4485 -0.0136  0.3153
  118MOL    H9244786   4.998   2.370   6.414  1.2073 -0.9807 -3.9847
  118MOL    H9344787   5.094   2.314   6.218 -0.7128 -1.4602  0.6494
  118MOL    H9444788   5.208   2.305   6.004 -1.1638 -0.8900 -2.5402
  118MOL    H9544789   5.101   2.434   5.810 -1.6320  0.7242 -1.1541
  118MOL    H9644790   4.889   2.559   5.843  0.7198 -1.1043 -0.5993
  118MOL    C9744791   4.737   2.563   6.078  0.3048  0.1992  0.3292
  118MOL    C9844792   4.724   2.716   6.107 -0.0310  0.5297 -0.4985
  118MOL    O9944793   4.697   2.667   5.977 -0.0914 -0.1526  0.0737
  118MOL   C10044794   4.848   2.806   6.132 -0.3054  0.6239 -0.4180
  118MOL   O10144795   4.817   2.940   6.082  0.0713  0.4704 -0.1777
  118MOL   C10244796   4.922   2.993   6.014  0.2951  0.1733 -0.2725
  118MOL   C10344797   5.034   3.045   6.083 -0.1291 -0.0401 -0.1216
  118MOL   C10444798   5.135   3.121   6.015 -0.2734 -0.0900  0.1219
  118MOL   C10544799   5.137   3.128   5.874  0.5586 -0.0565 -0.2391
  118MOL   C10644800   5.032   3.066   5.807 -0.5923 -0.0066 -0.2942
  118MOL   C10744801   4.925   2.993   5.869  0.4192 -0.1520  0.4611
  118MOL   H10844802   4.654   2.493   6.085  0.2848  0.2551  0.6858
  118MOL   H10944803   4.628   2.738   6.154  1.1102 -0.5403  2.4689
  118MOL   H11044804   4.937   2.761   6.088 -1.0925 -0.5689 -0.8212
  118MOL   H11144805   4.875   2.803   6.237 -0.7669  1.7761 -0.2601
  118MOL   H11244806   5.038   3.050   6.191 -0.5698 -0.3462 -0.0897
  118MOL   H11344807   5.212   3.157   6.082 -1.1827  0.1880  1.0358
  118MOL   H11444808   5.216   3.176   5.820  0.9278 -0.9888 -0.5355
  118MOL   H11544809   5.054   3.068   5.702 -3.2367 -0.3682 -0.8887
  118MOL   C11644810   4.832   2.904   5.791  0.4666  0.6624  0.0287
  118MOL   C11744811   4.699   2.949   5.735 -0.2552 -0.0095 -0.6340
  118MOL   O11844812   4.822   2.953   5.663 -0.7810  0.3256 -0.1761
  118MOL   C11944813   4.633   3.083   5.758 -0.8236  0.5438  0.0439
  118MOL   O12044814   4.559   3.130   5.649 -0.3968  0.7291 -0.5682
  118MOL   C12144815   4.437   3.077   5.617 -0.2905  0.2709  0.1930
  118MOL   C12244816   4.360   2.990   5.701 -0.0319 -0.2450  0.3778
  118MOL   C12344817   4.234   2.953   5.667 -0.0726 -0.3570 -0.7350
  118MOL   C12444818   4.183   2.994   5.540  0.2831 -0.7777  0.6647
  118MOL   C12544819   4.263   3.082   5.463  0.0639  0.2144  0.0028
  118MOL   C12644820   4.390   3.124   5.501  1.0710 -0.4666 -0.3153
  118MOL   H12744821   4.865   2.801   5.800 -2.6137 -0.2381  1.8045
  118MOL   H12844822   4.629   2.867   5.721 -0.0554 -0.3199  0.1441
  118MOL   H12944823   4.706   3.156   5.792 -0.8685  0.6481 -0.0815
  118MOL   H13044824   4.558   3.064   5.834 -1.8681  0.1506 -1.0606
  118MOL   H13144825   4.393   2.951   5.796  0.1622  0.1776  0.4865
  118MOL   H13244826   4.185   2.881   5.731 -0.5978  0.9853  0.4055
  118MOL   H13344827   4.078   2.976   5.524 -0.2716  0.3938  2.8637
  118MOL   H13444828   4.213   3.126   5.378 -0.3363 -1.9085 -0.8882
  118MOL   C13544829   4.469   3.232   5.426  0.2371 -0.0176 -0.5201
  118MOL   C13644830   4.593   3.206   5.352 -0.6392  0.0935  0.0808
  118MOL   O13744831   4.473   3.196   5.286 -0.3758 -0.1645  0.3944
  118MOL   C13844832   4.667   3.070   5.347  0.3278  0.4711 -0.2940
  118MOL   O13944833   4.787   3.080   5.274 -0.3030  0.3940 -0.1175
  118MOL   C14044834   4.891   3.159   5.318  0.0069  0.8540 -0.1029
  118MOL   C14144835   4.911   3.193   5.456 -0.0224 -0.1406  0.7258
  118MOL   C14244836   5.023   3.276   5.492 -0.4275 -0.1350  0.1155
  118MOL   C14344837   5.103   3.332   5.395 -0.4443  0.4253 -0.3199
  118MOL   C14444838   5.071   3.308   5.256  0.3378  0.2572  0.0274
  118MOL   C14544839   4.971   3.219   5.213  0.1397 -0.1014  0.3112
  118MOL   H14644840   4.440   3.333   5.453  0.2416 -0.0321 -0.4604
  118MOL   H14744841   4.658   3.292   5.338  0.1540 -0.9362 -2.8925
  118MOL   H14844842   4.607   2.993   5.301  1.3598 -1.0981  0.9139
  118MOL   H14944843   4.697   3.043   5.449  0.6985  1.4743 -0.1317
  118MOL   H15044844   4.855   3.144   5.535 -0.8783 -0.7784 -0.2620
  118MOL   H15144845   5.045   3.291   5.597 -0.3658 -2.9433  0.5438
  118MOL   H15244846   5.176   3.399   5.437 -0.2703 -0.2214  0.4125
  118MOL   H15344847   5.135   3.344   5.176 -0.1479  1.0684  0.0112
  118MOL   C15444848   4.956   3.194   5.060  0.5053  0.4388 -1.1576
  118MOL   C15544849   4.833   3.231   4.981 -0.0419  0.8422 -0.2804
  118MOL   O15644850   4.949   3.319   4.991  0.2627 -0.3692 -0.0339
  118MOL   C15744851   4.699   3.289   5.032  0.4914 -0.4996 -0.2554
  118MOL   O15844852   4.658   3.382   4.927  0.0879  0.5078  0.3595
  118MOL   C15944853   4.529   3.428   4.914 -0.0424 -0.6709  0.2227
  118MOL   C16044854   4.444   3.436   5.021  0.0339  0.2254 -0.4264
  118MOL   C16144855   4.306   3.459   5.001 -0.1239 -0.2149  0.4691
  118MOL   C16244856   4.247   3.472   4.873  0.2985  0.0518  0.6071
  118MOL   C16344857   4.340   3.485   4.765 -0.0771  0.6376  0.3763
  118MOL   C16444858   4.476   3.454   4.782  0.1195 -0.3069  0.4375
  118MOL   H16544859   5.025   3.119   5.023  2.3439  2.0999 -1.1973
  118MOL   H16644860   4.825   3.180   4.885 -0.0044  2.8034 -1.3527
  118MOL   H16744861   4.707   3.351   5.121 -1.4239 -2.2562  1.2003
  118MOL   H16844862   4.631   3.204   5.036  1.0080 -0.9071 -0.0943
  118MOL   H16944863   4.477   3.409   5.121  1.0551 -1.7511 -1.2694
  118MOL   H17044864   4.244   3.473   5.088  0.9066 -1.6560  1.4742
  118MOL   H17144865   4.142   3.494   4.861  0.0269 -1.4255  0.2191
  118MOL   H17244866   4.295   3.518   4.672 -1.8276 -2.4132  0.0720
  118MOL   C17344867   4.565   3.453   4.662 -0.5367  0.2541 -0.7712
  118MOL   C17444868   4.592   3.338   4.567  0.3975 -0.8343 -0.1182
  118MOL   O17544869   4.508   3.454   4.530 -0.5325 -0.5612 -0.0883
  118MOL   C17644870   4.522   3.198   4.579  0.2924 -0.1200  0.4980
  118MOL   O17744871   4.494   3.148   4.447  0.6168 -0.1816 -0.2445
  118MOL   C17844872   4.451   3.015   4.432  0.2581  0.0727  0.1300
  118MOL   C17944873   4.473   2.928   4.539 -0.2720  0.3507 -0.2433
  118MOL   C18044874   4.427   2.793   4.519  0.1795 -0.2337  0.4512
  118MOL   C18144875   4.358   2.756   4.404  0.2666 -0.1213  0.2772
  118MOL   C18244876   4.343   2.849   4.298 -0.1120 -0.4868  0.2907
  118MOL   C18344877   4.395   2.978   4.306  0.0332  0.8808  0.2505
  118MOL   H18444878   4.650   3.517   4.685 -0.1401 -0.3319 -0.5913
  118MOL   H18544879   4.677   3.331   4.499 -0.6637  0.8986 -1.6799
  118MOL   H18644880   4.425   3.216   4.626 -1.5915 -0.9459 -2.8796
  118MOL   H18744881   4.584   3.136   4.643  0.3464 -0.9283 -0.3274
  118MOL   H18844882   4.526   2.948   4.631 -0.0448  1.3692 -0.5898
  118MOL   H18944883   4.441   2.720   4.598  1.0621 -0.7630 -0.1864
  118MOL   H19044884   4.316   2.657   4.395  1.6560 -0.9062  2.1701
  118MOL   H19144885   4.274   2.820   4.220  2.1622 -0.1470 -1.9063
  118MOL   C19244886   4.377   3.074   4.193  0.0070 -0.2781 -0.1402
  118MOL   C19344887   4.441   3.081   4.059 -0.6831  0.3331  0.9260
  118MOL   O19444888   4.316   3.015   4.075  0.5704  0.2421  0.0719
  118MOL   C19544889   4.563   2.996   4.011  0.3753 -0.3432 -0.3811
  118MOL   O19644890   4.616   2.902   4.103  0.3396  0.2856  0.5047
  118MOL   C19744891   4.747   2.863   4.090 -0.4310 -0.2763 -0.3965
  118MOL   C19844892   4.819   2.888   3.969  0.0287 -0.8631 -0.3521
  118MOL   C19944893   4.950   2.843   3.954  0.1510  0.3194  0.4507
  118MOL   C20044894   5.011   2.794   4.074  0.0773  0.4052  0.6381
  118MOL   C20144895   4.943   2.759   4.185  0.2586 -0.2872  0.8314
  118MOL   C20244896   4.805   2.788   4.192 -0.7687 -0.4910 -0.7571
  118MOL   H20344897   4.343   3.172   4.225 -0.8296 -1.3376  2.3657
  118MOL   H20444898   4.419   3.164   3.993  0.8459  0.9947  1.2393
  118MOL   H20544899   4.639   3.072   3.994  1.0649 -0.4101  2.1084
  118MOL   H20644900   4.540   2.943   3.919 -0.4447 -0.9859  0.1843
  118MOL   H20744901   4.764   2.932   3.887  1.7966  1.9702 -0.0890
  118MOL   H20844902   5.014   2.843   3.867 -0.3903  2.2698  0.0460
  118MOL   H20944903   5.116   2.773   4.063  0.1450  1.1380 -0.1130
  118MOL   H21044904   5.005   2.708   4.258  3.5643  1.7239 -0.4836
  118MOL   C21144905   4.721   2.753   4.311  0.5000  0.3736 -0.2367
  118MOL   C21244906   4.660   2.615   4.312 -0.5179  0.6076 -0.4082
  118MOL   O21344907   4.768   2.643   4.397 -0.1759 -0.0642  0.3542
  118MOL   C21444908   4.685   2.513   4.191  0.3381  0.3455 -0.2787
  118MOL   O21544909   4.593   2.398   4.196 -0.1460  0.4943  0.6263
  118MOL   C21644910   4.464   2.423   4.150 -0.0591  0.4113  0.2473
  118MOL   C21744911   4.419   2.550   4.109 -0.1980 -0.0564 -0.3900
  118MOL   C21844912   4.285   2.565   4.061  0.8173 -0.2922 -0.7946
  118MOL   C21944913   4.199   2.456   4.061 -0.0762 -0.3764 -0.6334
  118MOL   C22044914   4.242   2.329   4.109  0.6206 -0.3579  0.0242
  118MOL   C22144915   4.377   2.310   4.147 -0.2619  0.0774 -0.0624
  118MOL   H22244916   4.691   2.842   4.365  2.8158  2.0068 -1.5333
  118MOL   H22344917   4.566   2.605   4.364 -0.4169  1.6434 -0.0190
  118MOL   H22444918   4.782   2.467   4.208  0.5664  1.4384  1.4328
  118MOL   H22544919   4.685   2.552   4.089  0.6125  0.8256 -0.0991
  118MOL   H22644920   4.478   2.640   4.116 -0.6358  0.2509 -0.6018
  118MOL   H22744921   4.248   2.663   4.038 -0.8251 -0.5990  0.4456
  118MOL   H22844922   4.098   2.482   4.033 -0.4795  0.1490  1.2512
  118MOL   H22944923   4.167   2.251   4.115  0.6544 -0.6933 -2.8925
  118MOL   C23044924   4.437   2.173   4.185  0.8517  0.0609  0.3105
  118MOL   C23144925   4.499   2.143   4.319  0.2532 -0.0785 -0.0628
  118MOL   O23244926   4.360   2.101   4.281 -0.5206 -0.1537  0.0876
  118MOL   C23344927   4.498   2.246   4.431 -0.5210  0.2277 -0.2186
  118MOL   O23444928   4.627   2.261   4.495  0.5797  0.6325  0.1484
  118MOL   C23544929   4.673   2.166   4.585  0.4325  0.2602 -0.2759
  118MOL   C23644930   4.586   2.072   4.647  0.8762  0.0916 -0.1234
  118MOL   C23744931   4.637   1.965   4.722  0.0806  0.8256  0.1601
  118MOL   C23844932   4.776   1.947   4.733 -0.4942 -0.1435 -0.5144
  118MOL   C23944933   4.864   2.041   4.670  0.1977 -0.1754  0.0889
  118MOL   C24044934   4.815   2.152   4.597  0.6467 -1.1249  0.1856
  118MOL   H24144935   4.463   2.119   4.094  1.1469 -0.4873  0.7083
  118MOL   H24244936   4.573   2.063   4.326  1.5551  1.0673 -0.5114
  118MOL   H24344937   4.418   2.228   4.503  1.8401 -0.6474  2.3037
  118MOL   H24444938   4.458   2.339   4.392  2.7862  2.0710  0.6070
  118MOL   H24544939   4.479   2.081   4.637  0.8346  0.6501  0.8237
  118MOL   H24644940   4.569   1.896   4.770  0.6748 -0.6331 -1.0830
  118MOL   H24744941   4.800   1.864   4.797 -0.9150  0.4573  0.4396
  118MOL   H24844942   4.971   2.034   4.681 -0.0265  0.3245  2.9187
  118MOL   C24944943   4.909   2.246   4.522 -0.7385  0.0719  1.0257
  118MOL   C25044944   4.919   2.395   4.551 -0.4033 -0.7308 -0.4460
  118MOL   O25144945   5.020   2.297   4.597 -0.7090  0.2052 -0.4147
  118MOL   C25244946   4.837   2.457   4.670 -0.3818 -0.0334 -0.0521
  118MOL   O25344947   4.897   2.575   4.710  1.2771  0.6380  0.0458
  118MOL   C25444948   4.831   2.651   4.807 -0.4500  0.0247  0.2300
  118MOL   C25544949   4.715   2.729   4.781  0.7386 -0.0934 -0.5226
  118MOL   C25644950   4.658   2.810   4.888 -0.3013 -0.3196  0.7391
  118MOL   C25744951   4.715   2.813   5.015 -0.6971 -0.5048 -0.3776
  118MOL   C25844952   4.835   2.737   5.032 -0.0252 -0.1157  0.5741
  118MOL   C25944953   4.893   2.657   4.936 -0.9786  0.2731 -0.4849
  118MOL   H26044954   4.938   2.210   4.424  0.5818 -1.1544  1.8526
  118MOL   H26144955   4.958   2.471   4.484  0.7421 -0.2437  0.7479
  118MOL   H26244956   4.832   2.395   4.759  2.3641  0.9834  0.8452
  118MOL   H26344957   4.735   2.474   4.633 -1.4842 -0.3185  2.7230
  118MOL   H26444958   4.667   2.726   4.685 -0.0270  2.8413 -0.2563
  118MOL   H26544959   4.565   2.861   4.870 -2.4307 -3.5916  1.9284
  118MOL   H26644960   4.675   2.875   5.094 -0.0186 -0.0345 -0.3983
  118MOL   H26744961   4.880   2.744   5.130 -1.4166  0.3400  1.1934
  118MOL   C26844962   5.009   2.566   4.969  0.2399  0.1834 -0.4215
  118MOL   C26944963   5.150   2.611   4.967 -0.1352 -0.0298 -0.2817
  118MOL   O27044964   5.075   2.602   5.089  0.3333 -0.3900 -0.2403
  118MOL   C27144965   5.184   2.755   4.927  0.7137  0.2403  0.3799
  118MOL   O27244966   5.315   2.793   4.963 -0.1250 -0.0030 -0.7172
  118MOL   C27344967   5.332   2.928   4.997  0.4154 -0.1335 -0.5521
  118MOL   C27444968   5.290   3.039   4.921  0.4016 -0.3086 -0.2678
  118MOL   C27544969   5.316   3.169   4.965  0.3774  0.1782  0.3958
  118MOL   C27644970   5.378   3.194   5.085  0.1001  0.0646  0.1859
  118MOL   C27744971   5.422   3.086   5.160 -0.3479  0.1685  0.3171
  118MOL   C27844972   5.397   2.953   5.121  0.4880  0.3293 -0.4588
  118MOL   H27944973   4.984   2.460   4.959 -1.1565  0.4994 -0.3505
  118MOL   H28044974   5.233   2.541   4.969  0.1268  0.2929  0.7461
  118MOL   H28144975   5.107   2.831   4.940  1.4304  0.9488  0.4964
  118MOL   H28244976   5.188   2.759   4.819 -0.5654  1.7483  0.3711
  118MOL   H28344977   5.241   3.014   4.828 -0.6893  0.9103 -0.0248
  118MOL   H28444978   5.285   3.258   4.912  0.4773 -1.2982 -2.2229
  118MOL   H28544979   5.406   3.296   5.109 -1.3982  0.9810 -1.7601
  118MOL   H28644980   5.459   3.112   5.258  0.1675  0.1739  0.1230
  118MOL   C28744981   5.428   2.834   5.216 -0.4563 -0.4073  0.1201
  118MOL   C28844982   5.553   2.761   5.224 -0.5739  0.0451  0.1762
  118MOL   O28944983   5.519   2.863   5.322  0.0262  0.4163  0.0072
  118MOL   C29044984   5.681   2.779   5.141  0.1769 -0.3211  0.4118
  118MOL   O29144985   5.791   2.734   5.210 -0.4852  0.4703  0.2227
  118MOL   C29244986   5.918   2.749   5.155 -0.3613 -0.1853  0.0206
  118MOL   C29344987   5.957   2.766   5.021  0.1021 -0.0893  0.5081
  118MOL   C29444988   6.095   2.781   4.986  0.0946  0.1034  0.0892
  118MOL   C29544989   6.193   2.791   5.084  0.5777  0.1653  0.5060
  118MOL   C29644990   6.150   2.767   5.216  0.0866 -0.6014  0.2877
  118MOL   C29744991   6.015   2.740   5.252 -1.2556 -0.2554 -0.3771
  118MOL   H29844992   5.336   2.776   5.224 -1.2709  0.9022  0.3968
  118MOL   H29944993   5.538   2.666   5.274  0.7519 -1.1477 -1.6020
  118MOL   H30044994   5.698   2.883   5.115 -1.6562 -0.0155  0.3829
  118MOL   H30144995   5.668   2.734   5.042 -1.8384  0.8878  0.1023
  118MOL   H30244996   5.888   2.774   4.938  1.8503  1.3976 -0.8751
  118MOL   H30344997   6.119   2.794   4.882  2.1905  1.1395  0.6859
  118MOL   H30444998   6.294   2.817   5.059  0.7045 -0.2780  0.5495
  118MOL   H30544999   6.224   2.765   5.295 -2.1768 -1.4198  2.4596
  118MOL   C30645000   5.979   2.721   5.395 -0.4538 -0.5775  0.1188
  118MOL   C30745001   5.915   2.592   5.450  0.4972  0.3712  0.4430
  118MOL   O30845002   6.054   2.614   5.462  0.3578  0.5586 -0.3954
  118MOL   C30945003   5.885   2.470   5.362  0.2089  0.4465 -0.8644
  118MOL   O31045004   5.838   2.347   5.429 -0.5382 -0.7480  0.1862
  118MOL   C31145005   5.935   2.263   5.487  0.2977  0.6623  0.6200
  118MOL   C31245006   6.074   2.280   5.480 -0.2159  0.3072  0.2622
  118MOL   C31345007   6.168   2.195   5.544 -0.0493 -0.6391  0.4785
  118MOL   C31445008   6.121   2.080   5.608  0.9084 -0.0884 -0.3724
  118MOL   C31545009   5.980   2.057   5.618  0.0612 -0.1350  0.8263
  118MOL   C31645010   5.888   2.153   5.562 -0.0023 -0.4565  0.3621
  118MOL   H31745011   5.963   2.811   5.453  0.6388  0.5507 -1.2941
  118MOL   H31845012   5.859   2.609   5.541  2.8060  0.1061  1.9559
  118MOL   H31945013   5.965   2.447   5.292 -0.5008 -4.5218 -0.2181
  118MOL   H32045014   5.816   2.506   5.285 -0.8510  0.4131  0.0654
  118MOL   H32145015   6.108   2.367   5.425  0.0211  0.4510  0.6317
  118MOL   H32245016   6.273   2.218   5.535 -0.0349 -0.3110  1.3726
  118MOL   H32345017   6.196   2.018   5.654  1.3932  1.3798  0.8681
  118MOL   H32445018   5.940   1.973   5.672 -1.1766 -0.8956 -1.2285
  118MOL   C32545019   5.741   2.138   5.583  0.2442 -0.0064  0.0949
  118MOL   C32645020   5.655   2.017   5.542  0.3428  0.4416 -0.8229
  118MOL   O32745021   5.704   2.031   5.672 -0.1388  0.5837  0.5892
  118MOL   C32845022   5.708   1.913   5.454 -0.4131  0.0691 -0.3542
  118MOL   O32945023   5.638   1.791   5.458  0.2638  0.4009 -0.7950
  118MOL   C33045024   5.676   1.706   5.564  0.8324  0.1313  0.4803
  118MOL   C33145025   5.811   1.669   5.579 -0.6675  0.0198 -0.5609
  118MOL   C33245026   5.846   1.573   5.679 -0.0388  0.3044 -0.0371
  118MOL   C33345027   5.743   1.518   5.751  0.7124  0.2534  0.4203
  118MOL   C33445028   5.612   1.548   5.727 -0.1270 -0.6512 -0.0643
  118MOL   C33545029   5.577   1.653   5.642 -0.4288 -0.4108 -1.0017
  118MOL   H33645030   5.691   2.224   5.627  1.6369  0.5030  0.7051
  118MOL   H33745031   5.552   2.046   5.519 -0.0730  0.2598  0.8077
  118MOL   H33845032   5.810   1.899   5.489 -0.6328  0.2807  0.3811
  118MOL   H33945033   5.704   1.953   5.353 -1.9432 -0.6994 -0.6008
  118MOL   H34045034   5.900   1.716   5.539 -0.6633  1.6933  1.2993
  118MOL   H34145035   5.950   1.554   5.700 -0.8549 -1.7805  2.3993
  118MOL   H34245036   5.770   1.435   5.815  0.6078 -0.5953 -0.6254
  118MOL   H34345037   5.531   1.505   5.783 -0.6978  0.1043 -0.2994
  118MOL   C34445038   5.433   1.693   5.633 -0.0718 -0.3523 -0.3762
  118MOL   C34545039   5.338   1.620   5.540  0.4769  0.4167  0.0982
  118MOL   O34645040   5.346   1.596   5.680  0.5841 -0.1114 -0.3437
  118MOL   C34745041   5.365   1.501   5.460  1.1689 -0.4316  0.2511
  118MOL   O34845042   5.247   1.418   5.454  0.3406 -0.1905  0.0592
  118MOL   C34945043   5.252   1.307   5.376  0.3137 -0.5279  0.4969
  118MOL   C35045044   5.366   1.272   5.295  0.0393 -0.4922 -0.5569
  118MOL   C35145045   5.359   1.161   5.210 -0.2177  0.3957  0.1294
  118MOL   C35245046   5.247   1.079   5.211 -0.0829  0.2251 -0.6143
  118MOL   C35345047   5.132   1.125   5.276  0.2491 -0.6576  0.1150
  118MOL   C35445048   5.127   1.238   5.356 -0.2084  0.9557 -0.2517
  118MOL   H35545049   5.406   1.785   5.684 -0.2707 -0.8182  0.3779
  118MOL   H35645050   5.242   1.666   5.519  0.2511 -0.6867 -1.3219
  118MOL   H35745051   5.440   1.439   5.509 -0.1154 -1.3284  1.1122
  118MOL   H35845052   5.398   1.545   5.366 -0.4454  2.9739  1.1917
  118MOL   H35945053   5.460   1.326   5.287 -0.5277  0.3429 -1.6325
  118MOL   H36045054   5.447   1.126   5.158 -0.7100 -1.2091  0.3389
  118MOL   H36145055   5.249   0.981   5.165  1.2845 -0.6417  1.2002
  118MOL   H36245056   5.040   1.069   5.265  1.1370 -1.8239 -1.5518
  118MOL   C36345057   5.004   1.292   5.419  0.2380  0.1989 -0.2492
  118MOL   C36445058   4.878   1.321   5.339  0.5112 -0.5504 -0.4632
  118MOL   O36545059   4.895   1.204   5.419 -0.0862 -0.1255 -0.3203
  118MOL   C36645060   4.856   1.293   5.195 -0.4819 -0.2005 -0.4431
  118MOL   O36745061   4.959   1.353   5.115 -0.2651 -0.1229  0.6100
  118MOL   C36845062   4.966   1.325   4.978 -0.2620  0.2964 -0.0277
  118MOL   C36945063   4.857   1.280   4.902  0.3989 -0.3323 -0.0000
  118MOL   C37045064   4.871   1.278   4.762 -0.8241 -0.7043  0.5126
  118MOL   C37145065   4.996   1.303   4.703  0.0248  0.2111 -0.4559
  118MOL   C37245066   5.111   1.317   4.783 -0.0546 -0.1422 -0.5626
  118MOL   C37345067   5.099   1.342   4.921  0.1151  0.0213 -0.1007
  118MOL   H37445068   5.018   1.361   5.502 -2.5968  1.6426 -0.9252
  118MOL   H37545069   4.823   1.410   5.368  1.0662  0.5604 -2.6695
  118MOL   H37645070   4.763   1.344   5.169  0.4936  2.3046  0.8231
  118MOL   H37745071   4.855   1.186   5.172  1.4882 -0.4837  0.7391
  118MOL   H37845072   4.757   1.270   4.940 -0.6609  1.2146 -2.2664
  118MOL   H37945073   4.789   1.245   4.700 -0.4580 -3.7346  1.5615
  118MOL   H38045074   5.006   1.289   4.597  0.8721  2.5380 -0.7200
  118MOL   H38145075   5.197   1.330   4.720  0.1902  1.6974  0.1167
  118MOL   H38245076   5.178   1.366   4.991  0.0034 -0.2205  0.1079
  119MOL     C145077   1.593   3.730   5.754 -0.3476 -0.1518  0.0120
  119MOL     C245078   1.613   3.851   5.657 -0.9151  0.7844  0.2067
  119MOL     O345079   1.630   3.863   5.799 -0.5502  0.3739 -0.5716
  119MOL     C445080   1.495   3.929   5.603  0.1010  0.0518 -0.1646
  119MOL     O545081   1.373   3.875   5.660 -0.0691  0.0743 -0.4489
  119MOL     C645082   1.308   3.944   5.766 -0.3273  0.3542  0.5680
  119MOL     C745083   1.379   4.042   5.837  0.3084 -0.6175  0.4634
  119MOL     C845084   1.323   4.117   5.942 -0.2157  0.1703 -0.9097
  119MOL     C945085   1.190   4.083   5.983  0.2672 -0.0916 -0.7136
  119MOL    C1045086   1.113   3.986   5.914  0.2693 -0.6591  0.8237
  119MOL    C1145087   1.174   3.914   5.803  0.1198  0.0837 -0.1159
  119MOL    H1245088   1.673   3.660   5.780  1.2853  1.2425 -1.1420
  119MOL    H1345089   1.707   3.848   5.601 -0.4583 -2.8722  1.0030
  119MOL    H1445090   1.492   3.931   5.494  1.3992  0.0797 -0.2146
  119MOL    H1545091   1.515   4.035   5.620  1.4934 -0.4758  1.6243
  119MOL    H1645092   1.481   4.065   5.810 -1.0116  1.9838 -2.6162
  119MOL    H1745093   1.390   4.185   5.993  0.2390 -0.5054 -0.5849
  119MOL    H1845094   1.151   4.133   6.071  0.1506  0.5438 -1.1237
  119MOL    H1945095   1.012   3.970   5.950  0.3505  1.7652  2.2600
  119MOL    H2045096   1.491   3.702   5.782 -1.3316  0.2650 -2.9957
  119MOL    C2145097   1.092   3.813   5.724  0.2986 -0.2896 -0.3843
  119MOL    C2245098   1.099   3.661   5.756 -0.2078  0.7823 -0.4706
  119MOL    O2345099   0.994   3.747   5.806  0.2949  1.1486 -0.1757
  119MOL    C2445100   1.191   3.602   5.857 -0.6902 -0.2888  0.2836
  119MOL    O2545101   1.133   3.505   5.939 -0.1148 -0.0134  0.1147
  119MOL    C2645102   1.046   3.548   6.040  0.4035  0.3561  0.1326
  119MOL    C2745103   1.063   3.675   6.107 -0.3833 -0.3647  0.4293
  119MOL    C2845104   0.986   3.702   6.224 -0.1680 -0.4505  0.2483
  119MOL    C2945105   0.896   3.608   6.272  0.2199 -0.0484 -0.0846
  119MOL    C3045106   0.865   3.493   6.200  0.4177  0.1011  0.4630
  119MOL    C3145107   0.946   3.457   6.084 -0.1819 -0.0480 -0.8208
  119MOL    H3245108   1.049   3.868   5.640 -1.8169  1.1056  1.5662
  119MOL    H3345109   1.072   3.599   5.671  0.4040  0.4808 -0.4506
  119MOL    H3445110   1.229   3.680   5.924 -2.3090 -1.1443  2.2293
  119MOL    H3545111   1.280   3.560   5.809  0.5073  1.2563  1.1149
  119MOL    H3645112   1.144   3.738   6.075 -0.3084 -0.8423 -0.3506
  119MOL    H3745113   1.008   3.787   6.287 -1.9195  1.6234 -1.8671
  119MOL    H3845114   0.853   3.617   6.371  2.3411  1.1471  0.7536
  119MOL    H3945115   0.806   3.418   6.251 -1.1991  1.3813  0.5133
  119MOL    C4045116   0.917   3.328   6.030  0.7732  0.2195  0.1486
  119MOL    C4145117   1.025   3.220   6.028 -0.1684 -0.1869 -0.0066
  119MOL    O4245118   0.933   3.234   6.135 -0.3405 -0.1319 -0.9655
  119MOL    C4345119   1.168   3.244   6.061 -0.7376  0.8339  0.0096
  119MOL    O4445120   1.222   3.116   6.084  0.1389 -0.0405  0.2012
  119MOL    C4545121   1.337   3.115   6.157  1.2624  0.5555  0.5040
  119MOL    C4645122   1.446   3.203   6.125 -1.5458 -0.0247 -0.1037
  119MOL    C4745123   1.562   3.209   6.208  0.2115  0.6875 -0.0390
  119MOL    C4845124   1.566   3.126   6.322  0.6181  0.4635  1.0393
  119MOL    C4945125   1.467   3.031   6.349 -0.4421  0.7608 -0.4123
  119MOL    C5045126   1.351   3.026   6.266 -0.4571 -0.0116  0.2999
  119MOL    H5145127   0.828   3.320   5.968 -0.5403  0.1941  2.0059
  119MOL    H5245128   1.006   3.131   5.968  0.2637  0.8059 -1.6546
  119MOL    H5345129   1.176   3.314   6.143 -0.2974  0.4237  0.3191
  119MOL    H5445130   1.218   3.281   5.971  1.5618 -0.1599  0.8570
  119MOL    H5545131   1.446   3.273   6.042  0.9241 -0.0397 -0.1447
  119MOL    H5645132   1.641   3.279   6.186 -1.0362  2.0820 -0.1572
  119MOL    H5745133   1.658   3.131   6.379  0.8039  1.5315  0.6609
  119MOL    H5845134   1.469   2.965   6.435 -1.2775  1.0266 -0.1818
  119MOL    C5945135   1.246   2.936   6.299  0.3525 -0.0798 -0.3375
  119MOL    C6045136   1.208   2.809   6.216 -0.1614 -0.1823 -0.1793
  119MOL    O6145137   1.305   2.807   6.324  0.1428 -0.2427  0.4160
  119MOL    C6245138   1.263   2.805   6.074  0.2843  1.1401  0.5031
  119MOL    O6345139   1.269   2.680   6.018 -0.6628  0.0945  0.0793
  119MOL    C6445140   1.157   2.616   5.981 -0.0548 -0.6217 -0.5659
  119MOL    C6545141   1.029   2.672   6.001  0.1308  0.9942 -0.1535
  119MOL    C6645142   0.911   2.600   5.971 -0.0605 -1.0711 -0.0582
  119MOL    C6745143   0.916   2.471   5.921 -0.4500 -0.1273 -0.3344
  119MOL    C6845144   1.045   2.408   5.901 -0.7911 -0.0061 -0.0586
  119MOL    C6945145   1.163   2.487   5.928 -0.4997 -0.2296  0.1758
  119MOL    H7045146   1.196   2.971   6.389 -2.1232 -1.3448 -1.1586
  119MOL    H7145147   1.108   2.775   6.240 -0.6179  0.1026 -1.6282
  119MOL    H7245148   1.361   2.851   6.078  0.2172  1.2059  1.3533
  119MOL    H7345149   1.207   2.866   6.003 -1.8557 -3.0483 -1.6110
  119MOL    H7445150   1.024   2.775   6.034 -1.5141  0.6960  0.5992
  119MOL    H7545151   0.812   2.637   5.993  1.0660  0.6919  2.2538
  119MOL    H7645152   0.830   2.407   5.907 -0.5658 -0.5383  2.0404
  119MOL    H7745153   1.046   2.305   5.869 -1.6868 -0.8007  2.3611
  119MOL    C7845154   1.296   2.427   5.909  0.1721  0.3941 -0.0586
  119MOL    C7945155   1.377   2.332   5.989 -0.3341  0.3147 -0.5402
  119MOL    O8045156   1.293   2.287   5.884  0.6368 -0.5428  0.3617
  119MOL    C8145157   1.336   2.286   6.120  0.6908  0.3974 -0.0139
  119MOL    O8245158   1.405   2.164   6.135 -0.2114 -0.4571 -0.4433
  119MOL    C8345159   1.366   2.047   6.069  0.2100  0.3701  0.1764
  119MOL    C8445160   1.238   2.024   6.019 -0.1518 -0.2975  0.0091
  119MOL    C8545161   1.208   1.911   5.935 -0.1428 -0.2065  0.3043
  119MOL    C8645162   1.301   1.814   5.913 -0.5631 -0.1782  0.3256
  119MOL    C8745163   1.424   1.823   5.975  0.1513 -0.5371  0.5563
  119MOL    C8845164   1.463   1.943   6.046 -0.0763 -0.2566  0.5212
  119MOL    H8945165   1.348   2.463   5.820  0.9117 -0.3418  0.0702
  119MOL    H9045166   1.484   2.332   5.971 -0.6379  0.5026 -2.5060
  119MOL    H9145167   1.227   2.285   6.128  0.6232 -0.5733 -0.8542
  119MOL    H9245168   1.386   2.347   6.194  2.4577 -0.2041 -0.6865
  119MOL    H9345169   1.161   2.096   6.042 -1.4362 -1.9004  0.8885
  119MOL    H9445170   1.112   1.888   5.892  0.4999 -0.7445 -0.8858
  119MOL    H9545171   1.275   1.730   5.850  0.6003  0.5849 -1.2046
  119MOL    H9645172   1.495   1.741   5.966  1.1158  0.3881 -0.4050
  119MOL    C9745173   1.600   1.951   6.104  0.6879  0.9881 -0.1216
  119MOL    C9845174   1.640   1.890   6.239  0.1165 -0.1068 -0.1773
  119MOL    O9945175   1.675   1.826   6.113  0.5079 -0.2095 -0.2598
  119MOL   C10045176   1.533   1.814   6.315  0.1517  0.5352  0.2535
  119MOL   O10145177   1.574   1.764   6.436 -0.4977 -0.5315  0.4457
  119MOL   C10245178   1.642   1.644   6.431  0.2725 -0.5325 -0.4843
  119MOL   C10345179   1.672   1.571   6.313  0.1383  0.2873 -0.7739
  119MOL   C10445180   1.730   1.445   6.319 -0.4324 -0.0538  0.1608
  119MOL   C10545181   1.765   1.391   6.445 -0.3970 -0.2177  0.3826
  119MOL   C10645182   1.733   1.465   6.566 -0.3366  0.2148  0.2489
  119MOL   C10745183   1.666   1.588   6.558  0.5721 -0.0026  0.2619
  119MOL   H10845184   1.659   2.024   6.050  1.1991 -0.6603 -1.8852
  119MOL   H10945185   1.722   1.936   6.293  1.6947 -2.3835 -0.5307
  119MOL   H11045186   1.484   1.737   6.256  1.7887 -2.2604  2.4009
  119MOL   H11145187   1.460   1.888   6.349  0.3977  0.5510  0.7560
  119MOL   H11245188   1.664   1.608   6.212 -2.6750 -1.1747 -1.1416
  119MOL   H11345189   1.766   1.385   6.236 -0.2835  1.4905 -0.9201
  119MOL   H11445190   1.814   1.296   6.457  0.9946  0.1591 -1.9751
  119MOL   H11545191   1.760   1.414   6.657  0.6809 -1.8135 -1.1601
  119MOL   C11645192   1.634   1.660   6.683  0.4395 -0.2521 -0.3770
  119MOL   C11745193   1.505   1.664   6.755  0.0198  0.0201 -0.1948
  119MOL   O11845194   1.600   1.561   6.787  0.5367  0.3254 -0.2115
  119MOL   C11945195   1.375   1.611   6.695  0.0771 -0.1748  0.0986
  119MOL   O12045196   1.261   1.675   6.763 -1.0770 -0.1245 -0.5668
  119MOL   C12145197   1.200   1.618   6.880 -0.6770 -0.5740 -0.0230
  119MOL   C12245198   1.263   1.517   6.958  0.0817  0.0821  0.2548
  119MOL   C12345199   1.211   1.465   7.073  0.7745 -0.0234 -0.2874
  119MOL   C12445200   1.092   1.517   7.120  0.1912  0.1367 -0.4742
  119MOL   C12545201   1.019   1.613   7.043  0.0626  0.6417  0.1548
  119MOL   C12645202   1.075   1.664   6.918 -0.2077  0.7163  0.6918
  119MOL   H12745203   1.713   1.729   6.710  0.0469 -0.1998  0.6354
  119MOL   H12845204   1.495   1.740   6.832 -1.6950 -0.0795 -0.3104
  119MOL   H12945205   1.376   1.503   6.712 -2.7921 -0.0963  1.1551
  119MOL   H13045206   1.372   1.617   6.586 -0.2471  1.2112  0.1692
  119MOL   H13145207   1.358   1.482   6.922 -0.2052 -2.2441  1.6567
  119MOL   H13245208   1.250   1.392   7.142  0.3920  0.3118  0.2804
  119MOL   H13345209   1.044   1.485   7.211 -0.1289  1.3047 -0.2163
  119MOL   H13445210   0.931   1.657   7.089 -0.7751 -0.4552 -0.3759
  119MOL   C13545211   0.994   1.767   6.841  0.2511 -0.4340 -0.0579
  119MOL   C13645212   0.904   1.743   6.724 -0.7663 -0.6439 -0.3011
  119MOL   O13745213   0.853   1.744   6.865 -0.3752 -0.6303 -0.5305
  119MOL   C13845214   0.880   1.611   6.655 -0.7107 -0.1825 -1.5142
  119MOL   O13945215   0.850   1.628   6.517 -0.7068 -0.1759 -0.6112
  119MOL   C14045216   0.942   1.666   6.421 -0.6529  0.1883 -0.1310
  119MOL   C14145217   1.078   1.681   6.446  0.0913 -0.1828 -0.0272
  119MOL   C14245218   1.171   1.728   6.351 -0.1713 -0.2718 -0.0674
  119MOL   C14345219   1.123   1.768   6.226 -0.8159 -0.2998 -0.5517
  119MOL   C14445220   0.985   1.757   6.191 -0.1406  0.4683 -0.5098
  119MOL   C14545221   0.897   1.704   6.287 -0.5685 -0.0496  0.0018
  119MOL   H14645222   1.026   1.869   6.865  2.6324 -1.2924  0.5515
  119MOL   H14745223   0.870   1.829   6.667  1.0565  0.3217  0.0187
  119MOL   H14845224   0.794   1.558   6.697  0.4886 -0.5487  0.5744
  119MOL   H14945225   0.963   1.542   6.673 -1.3627 -0.4335  0.6855
  119MOL   H15045226   1.110   1.656   6.547  0.0086 -0.5339 -0.0851
  119MOL   H15145227   1.276   1.752   6.363 -0.2025  0.7696 -1.7328
  119MOL   H15245228   1.192   1.805   6.151 -0.8257 -1.1716 -0.9903
  119MOL   H15345229   0.954   1.786   6.091 -1.3352 -0.7403 -0.4871
  119MOL   C15445230   0.755   1.688   6.241  0.1154  0.2109 -0.1368
  119MOL   C15545231   0.648   1.790   6.270  0.2927  0.0031 -0.0762
  119MOL   O15645232   0.704   1.778   6.139 -0.1882 -0.1132  0.2343
  119MOL   C15745233   0.667   1.930   6.326 -0.5353  0.6557 -0.3128
  119MOL   O15845234   0.602   2.038   6.255 -0.1092 -0.0278 -0.7428
  119MOL   C15945235   0.649   2.055   6.127 -0.2972  0.0052  0.8240
  119MOL   C16045236   0.789   2.044   6.097 -0.5084 -0.2275 -0.1362
  119MOL   C16145237   0.837   2.034   5.966  0.1255 -0.1393  0.3383
  119MOL   C16245238   0.758   2.078   5.861  0.5279 -0.5078  0.2883
  119MOL   C16345239   0.619   2.115   5.889  0.4117  0.2749  0.3564
  119MOL   C16445240   0.568   2.102   6.019 -0.0047 -0.5426  0.3126
  119MOL   H16545241   0.737   1.583   6.217 -0.1727 -0.1574  1.6018
  119MOL   H16645242   0.550   1.744   6.279 -0.2228  0.6598 -2.1133
  119MOL   H16745243   0.773   1.949   6.335 -0.4367  0.5866 -1.2619
  119MOL   H16845244   0.626   1.924   6.426 -0.4757  1.2372 -0.2498
  119MOL   H16945245   0.857   2.019   6.176 -0.3460 -2.1436 -0.8619
  119MOL   H17045246   0.934   1.989   5.949 -1.2542 -2.8073 -0.6419
  119MOL   H17145247   0.809   2.087   5.767 -1.9676  0.1419 -1.0494
  119MOL   H17245248   0.550   2.149   5.814 -0.2878  0.0408  0.8892
  119MOL   C17345249   0.422   2.141   6.045 -0.1162  0.1587  0.1115
  119MOL   C17445250   0.401   2.291   6.085  0.3473  0.6256  0.2356
  119MOL   O17545251   0.361   2.236   5.955 -0.5520  0.7482 -0.1686
  119MOL   C17645252   0.514   2.394   6.078  0.2264 -0.1495 -0.4723
  119MOL   O17745253   0.473   2.523   6.029  0.0794  0.6421 -0.1112
  119MOL   C17845254   0.503   2.575   5.904 -0.1923  0.2780 -1.0180
  119MOL   C17945255   0.552   2.495   5.799 -0.0449  0.6763  0.2174
  119MOL   C18045256   0.568   2.549   5.668 -0.1706  0.9942 -0.4281
  119MOL   C18145257   0.549   2.688   5.651 -1.0038 -0.8300 -1.4491
  119MOL   C18245258   0.514   2.772   5.754  0.9426 -0.0926 -0.0082
  119MOL   C18345259   0.476   2.713   5.874  0.4650 -0.3757  0.1085
  119MOL   H18445260   0.356   2.076   6.102 -0.4349 -0.0241 -0.4670
  119MOL   H18545261   0.316   2.325   6.143 -1.0104 -0.9200 -0.8078
  119MOL   H18645262   0.605   2.362   6.027  1.0026  2.1905 -0.6470
  119MOL   H18745263   0.549   2.417   6.179 -1.0516 -0.3063  0.0131
  119MOL   H18845264   0.561   2.387   5.807  0.2793  0.6935  0.0707
  119MOL   H18945265   0.600   2.496   5.579 -2.5197 -0.1605 -0.6223
  119MOL   H19045266   0.570   2.732   5.554  0.5432  0.1321 -0.6929
  119MOL   H19145267   0.508   2.877   5.731  0.5332 -0.1171 -0.0090
  119MOL   C19245268   0.418   2.809   5.972  0.3989  0.8772  0.0014
  119MOL   C19345269   0.466   2.827   6.107  0.1428 -0.0667  0.0999
  119MOL   O19445270   0.498   2.920   6.004  0.2231  0.0525  0.1575
  119MOL   C19545271   0.589   2.765   6.170  0.7284 -0.1162 -0.5972
  119MOL   O19645272   0.647   2.839   6.269  0.1308 -0.2072 -0.4188
  119MOL   C19745273   0.768   2.801   6.326 -0.5238 -0.0663  0.4984
  119MOL   C19845274   0.818   2.668   6.316 -0.6519  0.3745 -0.1012
  119MOL   C19945275   0.929   2.637   6.396 -0.6160 -0.2220 -0.2232
  119MOL   C20045276   0.994   2.736   6.472  0.3618  0.6140  1.1720
  119MOL   C20145277   0.956   2.872   6.464  0.5069 -0.1114  0.1999
  119MOL   C20245278   0.839   2.904   6.398  0.1348  0.8250 -0.0760
  119MOL   H20345279   0.325   2.845   5.929  2.0418  2.2848 -2.5391
  119MOL   H20445280   0.386   2.851   6.177 -3.0652 -2.9943 -2.3903
  119MOL   H20545281   0.656   2.739   6.088  1.4715  0.5127 -0.1986
  119MOL   H20645282   0.560   2.667   6.206 -2.5974  0.3469 -1.8627
  119MOL   H20745283   0.759   2.592   6.268  1.8973 -1.2527 -0.7168
  119MOL   H20845284   0.966   2.535   6.390 -0.9719 -0.3555 -0.1367
  119MOL   H20945285   1.078   2.716   6.537 -0.0134 -0.6030  1.2992
  119MOL   H21045286   1.004   2.944   6.529  0.7417 -1.1010  1.1487
  119MOL   C21145287   0.794   3.041   6.400 -0.1067  0.2942  0.1657
  119MOL   C21245288   0.684   3.090   6.487  0.3069  0.0195  0.2035
  119MOL   O21345289   0.821   3.108   6.524 -0.1017  0.0495  0.7061
  119MOL   C21445290   0.599   3.004   6.571 -0.1080  0.3163 -0.3405
  119MOL   O21545291   0.577   3.086   6.690  0.2975  0.4299  0.2563
  119MOL   C21645292   0.457   3.143   6.706 -0.3205 -0.0521  0.3866
  119MOL   C21745293   0.346   3.062   6.735 -0.4255  0.7960 -0.2938
  119MOL   C21845294   0.220   3.118   6.772  0.0955  0.0338 -0.3642
  119MOL   C21945295   0.208   3.258   6.782 -1.2433 -0.0875  0.1020
  119MOL   C22045296   0.324   3.338   6.751  0.0603  0.1954 -0.4974
  119MOL   C22145297   0.452   3.284   6.717 -0.4663  0.0323 -0.3514
  119MOL   H22245298   0.837   3.096   6.317  0.4683  1.1528  1.0230
  119MOL   H22345299   0.643   3.185   6.453 -0.8182 -0.6259 -0.2735
  119MOL   H22445300   0.639   2.910   6.609  0.1352  0.1198 -1.0675
  119MOL   H22545301   0.505   2.990   6.516 -0.0013  1.0211 -0.7107
  119MOL   H22645302   0.355   2.955   6.731 -1.4387  0.6747  0.5400
  119MOL   H22745303   0.135   3.054   6.793  0.4164 -0.0413  0.7325
  119MOL   H22845304   0.110   3.295   6.807 -0.3856  2.0831  0.3482
  119MOL   H22945305   0.315   3.446   6.753  1.1875  0.2753  0.8199
  119MOL   C23045306   0.574   3.367   6.688  0.4792  0.4879  0.2527
  119MOL   C23145307   0.576   3.480   6.586 -0.0029 -0.2546  0.9816
  119MOL   O23245308   0.561   3.502   6.728 -0.6721  0.4094  0.0547
  119MOL   C23345309   0.459   3.521   6.500  0.4612 -0.0244 -0.1700
  119MOL   O23445310   0.387   3.411   6.437 -0.2094  0.1443 -0.6212
  119MOL   C23545311   0.425   3.372   6.309  0.1871 -0.3652 -0.1319
  119MOL   C23645312   0.510   3.453   6.230 -0.5007  0.0219 -1.3141
  119MOL   C23745313   0.549   3.404   6.105  0.1033  0.1045  0.6541
  119MOL   C23845314   0.492   3.287   6.050  0.0432  0.4060 -0.1756
  119MOL   C23945315   0.416   3.206   6.134 -0.0671  0.0627 -0.1633
  119MOL   C24045316   0.383   3.247   6.265 -0.2450 -0.0916  0.2970
  119MOL   H24145317   0.661   3.323   6.734 -1.0011 -1.2716  1.4142
  119MOL   H24245318   0.671   3.489   6.534  0.1670  3.7077  1.8302
  119MOL   H24345319   0.486   3.608   6.439 -2.8101  0.3366 -1.1652
  119MOL   H24445320   0.393   3.555   6.579  0.1841 -0.8113 -0.0612
  119MOL   H24545321   0.538   3.554   6.259 -1.5434 -0.4004  1.3366
  119MOL   H24645322   0.601   3.465   6.034 -1.3201  0.3914 -0.1584
  119MOL   H24745323   0.521   3.254   5.951 -1.0986 -0.3229 -0.2808
  119MOL   H24845324   0.373   3.117   6.091 -0.5825  0.8567 -1.3008
  119MOL   C24945325   0.290   3.175   6.360  0.5462 -0.1488 -0.3932
  119MOL   C25045326   0.134   3.176   6.356 -0.6279  0.1363 -0.0066
  119MOL   O25145327   0.210   3.067   6.299 -0.1051  0.0810 -0.4915
  119MOL   C25245328   0.039   3.256   6.276  0.3181  0.5039  0.1856
  119MOL   O25345329   0.103   3.332   6.173  0.2155 -0.1995 -0.1810
  119MOL   C25445330   0.022   3.398   6.083 -0.8868  0.0430 -1.1418
  119MOL   C25545331   8.058   3.424   6.126  0.0091 -0.3434 -0.5884
  119MOL   C25645332   7.970   3.505   6.041 -0.1776  0.1788  0.1467
  119MOL   C25745333   8.021   3.563   5.921 -0.6270  0.4111  0.3723
  119MOL   C25845334   8.154   3.529   5.883  0.1625  0.2553 -0.5304
  119MOL   C25945335   0.068   3.444   5.959 -0.2388 -0.0991 -0.3651
  119MOL   H26045336   0.337   3.147   6.454 -0.4282 -2.8971 -0.6707
  119MOL   H26145337   0.108   3.167   6.462  0.1654  0.6422  0.2365
  119MOL   H26245338   8.156   3.324   6.342  0.0848  0.3082  0.1976
  119MOL   H26345339   8.140   3.178   6.243  0.3246  0.4428  0.3154
  119MOL   H26445340   8.014   3.367   6.206 -1.6036 -0.1336 -1.3185
  119MOL   H26545341   7.865   3.514   6.065 -0.6566 -3.2494 -0.3758
  119MOL   H26645342   7.953   3.620   5.861  0.1506  2.1996  1.1433
  119MOL   H26745343   0.024   3.563   5.788  2.6535  1.5920  0.9574
  119MOL   C26845344   0.204   3.411   5.908 -0.1029  0.3411 -0.6633
  119MOL   C26945345   0.239   3.285   5.826 -0.5688 -0.1522  0.1081
  119MOL   O27045346   0.219   3.412   5.763  0.3433  0.1492  0.0229
  119MOL   C27145347   0.136   3.184   5.786 -0.1451  0.3546  0.2146
  119MOL   O27245348   0.175   3.108   5.670  0.2846  0.1872 -0.0555
  119MOL   C27345349   0.147   3.131   5.538  0.1516  0.4089 -0.6510
  119MOL   C27445350   0.067   3.239   5.501 -0.3867  0.8328  0.6747
  119MOL   C27545351   0.050   3.256   5.361  0.4304 -0.6316 -0.1892
  119MOL   C27645352   0.096   3.167   5.262 -0.0745  0.3976 -0.2923
  119MOL   C27745353   0.171   3.060   5.310 -0.4308  0.5333 -0.0062
  119MOL   C27845354   0.202   3.041   5.445  0.4928 -0.4796 -0.1104
  119MOL   H27945355   0.285   3.463   5.958  0.0619  0.5903 -1.1881
  119MOL   H28045356   0.344   3.256   5.826 -1.4342 -3.6463 -2.3909
  119MOL   H28145357   0.037   3.229   5.777 -0.5758 -0.6001  0.1473
  119MOL   H28245358   0.132   3.122   5.876  2.9969 -1.1008 -0.5815
  119MOL   H28345359   0.040   3.319   5.568  1.2825  1.7978  0.2354
  119MOL   H28445360   8.170   3.345   5.324 -0.0972 -0.5337  0.7611
  119MOL   H28545361   0.080   3.180   5.156  1.8345  0.0455 -0.6422
  119MOL   H28645362   0.205   2.988   5.237 -0.9475 -0.7757  1.0228
  119MOL   C28745363   0.279   2.918   5.489  0.1212  0.1584 -0.4997
  119MOL   C28845364   0.213   2.792   5.538 -1.0585 -0.2941 -0.5746
  119MOL   O28945365   0.269   2.798   5.408 -0.1468  0.2552  1.1272
  119MOL   C29045366   0.060   2.783   5.544 -0.5480  0.0221  0.4087
  119MOL   O29145367   0.009   2.660   5.593  0.0066 -0.1340  0.0710
  119MOL   C29245368   0.038   2.632   5.726 -0.3336 -0.0932 -0.1250
  119MOL   C29345369   0.050   2.732   5.826  0.3642 -0.0373 -0.0130
  119MOL   C29445370   0.100   2.707   5.954 -0.1185 -0.3370  0.0831
  119MOL   C29545371   0.125   2.576   5.989 -0.0404  0.0526 -0.2744
  119MOL   C29645372   0.123   2.481   5.888  0.1745  0.6463 -0.0662
  119MOL   C29745373   0.073   2.504   5.762  0.6081 -0.1827  0.1301
  119MOL   H29845374   0.373   2.954   5.531  1.2348 -0.8838 -2.0866
  119MOL   H29945375   0.266   2.730   5.610  0.4341 -0.4187 -1.7638
  119MOL   H30045376   0.017   2.789   5.443  2.7477  1.5733 -0.9724
  119MOL   H30145377   0.024   2.869   5.599  0.2869 -0.4601  1.7136
  119MOL   H30245378   0.029   2.837   5.812  2.5308  0.3648 -0.5808
  119MOL   H30345379   0.108   2.789   6.023 -3.0539  1.0084 -1.1217
  119MOL   H30445380   0.159   2.554   6.090  0.4841 -0.8813 -0.6500
  119MOL   H30545381   0.146   2.379   5.916  0.0273  0.3086 -1.1293
  119MOL   C30645382   0.064   2.394   5.664  0.8797  0.3321 -0.3761
  119MOL   C30745383   0.179   2.309   5.606  0.6399 -0.5375 -0.2872
  119MOL   O30845384   0.110   2.267   5.720  0.3640  0.2581 -0.2717
  119MOL   C30945385   0.323   2.349   5.635 -0.4243  0.4267  0.0419
  119MOL   O31045386   0.416   2.242   5.600 -0.2016  0.2960  0.1435
  119MOL   C31145387   0.422   2.209   5.469 -0.3765 -0.3531 -0.2162
  119MOL   C31245388   0.375   2.289   5.364  0.4757 -0.2076  0.0142
  119MOL   C31345389   0.380   2.245   5.228 -0.0045 -0.1855 -0.1165
  119MOL   C31445390   0.433   2.120   5.202  0.4715  0.1159  0.1164
  119MOL   C31545391   0.482   2.039   5.305  0.0923  1.0242  0.7023
  119MOL   C31645392   0.471   2.082   5.437  0.1092 -0.1276  0.0564
  119MOL   H31745393   8.139   2.399   5.610  1.8078 -3.2771 -2.5629
  119MOL   H31845394   0.158   2.264   5.509  0.8423  1.1750 -1.1347
  119MOL   H31945395   0.325   2.367   5.743 -0.2824 -1.7711  0.4339
  119MOL   H32045396   0.342   2.446   5.590 -0.0531  0.6138  0.6028
  119MOL   H32145397   0.326   2.384   5.379 -0.2861  0.5229 -5.6996
  119MOL   H32245398   0.350   2.311   5.147  0.1331 -0.0289 -0.0396
  119MOL   H32345399   0.440   2.087   5.099  0.0173 -0.7989  0.3700
  119MOL   H32445400   0.541   1.951   5.286 -1.5138 -0.2068  1.3215
  119MOL   C32545401   0.526   1.995   5.541  1.0210  0.0050 -0.3806
  119MOL   C32645402   0.457   1.905   5.642 -0.2174  0.5521 -0.5034
  119MOL   O32745403   0.496   1.857   5.510  0.4496 -0.3914 -0.0003
  119MOL   C32845404   0.305   1.911   5.661 -0.7228  0.0299 -0.1233
  119MOL   O32945405   0.242   1.791   5.716 -0.0379  0.1228 -0.1732
  119MOL   C33045406   0.270   1.745   5.846 -0.3299 -0.3727 -0.6427
  119MOL   C33145407   0.325   1.839   5.939  0.6198 -0.0816 -0.2127
  119MOL   C33245408   0.341   1.794   6.067 -0.0950 -0.2872 -0.2560
  119MOL   C33345409   0.309   1.658   6.108 -0.0919  0.0159  0.2054
  119MOL   C33445410   0.258   1.566   6.014 -0.1696 -0.0226  0.3567
  119MOL   C33545411   0.236   1.612   5.883 -0.4648 -0.5224 -0.0310
  119MOL   H33645412   0.634   2.009   5.549  1.1524 -2.1942  2.9374
  119MOL   H33745413   0.517   1.868   5.725  1.6799 -0.7332 -2.3866
  119MOL   H33845414   0.261   1.930   5.563 -0.7632  2.2267  0.2843
  119MOL   H33945415   0.283   2.000   5.721  0.2220 -0.5365  1.0721
  119MOL   H34045416   0.344   1.943   5.916 -1.0641 -0.0111 -1.4322
  119MOL   H34145417   0.392   1.855   6.140  0.8841 -2.0529  0.5683
  119MOL   H34245418   0.332   1.630   6.209  0.2323 -0.9577 -0.1377
  119MOL   H34345419   0.244   1.461   6.039 -0.4941  0.0220  0.3756
  119MOL   C34445420   0.193   1.515   5.782  0.1402  0.0182 -0.3756
  119MOL   C34545421   0.279   1.478   5.655  0.9972 -0.1084  0.0208
  119MOL   O34645422   0.269   1.396   5.776  0.4948  0.5964 -0.5123
  119MOL   C34745423   0.408   1.545   5.618 -0.0646 -0.7144 -0.2769
  119MOL   O34845424   0.486   1.449   5.537  0.1926  0.2482  0.6042
  119MOL   C34945425   0.614   1.472   5.499 -0.1231 -0.2319 -0.1818
  119MOL   C35045426   0.688   1.579   5.549  0.0638 -0.1179 -0.5549
  119MOL   C35145427   0.809   1.619   5.484 -0.0786 -0.3111 -1.0493
  119MOL   C35245428   0.860   1.540   5.381 -0.0852 -0.1730  0.2657
  119MOL   C35345429   0.789   1.423   5.337 -0.2267 -0.0306 -0.3484
  119MOL   C35445430   0.672   1.387   5.403  0.1997  0.4290  0.0654
  119MOL   H35545431   0.085   1.514   5.776 -0.0055  2.0407  1.5646
  119MOL   H35645432   0.228   1.439   5.567  0.8698  0.3310 -0.1041
  119MOL   H35745433   0.468   1.572   5.705 -0.1467  1.4890 -0.8887
  119MOL   H35845434   0.399   1.638   5.563  0.3034 -0.4011  0.1918
  119MOL   H35945435   0.661   1.636   5.637 -0.9284 -0.8685 -0.3637
  119MOL   H36045436   0.862   1.706   5.521  1.5315 -1.6820 -0.0519
  119MOL   H36145437   0.951   1.552   5.324 -0.3325 -3.8534 -1.0191
  119MOL   H36245438   0.831   1.361   5.259  1.5782 -0.6743  1.1022
  119MOL   C36345439   0.580   1.271   5.358  0.5159  0.0655  0.3598
  119MOL   C36445440   0.516   1.265   5.223 -0.1494  0.6270 -0.6444
  119MOL   O36545441   0.643   1.204   5.247 -0.4699  0.7861 -0.6992
  119MOL   C36645442   0.499   1.370   5.126 -0.7763 -0.3271 -0.6435
  119MOL   O36745443   0.423   1.323   5.023 -0.1884  0.7951 -0.0219
  119MOL   C36845444   0.393   1.412   4.921 -0.8309 -0.1163  0.0535
  119MOL   C36945445   0.319   1.367   4.807  0.0822 -0.5706 -0.2392
  119MOL   C37045446   0.277   1.457   4.705  0.2541  0.4015 -0.6052
  119MOL   C37145447   0.328   1.588   4.701 -0.8268 -0.0823  0.2630
  119MOL   C37245448   0.422   1.622   4.802  0.6283  0.3037  0.3424
  119MOL   C37345449   0.443   1.545   4.913 -0.1699 -0.0131  0.0154
  119MOL   H37445450   0.543   1.208   5.439  1.8102  0.3141  1.1488
  119MOL   H37545451   0.436   1.195   5.201 -0.2180 -0.1365  1.8162
  119MOL   H37645452   0.591   1.408   5.082 -0.8784  2.6742  1.5245
  119MOL   H37745453   0.432   1.440   5.178 -0.1599  0.2605 -0.6373
  119MOL   H37845454   0.284   1.266   4.796 -0.0842 -0.3776 -1.5890
  119MOL   H37945455   0.223   1.427   4.617 -0.5421 -0.9038  0.3153
  119MOL   H38045456   0.309   1.656   4.619  1.6666  1.3776  0.8217
  119MOL   H38145457   0.449   1.727   4.802 -3.5230  1.4685 -0.1886
  119MOL   H38245458   0.508   1.582   4.991  0.4640 -1.5577  0.2417
  120MOL     C145459   4.705   0.083   3.059 -0.1520  0.6781 -0.1432
  120MOL     C245460   4.667   0.041   3.198 -0.3005  0.2711 -0.4796
  120MOL     O345461   4.800   0.072   3.168 -0.4438 -0.6783  0.5432
  120MOL     C445462   4.633   8.072   3.239  0.2949  0.0461  0.3375
  120MOL     O545463   4.597   7.983   3.131  0.4346 -0.2322 -0.4630
  120MOL     C645464   4.694   7.899   3.075 -0.0868  0.1811  0.2685
  120MOL     C745465   4.831   7.906   3.109  0.0531 -0.3562  0.2369
  120MOL     C845466   4.915   7.798   3.072 -0.2522  0.2933 -0.0820
  120MOL     C945467   4.872   7.701   2.982  0.3191  0.0196  0.1784
  120MOL    C1045468   4.742   7.705   2.931  0.2871 -0.2574  0.6211
  120MOL    C1145469   4.647   7.798   2.986  0.2139  0.3909  0.3048
  120MOL    H1245470   4.685   0.177   3.008 -1.6650 -0.6602 -2.1124
  120MOL    H1345471   4.611   0.120   3.249  0.3738  0.8828 -0.6760
  120MOL    H1445472   4.548   8.086   3.306  2.5019  1.5935  2.9106
  120MOL    H1545473   4.705   8.031   3.310  0.8854  1.0759  0.3409
  120MOL    H1645474   4.868   7.983   3.175  1.4516 -0.2779 -0.6251
  120MOL    H1745475   5.010   7.794   3.123 -0.0754 -1.8606 -0.5453
  120MOL    H1845476   4.940   7.624   2.949  0.9156  0.7191 -0.2333
  120MOL    H1945477   4.700   7.637   2.858  0.0853 -0.5633  1.0198
  120MOL    H2045478   4.714   0.003   2.986 -1.6964  0.5232 -0.1623
  120MOL    C2145479   4.495   7.787   2.946 -0.2047  0.2541  0.9391
  120MOL    C2245480   4.445   7.822   2.801 -0.1357  0.3131 -0.1103
  120MOL    O2345481   4.467   7.685   2.852 -0.0798 -0.4268  0.6550
  120MOL    C2445482   4.540   7.870   2.695 -0.3068  0.2030  0.2340
  120MOL    O2545483   4.507   8.008   2.650 -0.0486  0.3236 -0.8570
  120MOL    C2645484   4.409   8.032   2.561  0.1006 -0.1596  0.0022
  120MOL    C2745485   4.344   7.931   2.479 -0.4232  0.0394 -0.3752
  120MOL    C2845486   4.268   7.973   2.369 -0.3076  0.8872 -0.8543
  120MOL    C2945487   4.223   8.107   2.352  0.0270 -0.0732  0.4845
  120MOL    C3045488   4.278   0.036   2.436 -0.3997 -0.4249 -0.2709
  120MOL    C3145489   4.365   8.168   2.538 -0.0171 -0.6647 -0.0721
  120MOL    H3245490   4.423   7.800   3.026 -1.1415  0.3789  0.0909
  120MOL    H3345491   4.339   7.838   2.784 -1.0583 -3.1529  1.9044
  120MOL    H3445492   4.554   7.796   2.616  1.6759  0.5622  0.2418
  120MOL    H3545493   4.642   7.864   2.731 -0.2297  1.4719  0.2640
  120MOL    H3645494   4.372   7.827   2.487  0.5472  0.3732  0.7860
  120MOL    H3745495   4.243   7.896   2.297 -0.2668  0.4630 -0.4197
  120MOL    H3845496   4.162   8.138   2.269 -0.8648  0.8113  1.4524
  120MOL    H3945497   4.249   0.139   2.423  0.1324 -0.2042  0.2656
  120MOL    C4045498   4.416   0.109   2.635  0.0576  0.4425 -0.1528
  120MOL    C4145499   4.534   0.198   2.608 -0.6882 -0.1992 -0.0719
  120MOL    O4245500   4.398   0.235   2.574  0.2519  0.0800  0.3954
  120MOL    C4345501   4.630   0.202   2.489  0.3071 -0.1232  0.1517
  120MOL    O4445502   4.766   0.245   2.534 -0.5833 -0.9932 -0.1760
  120MOL    C4545503   4.838   0.162   2.621  0.1883  0.1019 -0.2991
  120MOL    C4645504   4.801   0.025   2.628  0.4637 -0.1999  0.4595
  120MOL    C4745505   4.857   8.104   2.719 -0.1925  0.2059 -0.2161
  120MOL    C4845506   4.972   8.143   2.789 -0.3625 -0.4104 -0.2039
  120MOL    C4945507   5.021   0.102   2.769  0.0209 -0.1922  0.2926
  120MOL    C5045508   4.955   0.201   2.694  1.2290 -0.1242  0.3200
  120MOL    H5145509   4.405   0.086   2.740 -1.9171 -0.8768 -0.5998
  120MOL    H5245510   4.571   0.266   2.685  0.1780 -0.0091 -0.6488
  120MOL    H5345511   4.598   0.274   2.413  1.5817 -0.6348 -0.8842
  120MOL    H5445512   4.637   0.103   2.442 -2.3489  0.5175 -1.7432
  120MOL    H5545513   4.718   8.151   2.575  0.7509 -2.5663  1.8980
  120MOL    H5645514   4.821   8.002   2.722 -0.3643  0.2711  0.0524
  120MOL    H5745515   5.009   8.087   2.873 -2.3072  0.2379  1.1135
  120MOL    H5845516   5.100   0.136   2.835  0.7974  0.8634 -1.1530
  120MOL    C5945517   4.996   0.345   2.693 -0.3499 -0.0167 -0.0928
  120MOL    C6045518   4.971   0.440   2.802 -0.9806 -0.7030  0.8996
  120MOL    O6145519   5.102   0.372   2.785  0.1715 -0.8980 -0.2488
  120MOL    C6245520   4.886   0.393   2.923 -0.2093  0.1635  0.2762
  120MOL    O6345521   4.950   0.413   3.054 -0.1109 -0.0531 -0.8338
  120MOL    C6445522   4.900   0.498   3.143  0.0818  0.8446  0.0044
  120MOL    C6545523   4.830   0.620   3.105 -0.1466  0.6282  0.5889
  120MOL    C6645524   4.787   0.716   3.196  0.3094 -0.5910  0.7108
  120MOL    C6745525   4.796   0.677   3.330 -0.0642 -0.0091  0.7969
  120MOL    C6845526   4.850   0.555   3.370 -0.1512 -0.1285  0.7699
  120MOL    C6945527   4.910   0.468   3.279 -0.4936 -0.5490  0.2985
  120MOL    H7045528   5.032   0.368   2.593 -0.0268  1.7966  0.4134
  120MOL    H7145529   4.968   0.548   2.789 -1.8979 -1.0523 -2.1811
  120MOL    H7245530   4.868   0.286   2.919 -1.1907  0.2721  1.5237
  120MOL    H7345531   4.781   0.424   2.922 -0.3754 -0.3514 -3.3189
  120MOL    H7445532   4.820   0.642   2.999  2.6490  1.5525  0.4808
  120MOL    H7545533   4.742   0.811   3.172  2.4091 -0.0638 -1.3175
  120MOL    H7645534   4.759   0.746   3.405 -0.6001 -1.0302  1.4890
  120MOL    H7745535   4.873   0.542   3.475  2.3974  0.1859  0.2877
  120MOL    C7845536   4.975   0.338   3.320  0.4710 -0.8584 -0.2174
  120MOL    C7945537   5.122   0.322   3.328 -0.8401 -0.1883 -0.1049
  120MOL    O8045538   5.041   0.349   3.447 -0.1956  0.5055  0.3737
  120MOL    C8145539   5.213   0.428   3.263  0.0047 -0.2440  0.4294
  120MOL    O8245540   5.354   0.413   3.273 -0.9014 -0.2642 -0.1571
  120MOL    C8345541   5.405   0.286   3.249  0.3488 -0.6646  0.1176
  120MOL    C8445542   5.343   0.193   3.163  0.4582 -0.0336 -0.2664
  120MOL    C8545543   5.402   0.063   3.140 -0.0757 -0.4634  0.1217
  120MOL    C8645544   5.516   0.027   3.209  0.5677 -0.0806 -0.2572
  120MOL    C8745545   5.574   0.123   3.291 -0.8063 -0.1638 -0.2197
  120MOL    C8845546   5.522   0.249   3.318  0.5477 -0.2704  0.1054
  120MOL    H8945547   4.921   0.249   3.289 -0.8202 -0.6748  1.4718
  120MOL    H9045548   5.156   0.220   3.317  1.0584  0.4000  0.2547
  120MOL    H9145549   5.202   0.521   3.319  1.2370 -0.3271  0.8298
  120MOL    H9245550   5.189   0.442   3.158 -1.2704 -0.0142  0.7379
  120MOL    H9345551   5.246   0.201   3.116  0.4961  1.5371 -0.1079
  120MOL    H9445552   5.358   8.160   3.074 -0.5971  0.0122 -0.0592
  120MOL    H9545553   5.564   8.101   3.195  0.5594 -0.6332  3.0901
  120MOL    H9645554   5.664   0.103   3.346 -0.9467 -0.8929 -0.2550
  120MOL    C9745555   5.596   0.350   3.398 -0.0679  0.4189  0.8267
  120MOL    C9845556   5.561   0.374   3.539 -0.3041  0.2561  0.5619
  120MOL    O9945557   5.664   0.286   3.504  0.5578 -0.4616 -0.3781
  120MOL   C10045558   5.452   0.309   3.624 -0.2412  0.0165 -0.4154
  120MOL   O10145559   5.492   0.334   3.762 -0.2307  0.0503 -0.0718
  120MOL   C10245560   5.522   0.222   3.836  0.6272 -0.1057  0.5979
  120MOL   C10345561   5.419   0.137   3.879 -0.3700 -0.1111 -0.0737
  120MOL   C10445562   5.455   0.037   3.965 -0.7640  0.0160 -0.3649
  120MOL   C10545563   5.584   0.010   4.006 -0.1074 -0.2141  1.4929
  120MOL   C10645564   5.681   0.094   3.960 -0.0459  0.1511 -0.1087
  120MOL   C10745565   5.655   0.200   3.872 -0.0564  0.0809 -0.2361
  120MOL   H10845566   5.658   0.413   3.335  0.4442 -0.5162  0.3783
  120MOL   H10945567   5.595   0.472   3.572  0.4622  0.4891 -0.8860
  120MOL   H11045568   5.455   0.205   3.592  1.0204 -0.3040  0.6865
  120MOL   H11145569   5.358   0.358   3.600 -1.0996 -1.4738 -0.1194
  120MOL   H11245570   5.319   0.153   3.842 -0.5491 -3.1759 -0.9925
  120MOL   H11345571   5.386   8.133   4.003 -0.6968  0.3193  0.3516
  120MOL   H11445572   5.595   8.093   4.069 -0.3717 -0.1541  1.6206
  120MOL   H11545573   5.785   0.071   3.979  0.0006  0.1377 -0.3750
  120MOL   C11645574   5.775   0.288   3.829 -0.4441 -0.0982  0.1796
  120MOL   C11745575   5.802   0.407   3.909 -0.4466  0.2068 -0.0612
  120MOL   O11845576   5.880   0.289   3.919  0.1396 -0.4241  0.4008
  120MOL   C11945577   5.738   0.443   4.038  0.6599 -0.4054  0.2938
  120MOL   O12045578   5.811   0.550   4.100  0.2715 -0.5868  0.1211
  120MOL   C12145579   5.814   0.679   4.046 -0.3656  0.6808 -0.0618
  120MOL   C12245580   5.739   0.716   3.932 -0.3430 -0.1952 -0.3163
  120MOL   C12345581   5.754   0.846   3.885  0.1990  0.3843  0.0673
  120MOL   C12445582   5.839   0.935   3.949  0.0472  0.4096  0.3113
  120MOL   C12545583   5.917   0.898   4.063  0.4908  0.3754  0.7809
  120MOL   C12645584   5.902   0.772   4.113  0.0035  0.5087  0.5238
  120MOL   H12745585   5.792   0.299   3.723 -2.0585  1.7612  0.0807
  120MOL   H12845586   5.836   0.486   3.842 -0.5243  0.1104 -0.2141
  120MOL   H12945587   5.722   0.362   4.108  2.7259  1.7699  3.4110
  120MOL   H13045588   5.639   0.481   4.013  0.4438  3.0490  5.5684
  120MOL   H13145589   5.675   0.643   3.886  1.3489 -3.0382  1.6593
  120MOL   H13245590   5.698   0.862   3.794 -0.2049 -0.3182  0.1867
  120MOL   H13345591   5.850   1.037   3.915 -0.4343 -0.3459 -2.2077
  120MOL   H13445592   5.972   0.978   4.111 -1.2657  1.4672  1.0253
  120MOL   C13545593   5.984   0.718   4.232 -0.5879 -0.1447  0.3208
  120MOL   C13645594   6.100   0.616   4.206 -0.0263  0.2628  0.8892
  120MOL   O13745595   6.122   0.763   4.227  0.8978  0.4816  0.2231
  120MOL   C13845596   6.133   0.571   4.060  0.5875 -0.4634 -0.2615
  120MOL   O13945597   6.254   0.494   4.052  0.2862  0.0436 -0.2098
  120MOL   C14045598   6.373   0.558   4.019 -0.3730  0.2838 -0.0347
  120MOL   C14145599   6.398   0.694   4.027 -0.0241 -0.0397  0.8970
  120MOL   C14245600   6.524   0.762   4.002  0.3309  0.1120 -0.9807
  120MOL   C14345601   6.627   0.687   3.946  0.1906 -0.7619 -0.1518
  120MOL   C14445602   6.604   0.549   3.921 -0.2305  0.1154  0.7916
  120MOL   C14545603   6.480   0.490   3.954  0.8800 -0.2509 -0.2059
  120MOL   H14645604   5.940   0.718   4.331  0.4964  0.2893  0.8089
  120MOL   H14745605   6.128   0.553   4.289 -3.9513 -1.8694  0.7260
  120MOL   H14845606   6.128   0.653   3.988  0.2265 -2.0494 -2.0792
  120MOL   H14945607   6.059   0.498   4.027 -0.1676 -1.1273  2.7812
  120MOL   H15045608   6.312   0.747   4.066 -0.3400 -0.0321  0.2075
  120MOL   H15145609   6.536   0.866   4.029  0.9739 -0.1355 -0.3168
  120MOL   H15245610   6.724   0.730   3.931  0.9714 -2.2965  0.4079
  120MOL   H15345611   6.685   0.487   3.884 -1.2288 -1.0516  0.5283
  120MOL   C15445612   6.453   0.346   3.913  0.0732  0.3616  0.5730
  120MOL   C15545613   6.357   0.307   3.805  0.3697 -0.0882 -0.1643
  120MOL   O15645614   6.500   0.325   3.781 -0.1960  0.0550 -0.3083
  120MOL   C15745615   6.266   0.400   3.741 -0.4501  0.3780  0.1527
  120MOL   O15845616   6.210   0.331   3.632 -0.7895  0.7522  0.4263
  120MOL   C15945617   6.109   0.397   3.558  0.1529 -0.0330  0.9252
  120MOL   C16045618   6.062   0.525   3.577  0.4730  0.0049  1.0347
  120MOL   C16145619   5.962   0.586   3.496  0.6030  0.2748 -0.0885
  120MOL   C16245620   5.911   0.508   3.394  0.6217  0.5540  0.2831
  120MOL   C16345621   5.955   0.376   3.368  0.1592  0.3335  0.6906
  120MOL   C16445622   6.053   0.321   3.455  0.2132  0.1157 -0.1303
  120MOL   H16545623   6.481   0.272   3.987 -1.2066  1.0818  1.8003
  120MOL   H16645624   6.328   0.203   3.816  3.4566 -0.7460  2.9126
  120MOL   H16745625   6.309   0.490   3.698 -2.4928  0.8941 -0.8738
  120MOL   H16845626   6.178   0.424   3.802 -0.5586  0.9921 -0.2431
  120MOL   H16945627   6.104   0.595   3.647  0.3101  2.1219 -0.9128
  120MOL   H17045628   5.945   0.693   3.501  1.3352  0.4036 -0.2938
  120MOL   H17145629   5.837   0.550   3.328  0.8780  1.8449  0.8156
  120MOL   H17245630   5.911   0.311   3.293  2.6899 -1.8916  1.0651
  120MOL   C17345631   6.110   0.184   3.421  0.5064 -0.4782 -0.3106
  120MOL   C17445632   6.087   0.050   3.492  0.2024  0.2833  0.1660
  120MOL   O17545633   6.004   0.087   3.381  0.0772 -0.3703  0.2016
  120MOL   C17645634   6.011   0.049   3.625  0.4539  0.2896 -1.1195
  120MOL   O17745635   5.963   8.091   3.660 -0.2564 -0.4474  0.3258
  120MOL   C17845636   5.826   8.067   3.652  0.2377  0.0804  0.1550
  120MOL   C17945637   5.723   8.153   3.597 -0.5114 -0.1790 -0.6741
  120MOL   C18045638   5.591   8.109   3.595 -0.1559 -0.0908 -0.2196
  120MOL   C18145639   5.553   7.998   3.665 -0.1920  0.5842  0.0051
  120MOL   C18245640   5.649   7.908   3.706 -0.7179  0.4524  0.1783
  120MOL   C18345641   5.785   7.939   3.699  0.5612  0.1901  0.3185
  120MOL   H18445642   6.182   0.191   3.340  1.9536  0.5831  1.0480
  120MOL   H18545643   6.156   8.139   3.472  0.8055 -0.3314  4.2964
  120MOL   H18645644   5.940   0.130   3.643  1.4064  0.7959  0.5302
  120MOL   H18745645   6.084   0.071   3.704  0.9361 -0.8756 -1.2276
  120MOL   H18845646   5.758   0.067   3.538  0.6572  0.4210  0.8040
  120MOL   H18945647   5.518   8.169   3.542  1.8314  1.4745 -1.2323
  120MOL   H19045648   5.448   7.979   3.680 -0.2661  1.3645  0.5078
  120MOL   H19145649   5.622   7.810   3.742 -1.3680 -0.2033 -2.0169
  120MOL   C19245650   5.883   7.844   3.749 -0.3984  0.7662  0.1402
  120MOL   C19345651   5.980   7.863   3.868  0.4725  0.2692  0.2685
  120MOL   O19445652   5.850   7.805   3.885  0.5910  0.1338  0.3602
  120MOL   C19545653   6.004   7.997   3.939 -0.0779  0.7059  0.1524
  120MOL   O19645654   6.144   8.032   3.969  0.3377  0.5438  0.6511
  120MOL   C19745655   6.181   8.147   4.041  0.3378  0.0747  0.2569
  120MOL   C19845656   6.094   0.091   4.053  0.6015  0.5881  0.1172
  120MOL   C19945657   6.122   0.202   4.131 -0.2022  0.5836 -0.2156
  120MOL   C20045658   6.253   0.212   4.185  0.6955 -0.0577  0.3670
  120MOL   C20145659   6.342   0.102   4.173 -0.2711  0.0246 -0.7097
  120MOL   C20245660   6.306   8.156   4.103  0.5046  0.6510 -0.1744
  120MOL   H20345661   5.888   7.758   3.683  0.2275 -0.7160  2.0594
  120MOL   H20445662   6.062   7.791   3.868 -0.4011 -0.7418  0.8656
  120MOL   H20545663   5.942   7.988   4.028  0.2045 -1.8922  0.1297
  120MOL   H20645664   5.955   8.076   3.881  1.3491  1.2200 -0.3725
  120MOL   H20745665   5.998   0.092   4.005  0.4343  2.0192  0.4576
  120MOL   H20845666   6.045   0.278   4.140 -0.8326  0.1947 -1.9901
  120MOL   H20945667   6.295   0.307   4.213 -1.1541  1.2569 -1.2013
  120MOL   H21045668   6.441   0.121   4.213 -0.1847  0.7595 -1.2867
  120MOL   C21145669   6.408   8.047   4.103 -0.4876  0.8431  0.0444
  120MOL   C21245670   6.481   8.011   3.970  0.3822  0.3684 -0.5653
  120MOL   O21345671   6.539   8.093   4.070  0.0890 -0.4517 -0.5122
  120MOL   C21445672   6.464   8.079   3.840 -0.4445  0.0222 -0.0413
  120MOL   O21545673   6.581   8.093   3.763  0.1205  0.0007 -0.0236
  120MOL   C21645674   6.571   0.007   3.657  0.2776 -0.1280 -0.4423
  120MOL   C21745675   6.466   0.004   3.563 -0.0324  0.2607 -0.3893
  120MOL   C21845676   6.467   0.078   3.444 -0.1897 -0.4616 -0.5541
  120MOL   C21945677   6.581   0.158   3.420 -0.5448 -0.3652  0.2838
  120MOL   C22045678   6.679   0.173   3.518  0.0006 -0.2485  0.0379
  120MOL   C22145679   6.682   0.098   3.635  0.6937  0.4754 -0.3035
  120MOL   H22245680   6.399   7.979   4.188 -1.6427 -0.8329 -1.3872
  120MOL   H22345681   6.518   7.908   3.964  2.2656  0.8596  1.7521
  120MOL   H22445682   6.410   0.003   3.844 -1.1697 -0.2758 -2.1647
  120MOL   H22545683   6.400   8.018   3.776  1.9778  0.6144 -3.1329
  120MOL   H22645684   6.391   8.098   3.580  1.2950 -0.9575  0.2456
  120MOL   H22745685   6.392   0.064   3.368  0.6273  1.4627 -1.7391
  120MOL   H22845686   6.575   0.217   3.329 -3.4093  0.1783  0.7604
  120MOL   H22945687   6.761   0.240   3.499  0.2197 -0.2166  1.0347
  120MOL   C23045688   6.792   0.098   3.735 -0.0091 -0.1877 -1.0754
  120MOL   C23145689   6.893   8.153   3.755  0.2276 -0.4811  0.0257
  120MOL   O23245690   6.927   0.100   3.687  0.1424  0.6508  0.0437
  120MOL   C23345691   6.901   8.029   3.671  0.1902 -0.1736 -0.7364
  120MOL   O23445692   7.041   8.009   3.668  0.4756  0.6874 -0.2666
  120MOL   C23545693   7.085   7.910   3.584  1.2739 -0.3989  0.1797
  120MOL   C23645694   6.997   7.830   3.507 -0.1402  0.4120  0.2749
  120MOL   C23745695   7.048   7.736   3.409  0.2751  0.1111 -0.5502
  120MOL   C23845696   7.181   7.702   3.415 -0.1086  0.6373 -0.4517
  120MOL   C23945697   7.268   7.778   3.498  0.1538 -0.9862  0.1883
  120MOL   C24045698   7.224   7.882   3.583 -0.3968 -0.0882 -0.1320
  120MOL   H24145699   6.778   0.169   3.816 -2.7723 -0.4274 -1.3080
  120MOL   H24245700   6.950   8.137   3.846 -0.4097 -2.0241  0.1722
  120MOL   H24345701   6.852   8.052   3.576 -1.3671 -2.5908 -0.5551
  120MOL   H24445702   6.840   7.949   3.712 -0.4247  1.2847  1.2391
  120MOL   H24545703   6.891   7.845   3.519  0.3550  3.9981  0.5577
  120MOL   H24645704   6.981   7.682   3.344 -0.6128 -0.4547  0.8160
  120MOL   H24745705   7.223   7.617   3.365  1.2160 -0.1529  1.9296
  120MOL   H24845706   7.369   7.742   3.511  0.4173 -0.1019  0.6094
  120MOL   C24945707   7.312   7.946   3.685 -0.8404  0.2420  0.7662
  120MOL   C25045708   7.386   7.872   3.789 -0.4036 -0.1397  0.7905
  120MOL   O25145709   7.453   7.921   3.672 -0.5453  0.2262 -0.5157
  120MOL   C25245710   7.370   7.721   3.810  0.1969 -0.6462 -0.4338
  120MOL   O25345711   7.414   7.679   3.945 -0.2125 -0.3933  0.6802
  120MOL   C25445712   7.554   7.677   3.969  0.8664  0.2997 -0.1169
  120MOL   C25545713   7.657   7.728   3.886  0.0526  0.0289 -0.5501
  120MOL   C25645714   7.790   7.703   3.917  0.4442 -0.5673  0.2790
  120MOL   C25745715   7.826   7.633   4.028 -0.4041  1.4081 -0.5370
  120MOL   C25845716   7.730   7.595   4.117 -0.5064 -0.6061  1.3288
  120MOL   C25945717   7.591   7.610   4.095  0.6321 -0.0731  0.3879
  120MOL   H26045718   7.286   8.050   3.700  1.8445  0.8425  1.4946
  120MOL   H26145719   7.413   7.923   3.882  1.3214 -1.8470  1.2560
  120MOL   H26245720   7.429   7.672   3.732  0.9918  1.5058 -1.2450
  120MOL   H26345721   7.264   7.704   3.791 -0.2461 -0.5324  1.7932
  120MOL   H26445722   7.632   7.788   3.799 -1.5641  0.0379 -0.0956
  120MOL   H26545723   7.858   7.733   3.838 -0.4619  1.6328  0.3004
  120MOL   H26645724   7.932   7.620   4.040 -0.4488  1.1270 -0.4501
  120MOL   H26745725   7.753   7.535   4.205 -0.6021 -3.3735 -0.4734
  120MOL   C26845726   7.487   7.547   4.179 -0.5438 -0.0456  0.1475
  120MOL   C26945727   7.451   7.396   4.162 -0.4815  0.3023 -0.1880
  120MOL   O27045728   7.535   7.446   4.262 -0.3878  0.0729  0.3032
  120MOL   C27145729   7.522   7.311   4.056  0.1785 -0.2669  0.7430
  120MOL   O27245730   7.456   7.190   4.063 -0.0124  0.1394 -0.0350
  120MOL   C27345731   7.512   7.084   3.988  0.6323 -0.1183 -0.4690
  120MOL   C27445732   7.637   7.098   3.926 -0.0938  0.2985 -0.4218
  120MOL   C27545733   7.694   6.988   3.850  0.7222  0.3612  0.9799
  120MOL   C27645734   7.628   6.865   3.846 -0.7549  0.3020  0.0738
  120MOL   C27745735   7.495   6.851   3.902 -0.6668 -0.4806 -0.4967
  120MOL   C27845736   7.441   6.960   3.974 -0.1148 -0.2259 -0.7202
  120MOL   H27945737   7.420   7.616   4.230  0.4490  0.4068  0.8636
  120MOL   H28045738   7.365   7.354   4.213 -0.2914  0.9384  0.6745
  120MOL   H28145739   7.624   7.305   4.093  0.8147  0.4437 -0.8528
  120MOL   H28245740   7.520   7.360   3.959  1.8255  1.1442  1.3877
  120MOL   H28345741   7.702   7.184   3.926  1.1486 -0.6218  0.2236
  120MOL   H28445742   7.787   6.991   3.796  0.4666  0.5839  0.5511
  120MOL   H28545743   7.673   6.775   3.807  0.4332  0.6517  0.6351
  120MOL   H28645744   7.440   6.758   3.904 -0.7525 -0.4393 -0.9677
  120MOL   C28745745   7.318   6.946   4.049  0.9341 -0.1467  0.1382
  120MOL   C28845746   7.190   7.003   4.005  0.5268  0.4556 -0.1117
  120MOL   O28945747   7.226   6.864   3.979 -0.2397  0.3924  0.1629
  120MOL   C29045748   7.173   7.097   3.890 -0.3010 -0.4060 -0.1935
  120MOL   O29145749   7.040   7.087   3.841 -0.4046  0.4982  0.1566
  120MOL   C29245750   7.013   7.185   3.744  0.0020  0.0233 -0.0397
  120MOL   C29345751   7.109   7.252   3.665  0.4728 -0.3636  0.2560
  120MOL   C29445752   7.067   7.352   3.574  0.4950  0.9484 -0.1171
  120MOL   C29545753   6.928   7.378   3.564 -0.0560  0.3305  0.4445
  120MOL   C29645754   6.839   7.317   3.654  0.4286  0.3423  0.2754
  120MOL   C29745755   6.880   7.219   3.738  0.5993  0.4284  0.3264
  120MOL   H29845756   7.335   6.916   4.152  2.0934 -2.2732 -0.6328
  120MOL   H29945757   7.118   7.021   4.085 -0.9341  0.2671 -1.3757
  120MOL   H30045758   7.244   7.073   3.811 -0.1729  1.8047 -0.7890
  120MOL   H30145759   7.198   7.199   3.922  2.1072 -0.7921 -0.7557
  120MOL   H30245760   7.213   7.222   3.659  0.8311  0.6900  1.0177
  120MOL   H30345761   7.135   7.405   3.509  1.0170 -1.7922 -1.8773
  120MOL   H30445762   6.908   7.451   3.488  2.0072  0.8151  0.3394
  120MOL   H30545763   6.734   7.343   3.641  0.4988 -0.0716 -1.2633
  120MOL   C30645764   6.767   7.149   3.807 -0.2074 -0.3226  0.3013
  120MOL   C30745765   6.763   7.141   3.954  0.0865 -0.2991  0.7269
  120MOL   O30845766   6.679   7.227   3.881  0.7013 -0.0308 -0.1617
  120MOL   C30945767   6.846   7.215   4.058 -0.6603  0.6185  0.4493
  120MOL   O31045768   6.932   7.328   4.011  0.3864  0.3324 -0.5655
  120MOL   C31145769   6.993   7.405   4.108  0.3516 -0.3298  0.1809
  120MOL   C31245770   6.993   7.373   4.248  0.2879  0.2905 -0.7167
  120MOL   C31345771   7.065   7.451   4.334  0.4771  0.3586 -0.1925
  120MOL   C31445772   7.141   7.562   4.285  0.3453 -0.5033  0.4332
  120MOL   C31545773   7.131   7.595   4.145  0.1052  0.2055 -0.2366
  120MOL   C31645774   7.059   7.513   4.060  0.6085  0.1871 -0.2027
  120MOL   H31745775   6.727   7.068   3.748  0.8257 -1.5049  1.1990
  120MOL   H31845776   6.700   7.059   3.987 -1.3638  0.9760  1.2141
  120MOL   H31945777   6.904   7.137   4.107 -2.4650 -1.3314 -0.4313
  120MOL   H32045778   6.778   7.259   4.131 -4.1768  1.9267 -3.4229
  120MOL   H32145779   6.952   7.280   4.285 -0.8682  1.5553  1.2633
  120MOL   H32245780   7.066   7.434   4.440  5.2303  1.4015  0.0245
  120MOL   H32345781   7.192   7.631   4.350 -0.4296 -0.2471  0.7745
  120MOL   H32445782   7.194   7.671   4.101  1.0144 -0.5897 -0.3247
  120MOL   C32545783   7.064   7.548   3.911  0.0313 -0.2718 -0.0299
  120MOL   C32645784   6.954   7.603   3.817  0.0483 -0.1331 -0.2324
  120MOL   O32745785   7.046   7.691   3.889  0.1835  0.2851 -0.4560
  120MOL   C32845786   6.809   7.600   3.857 -0.1906 -0.3483  0.6355
  120MOL   O32945787   6.723   7.664   3.768 -0.1275 -0.0772 -0.7681
  120MOL   C33045788   6.588   7.670   3.795  0.0728  0.1698 -0.3864
  120MOL   C33145789   6.529   7.591   3.894  0.5133 -0.1628  0.2969
  120MOL   C33245790   6.389   7.581   3.907 -0.2707  0.2832 -0.1466
  120MOL   C33345791   6.314   7.655   3.820  0.2081 -0.0436 -0.0518
  120MOL   C33445792   6.367   7.737   3.718 -0.2751 -0.1518  1.2427
  120MOL   C33545793   6.509   7.740   3.704  0.3625 -0.0349  0.4164
  120MOL   H33645794   7.158   7.519   3.864 -0.0434  2.4006 -1.9201
  120MOL   H33745795   6.979   7.587   3.712  0.9497 -2.0395  0.2701
  120MOL   H33845796   6.800   7.631   3.961  0.5635  2.2124 -0.0318
  120MOL   H33945797   6.785   7.494   3.865  0.8369 -0.4210  3.0361
  120MOL   H34045798   6.594   7.545   3.967  0.5151  2.6484  2.1184
  120MOL   H34145799   6.337   7.517   3.978 -0.2558 -0.2713 -0.6357
  120MOL   H34245800   6.209   7.633   3.836  0.5297 -0.1055  2.1184
  120MOL   H34345801   6.297   7.788   3.653  1.1814  1.2198  0.6936
  120MOL   C34445802   6.574   7.808   3.587  0.7991  0.0628 -0.5126
  120MOL   C34545803   6.609   7.721   3.466 -0.5669 -0.6059  0.0274
  120MOL   O34645804   6.488   7.793   3.468  0.6230  0.1926  0.0730
  120MOL   C34745805   6.597   7.567   3.463 -0.1100 -0.6328  0.1232
  120MOL   O34845806   6.511   7.544   3.347  0.1031  0.2946  0.3535
  120MOL   C34945807   6.566   7.521   3.221  0.2537  0.2670 -0.1028
  120MOL   C35045808   6.702   7.537   3.191  0.4542  0.1699 -0.0809
  120MOL   C35145809   6.749   7.512   3.064  0.0090  0.4855 -0.5603
  120MOL   C35245810   6.659   7.472   2.968 -0.4827 -0.5470  0.1551
  120MOL   C35345811   6.522   7.457   2.992 -0.1098  0.1336 -0.3011
  120MOL   C35445812   6.473   7.486   3.121 -1.0494  0.0502 -0.2497
  120MOL   H35545813   6.609   7.909   3.610  3.0457 -0.7873 -0.1108
  120MOL   H35645814   6.679   7.768   3.397 -0.6929 -0.5285 -0.0476
  120MOL   H35745815   6.532   7.529   3.542  0.4355 -0.4087  0.6788
  120MOL   H35845816   6.695   7.519   3.464  0.0440 -0.3695 -0.9950
  120MOL   H35945817   6.768   7.564   3.272  0.6538 -0.0714 -0.1637
  120MOL   H36045818   6.854   7.514   3.036 -0.2119  1.7417 -1.3208
  120MOL   H36145819   6.692   7.451   2.867 -0.7545  2.0427 -0.4893
  120MOL   H36245820   6.460   7.431   2.908 -1.9547 -1.2407  1.4146
  120MOL   C36345821   6.325   7.490   3.141  0.2052  0.4629  0.6706
  120MOL   C36445822   6.254   7.621   3.155 -0.0047 -0.7216  0.2499
  120MOL   O36545823   6.269   7.559   3.029  0.1368  0.1640 -0.0279
  120MOL   C36645824   6.326   7.755   3.170  0.0001  0.5260 -0.1104
  120MOL   O36745825   6.261   7.875   3.119  0.3972  0.0019 -0.4189
  120MOL   C36845826   6.345   7.988   3.106 -0.3278 -1.0026 -0.0303
  120MOL   C36945827   6.300   8.105   3.044 -0.7970 -0.5430  0.4273
  120MOL   C37045828   6.374   0.056   3.033 -0.1952 -0.1696  1.0512
  120MOL   C37145829   6.502   0.066   3.092  0.1171  0.0322  0.6785
  120MOL   C37245830   6.540   8.128   3.174 -0.0296  0.0553  0.4679
  120MOL   C37345831   6.468   8.007   3.178 -0.1476  0.5844 -0.0730
  120MOL   H37445832   6.282   7.393   3.162  0.1137  0.2510 -0.5068
  120MOL   H37545833   6.153   7.601   3.191  0.3785 -1.7351  0.8035
  120MOL   H37645834   6.419   7.748   3.113  0.4417  0.2961  0.6324
  120MOL   H37745835   6.339   7.773   3.277  0.1158 -3.3978  0.6282
  120MOL   H37845836   6.197   8.102   3.013 -1.2313  0.6395  1.6676
  120MOL   H37945837   6.337   0.143   2.980 -1.3905  0.1128  2.3236
  120MOL   H38045838   6.562   0.156   3.082 -1.2562  1.2825  3.2347
  120MOL   H38145839   6.634   8.128   3.227  0.7263 -2.0533 -0.8334
  120MOL   H38245840   6.508   7.925   3.237  1.6499  1.8969  0.5596
  121MOL     C145841   1.389   7.173   4.228 -0.5123  0.3378 -0.6234
  121MOL     C245842   1.264   7.096   4.251  0.5086  0.4455 -0.7228
  121MOL     O345843   1.392   7.054   4.299  0.2348  0.7592  0.2199
  121MOL     C445844   1.196   6.990   4.158 -0.0300 -0.7927  0.7060
  121MOL     O545845   1.107   6.909   4.234  0.0720 -0.1265  0.5101
  121MOL     C645846   1.151   6.810   4.313 -0.2532 -0.4299  0.1281
  121MOL     C745847   1.282   6.756   4.309  0.2097  0.1398  0.4588
  121MOL     C845848   1.316   6.633   4.379  0.4495 -0.7137  0.1319
  121MOL     C945849   1.223   6.588   4.476 -1.2073 -0.1666  0.4346
  121MOL    C1045850   1.100   6.654   4.490  0.8247  0.5187  0.0596
  121MOL    C1145851   1.058   6.760   4.405  0.0511  0.4961  0.5414
  121MOL    H1245852   1.412   7.263   4.286  1.0008  0.3498 -1.2061
  121MOL    H1345853   1.200   7.152   4.320  0.9640 -1.7116  1.5133
  121MOL    H1445854   1.268   6.941   4.092 -0.8684 -0.4091 -0.5022
  121MOL    H1545855   1.132   7.041   4.087 -0.8159  0.4615  2.2908
  121MOL    H1645856   1.357   6.803   4.248  0.1058  2.9976  2.4456
  121MOL    H1745857   1.410   6.581   4.368  0.3915 -0.9000  0.4984
  121MOL    H1845858   1.245   6.504   4.540 -2.8566 -1.5697 -0.7719
  121MOL    H1945859   1.030   6.622   4.565  0.3433  2.1864  0.3581
  121MOL    H2045860   1.416   7.164   4.123  0.5990 -1.5341 -0.2023
  121MOL    C2145861   0.915   6.819   4.405  0.2194  0.4878  0.2205
  121MOL    C2245862   0.802   6.778   4.317  0.0435 -0.4727 -0.5895
  121MOL    O2345863   0.816   6.725   4.451  0.2426  0.4536  0.7682
  121MOL    C2445864   0.821   6.694   4.192 -0.4032 -0.0545  0.4268
  121MOL    O2545865   0.698   6.678   4.125  0.3577 -0.3136  0.8970
  121MOL    C2645866   0.696   6.594   4.014  0.9270 -0.0407  0.0657
  121MOL    C2745867   0.802   6.507   3.975  0.1286  0.5838  0.5623
  121MOL    C2845868   0.789   6.415   3.869 -0.1369 -0.0854  0.0270
  121MOL    C2945869   0.673   6.420   3.793 -0.1641  0.5312 -0.3911
  121MOL    C3045870   0.574   6.507   3.823  0.3679 -0.0488  0.4024
  121MOL    C3145871   0.584   6.600   3.927 -0.5905 -0.1357  0.3807
  121MOL    H3245872   0.905   6.925   4.427 -0.8856  0.6938 -1.2224
  121MOL    H3345873   0.726   6.856   4.313  1.5854  0.9695 -2.7208
  121MOL    H3445874   0.858   6.593   4.213 -2.2601 -0.7490  0.4453
  121MOL    H3545875   0.896   6.745   4.131  0.0536 -0.8154  0.3349
  121MOL    H3645876   0.899   6.502   4.024  0.0452  0.7294  0.7444
  121MOL    H3745877   0.876   6.357   3.841  1.5927  1.4755  1.9743
  121MOL    H3845878   0.671   6.359   3.704 -0.6750  2.8511 -2.0148
  121MOL    H3945879   0.493   6.511   3.752  0.6297  0.9501  0.1531
  121MOL    C4045880   0.489   6.707   3.953  0.1160  0.7626 -0.2757
  121MOL    C4145881   0.456   6.813   3.861  0.0061 -0.0453 -0.0536
  121MOL    O4245882   0.366   6.699   3.872  0.0397 -0.0858 -0.0898
  121MOL    C4345883   0.532   6.847   3.733  0.2305 -0.2932  0.0759
  121MOL    O4445884   0.669   6.832   3.763  0.5635  0.1151  0.1599
  121MOL    C4545885   0.762   6.874   3.677 -0.7593 -0.8667  0.4809
  121MOL    C4645886   0.730   6.917   3.550  0.2225 -0.5943  0.4776
  121MOL    C4745887   0.827   6.963   3.465  0.0828  0.4657  0.0382
  121MOL    C4845888   0.960   6.966   3.497 -0.1106 -0.4355 -0.2776
  121MOL    C4945889   0.998   6.916   3.624 -0.0326  0.2878 -0.0260
  121MOL    C5045890   0.901   6.869   3.712  0.6909 -0.5759  0.1336
  121MOL    H5145891   0.467   6.718   4.059  0.1384  0.3382 -0.2252
  121MOL    H5245892   0.420   6.909   3.898  0.4323  0.0367  0.1499
  121MOL    H5345893   0.509   6.948   3.699  0.7054 -0.5952 -1.1678
  121MOL    H5445894   0.507   6.783   3.649  1.6768  0.6577 -1.1047
  121MOL    H5545895   0.634   6.897   3.506  0.9517 -2.3582 -0.3768
  121MOL    H5645896   0.795   6.978   3.363 -5.1058 -2.1882  1.1027
  121MOL    H5745897   1.029   6.999   3.421  1.0855 -1.2006  0.4486
  121MOL    H5845898   1.104   6.904   3.641 -0.8147 -2.0300  3.7117
  121MOL    C5945899   0.935   6.819   3.848 -0.1950  0.3409 -0.2331
  121MOL    C6045900   1.032   6.713   3.882 -0.4680  0.2921  0.3131
  121MOL    O6145901   1.065   6.854   3.901  0.2954 -0.0376 -0.0244
  121MOL    C6245902   1.108   6.631   3.783  0.2951  0.3785  0.7519
  121MOL    O6345903   1.228   6.563   3.822  0.2538 -0.0007 -0.0036
  121MOL    C6445904   1.213   6.459   3.905 -0.3146  0.1655 -0.3575
  121MOL    C6545905   1.197   6.491   4.044 -0.1184  0.3629  0.0932
  121MOL    C6645906   1.193   6.385   4.133  0.1135 -0.0212 -0.1227
  121MOL    C6745907   1.208   6.253   4.094 -0.4732  0.5000  0.3615
  121MOL    C6845908   1.215   6.226   3.956 -0.0573 -0.3570  0.3797
  121MOL    C6945909   1.222   6.325   3.859 -0.3200  0.0709 -0.2061
  121MOL    H7045910   0.851   6.825   3.918  0.0001 -1.7534  0.1963
  121MOL    H7145911   1.017   6.659   3.976 -2.2809  0.8603  0.3676
  121MOL    H7245912   1.146   6.688   3.698  1.5023 -1.0073  0.3335
  121MOL    H7345913   1.042   6.558   3.737 -1.4309  0.0811  3.5547
  121MOL    H7445914   1.189   6.587   4.092 -1.1426  0.3664 -0.0699
  121MOL    H7545915   1.174   6.407   4.237  1.0370 -0.6164  0.1664
  121MOL    H7645916   1.203   6.171   4.165  0.7992  0.2464  0.1783
  121MOL    H7745917   1.212   6.123   3.921 -2.8779  0.1685 -1.0668
  121MOL    C7845918   1.246   6.284   3.713  0.3401  0.3578  0.3223
  121MOL    C7945919   1.381   6.306   3.652  0.2882 -0.5004 -0.0678
  121MOL    O8045920   1.346   6.182   3.707 -0.0981 -0.5417 -0.1300
  121MOL    C8145921   1.492   6.379   3.730  0.3828  0.1211  0.3296
  121MOL    O8245922   1.627   6.363   3.681 -0.4431  0.3779  0.2596
  121MOL    C8345923   1.670   6.234   3.666 -0.4444  0.8256  0.6834
  121MOL    C8445924   1.662   6.140   3.772  0.3153  0.1851  0.4377
  121MOL    C8545925   1.697   6.005   3.750  0.3667 -0.6569  0.3989
  121MOL    C8645926   1.743   5.965   3.627  0.0514 -0.1857  0.1630
  121MOL    C8745927   1.761   6.058   3.524 -0.3543  0.3594  0.2445
  121MOL    C8845928   1.714   6.194   3.540  0.1846  0.7443 -0.5734
  121MOL    H8945929   1.164   6.279   3.642  0.4077 -0.6039  0.3110
  121MOL    H9045930   1.388   6.307   3.543  4.5223 -0.4885  0.1228
  121MOL    H9145931   1.489   6.344   3.833 -2.3643 -1.3453 -0.1809
  121MOL    H9245932   1.457   6.482   3.739  1.3464  0.3324  1.6655
  121MOL    H9345933   1.608   6.176   3.859 -2.1794 -0.6030 -0.7237
  121MOL    H9445934   1.678   5.937   3.831  0.5945 -2.9107 -1.3767
  121MOL    H9545935   1.764   5.860   3.612  0.0550 -0.0693 -0.6930
  121MOL    H9645936   1.795   6.028   3.426  1.3754 -0.9728  1.2138
  121MOL    C9745937   1.703   6.289   3.427 -0.2465 -0.3332  0.0861
  121MOL    C9845938   1.796   6.401   3.394  0.6844  0.1099 -0.1151
  121MOL    O9945939   1.813   6.270   3.345 -0.1111  0.0752  0.0647
  121MOL   C10045940   1.883   6.454   3.501  0.8305 -0.2666 -0.1456
  121MOL   O10145941   1.999   6.512   3.453  0.3572  0.1798  0.3169
  121MOL   C10245942   1.993   6.639   3.397 -0.1820 -0.6397 -0.0097
  121MOL   C10345943   1.893   6.726   3.419 -1.1129 -0.9833 -0.0062
  121MOL   C10445944   1.898   6.851   3.355 -0.0897 -0.7004  0.3278
  121MOL   C10545945   1.996   6.887   3.263 -0.6152  0.3635  0.1900
  121MOL   C10645946   2.098   6.797   3.234  0.1646 -0.2495  0.1931
  121MOL   C10745947   2.097   6.675   3.303  0.6670 -0.4705  0.6925
  121MOL   H10845948   1.604   6.280   3.384 -1.1217  2.3497  1.4417
  121MOL   H10945949   1.763   6.465   3.312 -0.9857  0.1959  0.6045
  121MOL   H11045950   1.910   6.376   3.572 -0.6637 -1.0439 -0.4243
  121MOL   H11145951   1.819   6.522   3.558 -0.6037 -1.7120 -0.0117
  121MOL   H11245952   1.810   6.721   3.488 -0.0662  1.5424  1.5353
  121MOL   H11345953   1.840   6.940   3.375  0.8928 -0.5475  2.6568
  121MOL   H11445954   1.998   6.984   3.217 -0.6302  0.7946  1.0812
  121MOL   H11545955   2.175   6.819   3.161 -0.0296  1.0467  0.3522
  121MOL   C11645956   2.211   6.578   3.282  0.0789 -0.2341  0.3031
  121MOL   C11745957   2.205   6.473   3.169  0.3805 -0.1346  0.5474
  121MOL   O11845958   2.266   6.596   3.152  0.6225  0.3059  0.4570
  121MOL   C11945959   2.080   6.449   3.084  0.0074 -0.3465 -0.0520
  121MOL   O12045960   2.118   6.379   2.968  0.1657 -0.0320 -0.1760
  121MOL   C12145961   2.147   6.247   2.982 -0.0971  0.0931  0.1649
  121MOL   C12245962   2.284   6.209   2.997 -0.0458  0.0012 -0.0691
  121MOL   C12345963   2.323   6.070   3.005  0.2303 -0.5654  0.5734
  121MOL   C12445964   2.221   5.972   3.014  0.2794 -0.2989 -0.3633
  121MOL   C12545965   2.088   6.020   3.000  0.2095 -0.4404 -0.3250
  121MOL   C12645966   2.048   6.152   2.980 -0.6287 -0.0662 -0.0676
  121MOL   H12745967   2.282   6.579   3.364  0.7545  1.5040 -0.2852
  121MOL   H12845968   2.263   6.383   3.192 -0.6382 -1.1640 -0.8474
  121MOL   H12945969   2.024   6.541   3.067 -1.5462 -1.3806 -0.6150
  121MOL   H13045970   2.018   6.392   3.152  0.3453 -2.6509 -1.6473
  121MOL   H13145971   2.366   6.279   2.990  0.6232 -0.8329 -0.7206
  121MOL   H13245972   2.428   6.043   3.003 -0.1651 -2.2294  0.9517
  121MOL   H13345973   2.251   5.869   3.025 -0.6069 -0.5556 -0.2977
  121MOL   H13445974   2.006   5.949   3.002  0.9759 -1.3123  0.3815
  121MOL   C13545975   1.898   6.192   2.960  0.0213  0.4908 -0.6368
  121MOL   C13645976   1.833   6.230   2.826 -0.6865 -0.0131 -0.1398
  121MOL   O13745977   1.822   6.099   2.876  0.4090 -0.1297 -0.6513
  121MOL   C13845978   1.913   6.244   2.699 -0.3214  0.2101 -0.0912
  121MOL   O13945979   1.945   6.386   2.665  0.3181 -0.0974  0.0818
  121MOL   C14045980   2.048   6.414   2.575 -0.0723 -0.4234 -0.4500
  121MOL   C14145981   2.121   6.310   2.509  0.5588 -0.9347  0.5668
  121MOL   C14245982   2.213   6.344   2.409  0.1601 -0.4710  0.4986
  121MOL   C14345983   2.236   6.481   2.368  0.1718  0.5005 -0.2749
  121MOL   C14445984   2.169   6.581   2.443 -0.8007 -0.4927 -0.8610
  121MOL   C14545985   2.074   6.547   2.541 -0.0556  0.0917  0.4534
  121MOL   H14645986   1.851   6.218   3.055  2.0966 -1.0178  0.8760
  121MOL   H14745987   1.750   6.299   2.840 -1.5354 -0.8859 -0.7947
  121MOL   H14845988   1.867   6.189   2.617 -1.2392  2.1567 -0.9202
  121MOL   H14945989   2.005   6.189   2.717  0.0124  0.1884 -1.8115
  121MOL   H15045990   2.110   6.207   2.540 -1.9215 -0.4832  1.2295
  121MOL   H15145991   2.265   6.264   2.359  0.2363 -0.7081  0.9614
  121MOL   H15245992   2.298   6.507   2.284 -0.3277  1.7482 -0.2719
  121MOL   H15345993   2.184   6.678   2.398  0.1169  0.7583  2.0716
  121MOL   C15445994   1.990   6.650   2.609 -0.4152 -0.4986  0.3707
  121MOL   C15545995   2.040   6.743   2.725 -0.7329 -0.1893 -0.1493
  121MOL   O15645996   2.035   6.785   2.584  0.0108  0.3248  0.3180
  121MOL   C15745997   2.179   6.736   2.776  0.0649  0.0300 -0.1335
  121MOL   O15845998   2.200   6.854   2.858 -0.0047 -0.3968  0.4771
  121MOL   C15945999   2.278   6.957   2.809  0.2173 -0.4660  0.4244
  121MOL   C16046000   2.255   7.018   2.682  0.6197 -0.3902 -0.4826
  121MOL   C16146001   2.338   7.119   2.632 -0.0665  0.1747  0.3504
  121MOL   C16246002   2.430   7.184   2.713 -0.2835  0.4114 -0.9028
  121MOL   C16346003   2.451   7.127   2.842  0.8383  0.6666 -0.4923
  121MOL   C16446004   2.373   7.019   2.892  0.3341 -0.2374 -0.5767
  121MOL   H16546005   1.884   6.630   2.594 -0.3489  0.4308 -1.4017
  121MOL   H16646006   1.962   6.780   2.791  1.2299  1.8151  1.1278
  121MOL   H16746007   2.253   6.718   2.698  0.3988  2.4815 -0.4166
  121MOL   H16846008   2.188   6.651   2.843 -0.1008  0.5829  0.6032
  121MOL   H16946009   2.179   6.984   2.614  0.6814 -0.3483 -0.5712
  121MOL   H17046010   2.327   7.146   2.528 -0.5248 -1.8925 -0.1589
  121MOL   H17146011   2.490   7.258   2.661 -0.5952  0.4254 -1.2483
  121MOL   H17246012   2.532   7.170   2.899 -1.3413  3.3443  0.7301
  121MOL   C17346013   2.401   6.970   3.036  0.4468  0.2911  0.9547
  121MOL   C17446014   2.473   6.834   3.062 -0.2839  0.6614 -0.1108
  121MOL   O17546015   2.546   6.960   3.045  0.1419 -0.1361 -0.1622
  121MOL   C17646016   2.488   6.734   2.951 -0.2783  0.1092  0.3107
  121MOL   O17746017   2.576   6.629   2.976  0.0880  0.4300 -0.3079
  121MOL   C17846018   2.563   6.515   2.897  0.1761 -0.0940 -0.5651
  121MOL   C17946019   2.487   6.510   2.777  0.4009 -0.5343  0.6095
  121MOL   C18046020   2.475   6.390   2.701 -0.3934 -0.4502  0.1732
  121MOL   C18146021   2.521   6.270   2.755  0.3181 -1.1128 -0.0024
  121MOL   C18246022   2.604   6.273   2.866 -0.0717 -0.1695  0.5912
  121MOL   C18346023   2.628   6.392   2.936 -0.2223  0.3114 -0.4583
  121MOL   H18446024   2.337   7.010   3.115 -0.8462  0.5985 -0.2165
  121MOL   H18546025   2.445   6.791   3.158 -2.8374 -1.2756 -1.6593
  121MOL   H18646026   2.516   6.773   2.853  0.2455 -0.4061  0.2519
  121MOL   H18746027   2.392   6.683   2.949 -0.0220 -0.3614 -0.4824
  121MOL   H18846028   2.427   6.594   2.748  1.4159  0.8962  2.5545
  121MOL   H18946029   2.419   6.390   2.609  1.1116 -2.9115 -0.8117
  121MOL   H19046030   2.502   6.173   2.711 -1.1802 -0.9043  0.1724
  121MOL   H19146031   2.639   6.177   2.902 -0.5653 -0.9330 -0.9562
  121MOL   C19246032   2.739   6.391   3.039  0.4302  0.7449  0.7404
  121MOL   C19346033   2.709   6.348   3.177 -0.1780 -0.2330  0.0290
  121MOL   O19446034   2.773   6.259   3.088  0.0830 -0.3877  0.1066
  121MOL   C19546035   2.574   6.301   3.228 -0.1142  1.0491  0.0415
  121MOL   O19646036   2.585   6.241   3.358  0.2815 -0.2939  0.5399
  121MOL   C19746037   2.607   6.317   3.470  0.0298 -0.2392 -0.5129
  121MOL   C19846038   2.573   6.453   3.478 -0.1554  0.0453 -0.6935
  121MOL   C19946039   2.618   6.535   3.585 -0.5898  0.3035  0.1738
  121MOL   C20046040   2.687   6.472   3.687  0.1519  0.8975 -0.1043
  121MOL   C20146041   2.720   6.331   3.689 -0.0092  0.0940  0.0635
  121MOL   C20246042   2.685   6.257   3.572  0.2643 -0.6172  0.3493
  121MOL   H20346043   2.817   6.466   3.021 -1.3002  2.3426 -0.2908
  121MOL   H20446044   2.773   6.402   3.248 -2.2518  1.8325  0.4034
  121MOL   H20546045   2.534   6.219   3.168 -1.2123  1.3902  0.3047
  121MOL   H20646046   2.495   6.376   3.230 -2.0159 -0.9536  2.6783
  121MOL   H20746047   2.502   6.486   3.403 -0.0361 -2.9364 -2.2208
  121MOL   H20846048   2.599   6.641   3.593 -1.8094 -0.0183  1.8934
  121MOL   H20946049   2.716   6.544   3.762  0.7590  0.0718  0.4745
  121MOL   H21046050   2.783   6.288   3.765 -3.5112 -0.5744  2.7066
  121MOL   C21146051   2.724   6.111   3.550  0.4512 -0.9089 -0.0821
  121MOL   C21246052   2.841   6.068   3.465 -0.0088 -0.3466  0.0002
  121MOL   O21346053   2.860   6.085   3.601  0.3099  0.1219 -0.3435
  121MOL   C21446054   2.925   6.156   3.377 -0.4100 -0.5082  0.2770
  121MOL   O21546055   3.064   6.125   3.365  0.2740 -0.0626  0.1066
  121MOL   C21646056   3.099   6.018   3.277  1.0365 -0.1022  0.7372
  121MOL   C21746057   3.005   5.945   3.202  0.2328 -0.3126  0.6110
  121MOL   C21846058   3.039   5.833   3.125 -0.2702 -0.4776 -0.2128
  121MOL   C21946059   3.166   5.771   3.154 -0.2171  0.0899  0.6628
  121MOL   C22046060   3.263   5.845   3.221  0.6340 -0.4774 -0.3981
  121MOL   C22146061   3.228   5.964   3.288 -0.1633  0.1986  0.4646
  121MOL   H22246062   2.648   6.033   3.552  1.3910 -1.8652 -1.0241
  121MOL   H22346063   2.850   5.961   3.446 -1.1423 -0.6358  1.0877
  121MOL   H22446064   2.913   6.257   3.418 -1.0348 -1.7937  3.4624
  121MOL   H22546065   2.883   6.164   3.277 -0.5505  2.2028  0.5182
  121MOL   H22646066   2.905   5.985   3.197 -0.0615 -0.7435  2.4898
  121MOL   H22746067   2.965   5.784   3.064  0.4808 -0.0142 -1.5212
  121MOL   H22846068   3.202   5.675   3.119 -0.8546 -0.3515  1.2019
  121MOL   H22946069   3.359   5.797   3.232  1.4068  1.0181 -0.5050
  121MOL   C23046070   3.336   6.038   3.360 -0.2399  0.1095  0.0999
  121MOL   C23146071   3.343   6.073   3.505 -0.0047  0.1965 -0.0809
  121MOL   O23246072   3.412   5.955   3.446 -0.0941  0.5545 -0.7269
  121MOL   C23346073   3.247   6.029   3.612 -0.1371 -0.1054  0.3601
  121MOL   O23446074   3.288   6.089   3.737  0.1566  0.1799  0.4074
  121MOL   C23546075   3.402   6.042   3.800  0.3636 -0.6874 -0.2605
  121MOL   C23646076   3.414   5.904   3.827  0.5639  0.0405 -0.6519
  121MOL   C23746077   3.531   5.859   3.884  0.0576 -0.4735  0.8394
  121MOL   C23846078   3.634   5.943   3.910 -0.4651 -1.0306 -0.8188
  121MOL   C23946079   3.622   6.080   3.890  0.8920  0.6886 -0.8440
  121MOL   C24046080   3.501   6.128   3.840 -0.5676 -0.6199 -0.4032
  121MOL   H24146081   3.394   6.100   3.293  0.6629  0.3422  1.0843
  121MOL   H24246082   3.410   6.158   3.518 -1.2674  1.2365 -0.2355
  121MOL   H24346083   3.230   5.921   3.604 -1.6626  0.2132 -1.1183
  121MOL   H24446084   3.148   6.070   3.593  0.8137  2.5016  0.9179
  121MOL   H24546085   3.341   5.830   3.796  1.2068 -1.3635  1.1233
  121MOL   H24646086   3.536   5.754   3.908  1.3773 -1.2117 -2.4370
  121MOL   H24746087   3.727   5.902   3.947  1.3827  3.3616 -0.3451
  121MOL   H24846088   3.704   6.141   3.925  1.7283 -1.0723  0.3461
  121MOL   C24946089   3.488   6.274   3.830  0.0906 -0.1562 -0.0933
  121MOL   C25046090   3.437   6.360   3.944  0.1698  0.6619 -0.4267
  121MOL   O25146091   3.575   6.339   3.915 -0.0709  0.2697  0.3224
  121MOL   C25246092   3.393   6.296   4.068  0.1756  0.4915 -0.4045
  121MOL   O25346093   3.268   6.239   4.035 -0.3440 -0.4906 -0.0832
  121MOL   C25446094   3.150   6.311   4.060  0.6682  0.6710  0.1768
  121MOL   C25546095   3.144   6.438   4.127 -0.3731  0.3687 -0.1443
  121MOL   C25646096   3.013   6.499   4.143  0.5080  0.0981  0.9600
  121MOL   C25746097   2.901   6.433   4.093 -0.2202 -0.8293  0.0825
  121MOL   C25846098   2.907   6.310   4.035 -0.0217  0.2024 -0.0931
  121MOL   C25946099   3.027   6.242   4.022 -0.5004  0.1596 -0.0844
  121MOL   H26046100   3.507   6.311   3.729  1.9022  0.7762  0.5780
  121MOL   H26146101   3.394   6.456   3.916  1.0922  0.7821 -1.4912
  121MOL   H26246102   3.394   6.375   4.144 -1.5077 -1.4021  1.6497
  121MOL   H26346103   3.458   6.220   4.111 -2.4660 -1.0688  0.9440
  121MOL   H26446104   3.225   6.486   4.180 -1.1284 -0.7509  2.0961
  121MOL   H26546105   3.004   6.592   4.198  0.8919  0.8205 -0.1720
  121MOL   H26646106   2.809   6.489   4.104  1.1828  1.7307 -0.6620
  121MOL   H26746107   2.814   6.263   4.006  0.3991 -0.8765  0.2776
  121MOL   C26846108   3.024   6.110   3.953 -0.1822  0.2936  0.3050
  121MOL   C26946109   3.065   5.984   4.022  0.2564  0.2272 -0.3136
  121MOL   O27046110   2.928   6.024   4.011 -0.3948  0.4513 -0.7609
  121MOL   C27146111   3.123   5.982   4.161  0.6066 -0.3018  0.4918
  121MOL   O27246112   3.080   5.879   4.247 -0.1652  0.4135  0.6935
  121MOL   C27346113   3.102   5.751   4.197  0.6378 -0.1601 -0.1661
  121MOL   C27446114   3.207   5.722   4.108  1.1766 -0.1636  0.7316
  121MOL   C27546115   3.207   5.596   4.054 -0.6063  0.0768 -0.3916
  121MOL   C27646116   3.119   5.489   4.096 -0.4283 -0.2325  0.1574
  121MOL   C27746117   3.023   5.525   4.192 -0.4305  0.0989 -0.1345
  121MOL   C27846118   3.011   5.656   4.243  0.3537 -0.4563  0.5655
  121MOL   H27946119   3.039   6.117   3.846 -3.1775  3.4669  0.0123
  121MOL   H28046120   3.084   5.900   3.956 -0.0033  0.4795 -0.7079
  121MOL   H28146121   3.101   6.078   4.207  0.0826 -0.4239  0.4893
  121MOL   H28246122   3.231   6.000   4.155  0.3223  1.5722  0.8532
  121MOL   H28346123   3.278   5.800   4.087  0.7523  0.2384  0.7892
  121MOL   H28446124   3.290   5.571   3.990 -1.1301  0.5133 -1.2396
  121MOL   H28546125   3.127   5.390   4.054 -0.5091 -0.1208 -0.1231
  121MOL   H28646126   2.966   5.445   4.237  0.7107 -1.0910 -0.7548
  121MOL   C28746127   2.911   5.695   4.348 -0.1473 -0.6597  0.1986
  121MOL   C28846128   2.776   5.740   4.325 -0.2182  1.0752 -0.0401
  121MOL   O28946129   2.802   5.602   4.368  0.0249 -0.4075  0.2135
  121MOL   C29046130   2.731   5.760   4.178 -0.0492  0.4295  0.3399
  121MOL   O29146131   2.594   5.790   4.173 -0.3368  0.4208 -0.9298
  121MOL   C29246132   2.550   5.918   4.178  0.5337  0.1952 -0.3816
  121MOL   C29346133   2.635   6.027   4.209 -0.1693  0.2915 -0.3687
  121MOL   C29446134   2.588   6.161   4.208  0.1143 -0.6956  0.1547
  121MOL   C29546135   2.450   6.183   4.186 -0.7988 -0.2508  0.4433
  121MOL   C29646136   2.363   6.076   4.165  0.1873  0.2438  0.0076
  121MOL   C29746137   2.413   5.942   4.161  0.5726  0.5597 -0.4069
  121MOL   H29846138   2.959   5.716   4.443  0.5892 -1.2981 -0.0218
  121MOL   H29946139   2.728   5.804   4.399 -1.8094 -0.8731  0.6721
  121MOL   H30046140   2.741   5.660   4.137 -1.7726 -0.5058  2.1260
  121MOL   H30146141   2.802   5.822   4.123 -0.9055 -1.9888 -3.6676
  121MOL   H30246142   2.736   6.006   4.240  0.1315  2.2771  0.0636
  121MOL   H30346143   2.652   6.246   4.225 -1.2822  0.9674 -2.6330
  121MOL   H30446144   2.423   6.287   4.180  0.5483  0.0307 -1.1442
  121MOL   H30546145   2.257   6.094   4.156  0.4133  1.8573  0.4127
  121MOL   C30646146   2.321   5.829   4.115 -0.5735  0.1541 -0.7576
  121MOL   C30746147   2.264   5.718   4.201 -0.2497  0.1898 -0.5090
  121MOL   O30846148   2.191   5.836   4.176  0.6208 -0.6994 -0.0018
  121MOL   C30946149   2.328   5.697   4.336  0.5546 -0.4915 -0.2392
  121MOL   O31046150   2.227   5.653   4.428 -0.0833 -0.5001 -0.4482
  121MOL   C31146151   2.273   5.604   4.548 -0.0419  0.8500  0.0626
  121MOL   C31246152   2.405   5.564   4.573 -0.4569 -0.1358  0.1229
  121MOL   C31346153   2.432   5.507   4.701  0.2954 -0.2183 -0.9342
  121MOL   C31446154   2.333   5.486   4.798 -0.6202 -0.4999 -0.1309
  121MOL   C31546155   2.202   5.528   4.768 -0.1944 -1.1637 -0.0533
  121MOL   C31646156   2.173   5.587   4.642 -1.0432 -0.2859 -0.3198
  121MOL   H31746157   2.327   5.820   4.007  0.0259 -2.5223 -0.5224
  121MOL   H31846158   2.221   5.634   4.147  1.5023 -0.6472 -0.6600
  121MOL   H31946159   2.377   5.786   4.376 -0.8697 -0.4077  1.4461
  121MOL   H32046160   2.403   5.624   4.307  2.0719  0.7222  0.5806
  121MOL   H32146161   2.482   5.575   4.499 -0.4619  1.4243  0.3350
  121MOL   H32246162   2.532   5.467   4.711  0.8266  1.0342 -1.1714
  121MOL   H32346163   2.352   5.450   4.898  0.0793  1.1461  0.3510
  121MOL   H32446164   2.131   5.525   4.850  1.9966 -0.2709  1.9271
  121MOL   C32546165   2.039   5.631   4.604  0.5549 -0.1011  0.3196
  121MOL   C32646166   1.941   5.551   4.528  0.0082 -0.1487 -0.6456
  121MOL   O32746167   1.947   5.543   4.674  0.3622 -0.4064 -0.3483
  121MOL   C32846168   1.980   5.421   4.445  0.1822 -0.1448  0.0491
  121MOL   O32946169   1.872   5.357   4.377  0.2930 -0.2466  0.2032
  121MOL   C33046170   1.856   5.387   4.243 -0.5476 -0.3156  0.5682
  121MOL   C33146171   1.926   5.500   4.192  0.4174  0.4905 -0.4552
  121MOL   C33246172   1.923   5.533   4.057 -0.0982 -1.1927 -0.5207
  121MOL   C33346173   1.840   5.452   3.978 -0.2676 -0.2182  0.2261
  121MOL   C33446174   1.783   5.336   4.028  1.0898 -0.3636  0.5104
  121MOL   C33546175   1.781   5.306   4.163 -0.3687  0.6308 -0.4829
  121MOL   H33646176   2.031   5.739   4.606 -0.8104 -0.1976  0.5540
  121MOL   H33746177   1.849   5.603   4.500 -0.2111  0.7866  1.6807
  121MOL   H33846178   2.014   5.344   4.514  0.8112 -0.2663 -0.3919
  121MOL   H33946179   2.067   5.445   4.384 -0.7176  2.3869 -0.2862
  121MOL   H34046180   1.967   5.579   4.254  0.9803 -0.3135  0.2063
  121MOL   H34146181   1.974   5.617   4.012  1.0217 -0.8853  1.2619
  121MOL   H34246182   1.828   5.480   3.874  1.7798 -3.1533 -0.8617
  121MOL   H34346183   1.726   5.269   3.964  1.3758  0.6124 -0.7959
  121MOL   C34446184   1.705   5.188   4.220  0.0688 -0.2872 -0.3661
  121MOL   C34546185   1.590   5.199   4.316 -0.1402  0.1287  0.6167
  121MOL   O34646186   1.566   5.188   4.176  0.3842 -0.4858  0.8901
  121MOL   C34746187   1.556   5.327   4.385  0.3109 -0.2204  0.1141
  121MOL   O34846188   1.440   5.314   4.463 -0.5152 -0.4383  0.4162
  121MOL   C34946189   1.320   5.313   4.407  0.2176  0.1204 -0.1077
  121MOL   C35046190   1.291   5.384   4.291  0.1157  0.3732  0.2885
  121MOL   C35146191   1.158   5.406   4.253 -0.2370 -0.1387  0.2550
  121MOL   C35246192   1.054   5.348   4.331  0.8741  0.1290  0.2825
  121MOL   C35346193   1.081   5.272   4.446 -0.1136  0.1897 -0.0103
  121MOL   C35446194   1.215   5.257   4.481 -0.3471  0.1636  0.1567
  121MOL   H35546195   1.750   5.091   4.200  3.6857  1.0989  0.7099
  121MOL   H35646196   1.575   5.110   4.377  0.5261  1.5273  2.9117
  121MOL   H35746197   1.559   5.415   4.320 -2.7558  0.2307  0.5255
  121MOL   H35846198   1.634   5.351   4.457  1.1929  2.6810 -1.7195
  121MOL   H35946199   1.366   5.421   4.223 -0.9117  0.6511 -0.7067
  121MOL   H36046200   1.143   5.457   4.158  0.2913 -0.3637  0.0477
  121MOL   H36146201   0.952   5.361   4.298  0.1425  0.4105  2.6052
  121MOL   H36246202   1.008   5.242   4.521  2.0823  0.2378  2.2143
  121MOL   C36346203   1.262   5.196   4.616 -0.0640  0.0774  1.0384
  121MOL   C36446204   1.269   5.293   4.737  0.8564 -0.7119  0.5868
  121MOL   O36546205   1.154   5.199   4.718 -0.0677 -0.5958 -0.2709
  121MOL   C36646206   1.240   5.438   4.720 -1.3697 -0.0436  0.3571
  121MOL   O36746207   1.185   5.483   4.848 -0.1324 -0.4114  0.3357
  121MOL   C36846208   1.050   5.494   4.860  0.5300  0.0497  0.5030
  121MOL   C36946209   0.999   5.563   4.967 -0.6793  0.9768 -0.3150
  121MOL   C37046210   0.860   5.588   4.979 -0.2411 -0.3579 -0.2956
  121MOL   C37146211   0.773   5.531   4.883  0.1242 -0.1288  0.6937
  121MOL   C37246212   0.827   5.450   4.783  0.6887  0.1721 -0.6609
  121MOL   C37346213   0.964   5.429   4.771 -0.5241  0.3377  0.1649
  121MOL   H37446214   1.324   5.107   4.620  1.1759  0.9669  2.0700
  121MOL   H37546215   1.342   5.262   4.812  1.7204 -1.2981 -0.4869
  121MOL   H37646216   1.179   5.461   4.633 -0.0370  2.8094  0.1051
  121MOL   H37746217   1.339   5.482   4.710 -0.8287 -1.2356  0.3793
  121MOL   H37846218   1.069   5.598   5.041 -1.4964  2.6427 -0.2938
  121MOL   H37946219   0.821   5.650   5.059  1.6964  0.5761 -0.0414
  121MOL   H38046220   0.665   5.537   4.889  0.0409 -1.6443  0.9226
  121MOL   H38146221   0.752   5.410   4.716  0.6154 -1.0722  0.1404
  121MOL   H38246222   0.995   5.360   4.694  1.8976  0.5111  0.9281
  122MOL     C146223   6.137   5.368   0.838  0.4116 -0.5482  0.4799
  122MOL     C246224   6.164   5.512   0.810  0.0574 -0.2427  0.0205
  122MOL     O346225   6.098   5.475   0.928 -0.1534  0.0614 -0.4830
  122MOL     C446226   6.088   5.601   0.710  0.4123 -0.2845 -0.1691
  122MOL     O546227   5.992   5.523   0.646  0.7316  0.2455  0.2778
  122MOL     C646228   5.888   5.594   0.578  0.0316  0.6767  0.4508
  122MOL     C746229   5.896   5.732   0.539 -0.0502  0.4411 -0.2863
  122MOL     C846230   5.786   5.788   0.473 -0.0920  0.2299 -0.3685
  122MOL     C946231   5.666   5.717   0.461 -0.5862 -0.0745 -0.2916
  122MOL    C1046232   5.649   5.584   0.503 -0.0922  1.0479  0.4610
  122MOL    C1146233   5.762   5.520   0.558 -0.2875 -0.4831  0.6741
  122MOL    H1246234   6.215   5.308   0.885  0.9815  0.1366  0.4069
  122MOL    H1346235   6.270   5.532   0.821 -0.0108  0.9984 -1.4971
  122MOL    H1446236   6.166   5.633   0.641  1.0553 -2.3253 -0.4483
  122MOL    H1546237   6.045   5.690   0.755  0.9907 -0.5909  1.0319
  122MOL    H1646238   5.982   5.796   0.552 -2.1596  3.0002  1.8183
  122MOL    H1746239   5.784   5.889   0.436 -1.4768 -0.3854 -2.0311
  122MOL    H1846240   5.579   5.766   0.419 -1.0525  0.2583  1.0254
  122MOL    H1946241   5.553   5.535   0.507  0.8163 -0.7652  0.5231
  122MOL    H2046242   6.057   5.319   0.783  0.0399  0.5194  0.0581
  122MOL    C2146243   5.762   5.373   0.614  0.1464  0.6430  0.7934
  122MOL    C2246244   5.729   5.329   0.762  0.2272 -0.0304 -0.1235
  122MOL    O2346245   5.633   5.343   0.657  0.4634  0.3011 -0.3158
  122MOL    C2446246   5.739   5.437   0.866  0.7128  0.4752 -0.4897
  122MOL    O2546247   5.657   5.408   0.977  0.4575  0.3482 -0.4018
  122MOL    C2646248   5.679   5.296   1.054  0.2363 -0.2221 -0.3166
  122MOL    C2746249   5.794   5.216   1.048  1.2123 -0.9590  0.1882
  122MOL    C2846250   5.807   5.100   1.123  0.1521  0.6329 -0.2225
  122MOL    C2946251   5.699   5.057   1.205  0.5252 -0.4403  0.0026
  122MOL    C3046252   5.582   5.133   1.208 -0.1143 -0.0012  0.1335
  122MOL    C3146253   5.569   5.246   1.133  0.6666  0.0850  0.3026
  122MOL    H3246254   5.805   5.305   0.540 -2.6263 -0.1864 -0.1178
  122MOL    H3346255   5.757   5.227   0.790 -2.3787 -1.2602 -1.7301
  122MOL    H3446256   5.723   5.538   0.830 -2.5447 -0.1699 -1.0158
  122MOL    H3546257   5.845   5.438   0.894  0.6123  0.7483 -0.1159
  122MOL    H3646258   5.872   5.247   0.980  0.1713 -1.7057 -1.3858
  122MOL    H3746259   5.894   5.038   1.135  0.2654  0.8344  0.0113
  122MOL    H3846260   5.707   4.981   1.281 -0.8866  0.6006  1.2170
  122MOL    H3946261   5.506   5.103   1.279 -1.1620  0.2694 -0.8656
  122MOL    C4046262   5.438   5.322   1.125  1.2066 -0.3429  0.5093
  122MOL    C4146263   5.326   5.270   1.035  0.1565 -0.2054 -0.0390
  122MOL    O4246264   5.328   5.247   1.174  0.2488  0.8984  0.0906
  122MOL    C4346265   5.334   5.153   0.953 -0.6103 -0.4394  0.5557
  122MOL    O4446266   5.206   5.095   0.935 -0.5582 -0.0884 -0.3505
  122MOL    C4546267   5.178   5.029   0.813 -0.6863 -0.4000 -0.3036
  122MOL    C4646268   5.260   5.038   0.702 -0.6300  0.0521  0.5403
  122MOL    C4746269   5.229   4.957   0.590 -0.5354  0.6487  0.2840
  122MOL    C4846270   5.123   4.868   0.597  0.8701 -0.3057  0.5356
  122MOL    C4946271   5.038   4.856   0.710 -0.5347 -0.0264 -0.2390
  122MOL    C5046272   5.069   4.942   0.816  0.3481 -0.7273  0.1949
  122MOL    H5146273   5.448   5.426   1.154  0.7532  0.0473 -0.6764
  122MOL    H5246274   5.232   5.321   1.016  0.3516  0.0581 -0.3072
  122MOL    H5346275   5.398   5.076   0.996 -1.1510 -1.2295 -0.0337
  122MOL    H5446276   5.378   5.208   0.870  1.0712 -0.6926  1.2420
  122MOL    H5546277   5.348   5.100   0.696 -0.1910 -0.7650 -1.9744
  122MOL    H5646278   5.287   4.962   0.498  0.4152  0.3254  0.8624
  122MOL    H5746279   5.117   4.792   0.520  0.5205 -0.1305  0.3902
  122MOL    H5846280   4.963   4.779   0.720 -0.3955 -0.0197  0.9320
  122MOL    C5946281   4.995   4.930   0.943  0.4541 -0.4165 -0.0563
  122MOL    C6046282   4.913   5.047   0.996 -0.7935 -0.7654 -0.1607
  122MOL    O6146283   4.855   4.932   0.938 -0.2206 -0.2316  0.2766
  122MOL    C6246284   4.893   5.170   0.931  0.3596  0.1080  0.3600
  122MOL    O6346285   4.781   5.238   0.978 -0.3246 -0.5880 -0.0950
  122MOL    C6446286   4.795   5.328   1.085 -0.3835 -0.2055  0.2018
  122MOL    C6546287   4.913   5.337   1.167 -0.2009 -0.3581 -0.5094
  122MOL    C6646288   4.917   5.432   1.272  0.1296  0.3188 -0.3756
  122MOL    C6746289   4.808   5.519   1.297  0.4209  0.1821 -0.1354
  122MOL    C6846290   4.688   5.507   1.220 -0.4848 -0.5025  0.1198
  122MOL    C6946291   4.692   5.419   1.108  0.6071  0.0256 -0.2134
  122MOL    H7046292   5.031   4.853   1.012 -1.5047 -0.6252  0.7494
  122MOL    H7146293   4.885   5.051   1.101  2.8590  2.6067  0.7783
  122MOL    H7246294   4.868   5.143   0.829  2.7540  1.3124 -0.5919
  122MOL    H7346295   4.986   5.228   0.938  0.9902 -1.0267  1.8324
  122MOL    H7446296   5.002   5.277   1.151 -0.5198 -0.5736 -1.5257
  122MOL    H7546297   4.998   5.437   1.344 -0.3662  0.1947  0.1984
  122MOL    H7646298   4.803   5.585   1.382 -1.7629  1.1285 -0.9474
  122MOL    H7746299   4.614   5.584   1.234  0.5053  0.4579  0.1146
  122MOL    C7846300   4.576   5.414   1.007  0.0659 -0.5326 -0.2178
  122MOL    C7946301   4.422   5.403   1.032  0.7766  0.3992 -0.1210
  122MOL    O8046302   4.488   5.532   1.025 -0.5094  0.4965 -0.5291
  122MOL    C8146303   4.345   5.387   1.164 -0.2163 -0.3314  0.4120
  122MOL    O8246304   4.221   5.458   1.162 -0.4107  0.1752 -0.2903
  122MOL    C8346305   4.219   5.591   1.179  0.2400 -0.5320  0.9834
  122MOL    C8446306   4.309   5.652   1.259 -0.4679 -0.6491 -0.0996
  122MOL    C8546307   4.314   5.798   1.280  0.1124  0.1145  0.1255
  122MOL    C8646308   4.220   5.869   1.212  0.6399 -0.0563 -0.1258
  122MOL    C8746309   4.121   5.807   1.137  0.2023 -0.8383  0.2722
  122MOL    C8846310   4.113   5.665   1.122  0.2094 -0.2066 -0.3632
  122MOL    H8946311   4.612   5.378   0.910  0.0974  0.1141 -0.4482
  122MOL    H9046312   4.355   5.382   0.948 -0.5722  0.5458  0.8964
  122MOL    H9146313   4.410   5.402   1.249  0.2516  1.8807 -0.3223
  122MOL    H9246314   4.328   5.279   1.171  0.1609 -0.4845 -0.9004
  122MOL    H9346315   4.384   5.590   1.305  0.7797  0.3193 -0.7672
  122MOL    H9446316   4.392   5.843   1.340  0.7011  1.3967 -1.5722
  122MOL    H9546317   4.218   5.977   1.212 -1.5254 -0.0765  0.0864
  122MOL    H9646318   4.059   5.871   1.077  0.2515 -1.4586 -0.4405
  122MOL    C9746319   4.003   5.605   1.041  0.1016  0.2087  0.0919
  122MOL    C9846320   3.903   5.507   1.093 -0.0910 -0.0183  0.9199
  122MOL    O9946321   3.872   5.643   1.083 -0.6489 -0.3652  0.3024
  122MOL   C10046322   3.891   5.461   1.234  0.9503 -0.1268 -0.2789
  122MOL   O10146323   3.759   5.473   1.283  0.5197  0.1574  0.1449
  122MOL   C10246324   3.654   5.380   1.247 -0.1375 -0.5229 -0.2176
  122MOL   C10346325   3.677   5.277   1.155  0.7074 -0.0331 -0.3379
  122MOL   C10446326   3.567   5.202   1.107 -0.8006  0.1749 -0.0503
  122MOL   C10546327   3.441   5.227   1.158  0.1535  0.7031 -0.1688
  122MOL   C10646328   3.425   5.311   1.266  0.1831 -0.4943  0.0745
  122MOL   C10746329   3.528   5.395   1.310 -1.0360 -0.1127 -0.0508
  122MOL   H10846330   4.036   5.609   0.937  0.7272 -2.3851  0.1560
  122MOL   H10946331   3.850   5.447   1.019  1.3463  0.7348 -0.7561
  122MOL   H11046332   3.952   5.522   1.301 -0.3515  1.8141 -0.8022
  122MOL   H11146333   3.930   5.360   1.239  1.1440 -0.0160  0.3968
  122MOL   H11246334   3.776   5.244   1.127  0.8671 -0.5269  0.7548
  122MOL   H11346335   3.586   5.130   1.028  1.6098  1.3160 -0.5672
  122MOL   H11446336   3.358   5.170   1.118  0.5233 -1.5792  2.1566
  122MOL   H11546337   3.328   5.338   1.305 -0.0502 -1.2745  0.0411
  122MOL   C11646338   3.514   5.499   1.416 -0.1849 -0.0357 -0.2814
  122MOL   C11746339   3.475   5.637   1.378 -0.1731 -0.5023 -0.1281
  122MOL   O11846340   3.379   5.548   1.426 -0.2759 -0.8443  0.0275
  122MOL   C11946341   3.458   5.681   1.235 -0.4339  0.1163  0.1337
  122MOL   O12046342   3.395   5.804   1.234  0.0052 -0.3632 -0.2407
  122MOL   C12146343   3.470   5.920   1.230 -0.1369 -0.4589 -0.0954
  122MOL   C12246344   3.614   5.922   1.263  0.0621  0.5646 -0.2893
  122MOL   C12346345   3.689   6.038   1.246  0.4585  0.0323 -0.1102
  122MOL   C12446346   3.623   6.160   1.208  0.0544 -0.4460  0.2539
  122MOL   C12546347   3.485   6.162   1.185 -0.1040 -0.4469 -0.4314
  122MOL   C12646348   3.408   6.044   1.202 -0.1119  0.2343  0.0280
  122MOL   H12746349   3.574   5.482   1.505  0.1292  0.3272 -0.4239
  122MOL   H12846350   3.498   5.708   1.456 -1.8569  1.5023 -1.3949
  122MOL   H12946351   3.391   5.611   1.186  2.0450 -0.8397 -1.9783
  122MOL   H13046352   3.551   5.680   1.179  0.5663 -2.9921  1.6721
  122MOL   H13146353   3.658   5.832   1.303 -1.5283 -0.7177 -1.3657
  122MOL   H13246354   3.795   6.031   1.268  0.2824 -0.3612  0.6039
  122MOL   H13346355   3.666   6.259   1.196 -2.9462  0.9821  0.9139
  122MOL   H13446356   3.442   6.256   1.153 -0.0871 -0.2320  0.1714
  122MOL   C13546357   3.259   6.050   1.178  0.0376  0.2445  0.8593
  122MOL   C13646358   3.170   6.103   1.284  0.6984  0.1195 -0.0439
  122MOL   O13746359   3.204   6.188   1.174 -0.0407  0.1282 -0.2869
  122MOL   C13846360   3.223   6.144   1.421 -0.2189 -0.4148  0.2107
  122MOL   O13946361   3.117   6.166   1.517  0.2104 -0.4362 -0.4696
  122MOL   C14046362   3.006   6.247   1.493 -0.2007  0.3380 -0.0026
  122MOL   C14146363   3.009   6.355   1.400 -0.4339  0.2927 -0.3734
  122MOL   C14246364   2.894   6.435   1.379  0.1854 -0.1624  0.2210
  122MOL   C14346365   2.778   6.401   1.455 -0.3099 -0.9586 -0.6696
  122MOL   C14446366   2.773   6.289   1.537 -0.5734 -0.3181  0.8849
  122MOL   C14546367   2.887   6.215   1.566  0.1205  0.4308 -0.2070
  122MOL   H14646368   3.227   5.997   1.088 -1.7560  1.3835  0.8054
  122MOL   H14746369   3.067   6.069   1.283 -0.3769  3.2040 -0.1913
  122MOL   H14846370   3.286   6.233   1.422 -0.2717 -0.3647 -0.7367
  122MOL   H14946371   3.287   6.066   1.462 -0.2300 -0.4268  0.2052
  122MOL   H15046372   3.095   6.366   1.336 -0.4880 -0.9189 -0.6522
  122MOL   H15146373   2.885   6.508   1.300 -2.4316 -0.8796 -0.2101
  122MOL   H15246374   2.687   6.460   1.447 -0.6745 -1.0705  2.2134
  122MOL   H15346375   2.679   6.264   1.585  0.2428  1.6643  3.6578
  122MOL   C15446376   2.895   6.098   1.663 -0.2497 -0.1380 -0.0585
  122MOL   C15546377   2.971   6.114   1.793 -0.1828  0.5090  0.5229
  122MOL   O15646378   2.829   6.121   1.794  0.1268 -0.4705  0.5662
  122MOL   C15746379   3.056   6.232   1.826  0.1930 -0.2778  0.1524
  122MOL   O15846380   3.074   6.247   1.970 -0.7319 -0.1677  0.2342
  122MOL   C15946381   3.141   6.361   2.016 -0.2714 -0.1669 -0.7999
  122MOL   C16046382   3.180   6.471   1.936  0.1903 -0.0034  0.5069
  122MOL   C16146383   3.248   6.582   1.988  0.7394  0.0774 -0.0638
  122MOL   C16246384   3.269   6.594   2.123 -0.4097  0.0674 -0.2076
  122MOL   C16346385   3.225   6.489   2.210  0.3436 -0.2393 -0.4831
  122MOL   C16446386   3.176   6.370   2.151  0.1654 -0.2983 -0.4473
  122MOL   H16546387   2.914   6.001   1.619  0.2958 -0.5002  0.9615
  122MOL   H16646388   3.013   6.016   1.812 -1.3259 -0.5759 -2.3256
  122MOL   H16746389   3.006   6.318   1.781 -0.9566 -1.2131 -0.3977
  122MOL   H16846390   3.156   6.216   1.786  0.8477  0.6718  1.3747
  122MOL   H16946391   3.163   6.470   1.829  1.7261  1.3318  0.2337
  122MOL   H17046392   3.279   6.658   1.918 -0.0100  1.2221  0.8361
  122MOL   H17146393   3.313   6.682   2.168 -0.0532  0.3700 -1.1372
  122MOL   H17246394   3.257   6.491   2.313 -0.8218 -3.7783  0.0023
  122MOL   C17346395   3.149   6.250   2.235 -0.1343 -0.1487 -0.1940
  122MOL   C17446396   3.262   6.147   2.240  0.1023 -0.1365  0.0903
  122MOL   O17546397   3.235   6.241   2.346 -0.0408 -0.1631 -0.1787
  122MOL   C17646398   3.389   6.160   2.156  0.2627 -0.1234 -0.0191
  122MOL   O17746399   3.499   6.089   2.214 -0.0735  0.1342 -0.3216
  122MOL   C17846400   3.593   6.159   2.293  0.0606  0.2408 -0.3797
  122MOL   C17946401   3.565   6.278   2.361 -0.0666 -0.1666  0.0838
  122MOL   C18046402   3.660   6.350   2.441  1.2585 -0.1209  0.0314
  122MOL   C18146403   3.792   6.296   2.451  0.3976 -0.1266 -0.4753
  122MOL   C18246404   3.823   6.176   2.385  0.1289  0.0022  0.0965
  122MOL   C18346405   3.723   6.102   2.314 -0.3776  0.0076  0.0943
  122MOL   H18446406   3.048   6.212   2.240  1.0199 -3.3316  0.3124
  122MOL   H18546407   3.242   6.046   2.276  0.8381 -0.3754 -0.1686
  122MOL   H18646408   3.418   6.264   2.139  1.4872 -0.3846  0.3816
  122MOL   H18746409   3.362   6.103   2.067 -1.1673 -1.8502  1.4860
  122MOL   H18846410   3.468   6.324   2.358 -0.3863 -0.8808 -3.4934
  122MOL   H18946411   3.633   6.439   2.496 -0.3042 -0.0696 -0.7966
  122MOL   H19046412   3.864   6.349   2.512  0.2667 -0.6222  0.1138
  122MOL   H19146413   3.915   6.123   2.408 -0.7453 -2.0801 -1.0883
  122MOL   C19246414   3.753   5.971   2.262 -0.2838  0.6626 -0.3632
  122MOL   C19346415   3.827   5.950   2.131 -0.1076 -0.5479  0.3247
  122MOL   O19446416   3.897   5.952   2.255  0.6528  0.0716 -0.0313
  122MOL   C19546417   3.862   6.049   2.023  0.5938 -0.4956  0.2114
  122MOL   O19646418   3.761   6.047   1.924 -0.2113  0.5062  0.6224
  122MOL   C19746419   3.683   6.163   1.903  0.1180 -0.3040 -0.9477
  122MOL   C19846420   3.686   6.272   1.998 -0.1577  0.1741  0.5073
  122MOL   C19946421   3.601   6.384   1.968 -0.0733  0.3104  0.2803
  122MOL   C20046422   3.514   6.388   1.856 -0.5149 -0.1974  0.1701
  122MOL   C20146423   3.536   6.294   1.756 -0.7118 -0.3740 -0.6892
  122MOL   C20246424   3.610   6.177   1.783  0.9741  0.1032 -0.6578
  122MOL   H20346425   3.696   5.897   2.317 -1.5382  0.9311 -1.3013
  122MOL   H20446426   3.831   5.853   2.081 -1.6358 -1.0282  1.0984
  122MOL   H20546427   3.951   6.017   1.968  1.9175  0.0766  1.9517
  122MOL   H20646428   3.892   6.147   2.061  0.6448 -1.5116  2.8837
  122MOL   H20746429   3.740   6.274   2.091 -2.2042 -0.2221  1.7516
  122MOL   H20846430   3.604   6.471   2.031 -0.3299  0.7299 -0.2795
  122MOL   H20946431   3.461   6.480   1.839  1.0444  0.6462 -0.1972
  122MOL   H21046432   3.485   6.311   1.662 -2.2592  2.9083  0.6527
  122MOL   C21146433   3.617   6.072   1.681  0.5532 -0.4315  0.2976
  122MOL   C21246434   3.554   5.938   1.680 -0.1508 -0.1886  0.1864
  122MOL   O21346435   3.489   6.047   1.618  0.2349  0.0440  0.0438
  122MOL   C21446436   3.471   5.888   1.799 -0.5098  0.0803 -0.5369
  122MOL   O21546437   3.384   5.788   1.754 -0.0019  0.4233 -0.2126
  122MOL   C21646438   3.258   5.783   1.815  0.1213 -0.0986  0.5268
  122MOL   C21746439   3.238   5.790   1.954  0.4251 -0.5718 -0.0901
  122MOL   C21846440   3.115   5.780   2.022 -0.2377  0.0002  0.1257
  122MOL   C21946441   3.006   5.751   1.946  0.6212  0.0229 -0.1677
  122MOL   C22046442   3.016   5.740   1.802  0.2581 -0.3267 -0.5138
  122MOL   C22146443   3.140   5.767   1.739 -0.1910 -0.3106 -0.7167
  122MOL   H22246444   3.704   6.085   1.617  0.0596 -0.1637 -0.3282
  122MOL   H22346445   3.570   5.858   1.608 -0.3101 -0.7211  0.7386
  122MOL   H22446446   3.416   5.967   1.849 -1.1521  0.0182 -1.1319
  122MOL   H22546447   3.534   5.837   1.872  1.2433  0.0977 -2.0029
  122MOL   H22646448   3.320   5.798   2.024 -1.7270  0.1810  2.4039
  122MOL   H22746449   3.110   5.775   2.130  0.4031 -0.8063  0.1239
  122MOL   H22846450   2.910   5.732   1.992  0.5782 -0.4161 -0.4323
  122MOL   H22946451   2.933   5.712   1.739 -0.4975 -1.4543  0.9605
  122MOL   C23046452   3.158   5.759   1.589  0.7941 -0.5114 -0.0149
  122MOL   C23146453   3.106   5.639   1.493  1.1125 -0.1282  0.0050
  122MOL   O23246454   3.028   5.752   1.528  0.2218  0.0480  0.8402
  122MOL   C23346455   3.042   5.505   1.524  0.1487  0.2247  0.0761
  122MOL   O23446456   3.069   5.449   1.655  0.2925 -0.1094 -0.2265
  122MOL   C23546457   3.005   5.336   1.698 -0.1568  0.0844  0.3439
  122MOL   C23646458   2.910   5.270   1.620 -0.7078  0.5304  0.5313
  122MOL   C23746459   2.833   5.159   1.663  1.3091  0.1351  0.3657
  122MOL   C23846460   2.861   5.118   1.793  0.3764  0.5262 -0.4355
  122MOL   C23946461   2.969   5.168   1.866 -0.2419 -0.6944 -0.5915
  122MOL   C24046462   3.039   5.279   1.822 -0.0986 -0.2231  0.0612
  122MOL   H24146463   3.225   5.833   1.546  1.3018 -1.4166 -0.8043
  122MOL   H24246464   3.145   5.645   1.392  2.2734  1.7021  0.5234
  122MOL   H24346465   3.069   5.433   1.447  1.6535  1.7250 -0.8258
  122MOL   H24446466   2.936   5.524   1.512  0.2461  2.2133  2.1122
  122MOL   H24546467   2.885   5.309   1.523 -2.8643  0.0140  0.8510
  122MOL   H24646468   2.753   5.114   1.607  1.4857 -1.7616  1.5930
  122MOL   H24746469   2.810   5.032   1.835 -0.0376  1.3516  0.7936
  122MOL   H24846470   2.986   5.131   1.966  0.3228 -3.7432 -1.7581
  122MOL   C24946471   3.153   5.354   1.897 -0.4945 -0.7655 -0.0004
  122MOL   C25046472   3.109   5.431   2.024 -0.0659 -0.1527 -1.1303
  122MOL   O25146473   3.181   5.298   2.028 -0.3455  0.0058  0.5255
  122MOL   C25246474   2.955   5.446   2.049  0.4155  0.3325  0.1076
  122MOL   O25346475   2.925   5.532   2.156 -0.3919 -0.1429 -0.4177
  122MOL   C25446476   2.955   5.502   2.288  0.9002 -0.3753 -0.3468
  122MOL   C25546477   3.004   5.377   2.329 -0.1071  0.4184  0.0413
  122MOL   C25646478   3.016   5.354   2.469  0.4921  0.0821  0.4331
  122MOL   C25746479   2.994   5.461   2.560  0.2970  0.4733  0.0785
  122MOL   C25846480   2.948   5.586   2.511  0.5616 -0.3564 -0.6322
  122MOL   C25946481   2.919   5.607   2.379 -0.9471 -0.4587 -0.4843
  122MOL   H26046482   3.240   5.396   1.847  0.4213  0.1864  2.3602
  122MOL   H26146483   3.177   5.504   2.067  1.6076 -2.0885 -0.3827
  122MOL   H26246484   2.926   5.341   2.060  2.0202 -0.3605 -1.8873
  122MOL   H26346485   2.903   5.482   1.960  0.3897 -0.9366 -0.4026
  122MOL   H26446486   3.038   5.297   2.265 -1.7477 -0.7278  0.5731
  122MOL   H26546487   3.040   5.257   2.512  0.6781 -1.3351 -2.7412
  122MOL   H26646488   2.998   5.435   2.664 -1.1796 -3.1790 -0.6961
  122MOL   H26746489   2.922   5.667   2.578 -1.2094  0.2832 -2.0423
  122MOL   C26846490   2.866   5.740   2.340 -0.0411  0.3828  0.1706
  122MOL   C26946491   2.727   5.774   2.371  0.1715 -0.0701  0.9031
  122MOL   O27046492   2.834   5.830   2.442 -0.5624  0.4728  0.2569
  122MOL   C27146493   2.624   5.682   2.432  0.1316  0.3985  0.3321
  122MOL   O27246494   2.517   5.755   2.467 -0.5759 -0.5458  0.5168
  122MOL   C27346495   2.422   5.676   2.533  0.1765  0.1721 -0.1920
  122MOL   C27446496   2.430   5.536   2.553  0.1990  0.4924  0.5816
  122MOL   C27546497   2.330   5.472   2.627  0.1693 -0.1689  0.5103
  122MOL   C27646498   2.211   5.532   2.669 -0.3813 -0.1794  0.4550
  122MOL   C27746499   2.205   5.667   2.640 -0.0466  0.1765  0.0919
  122MOL   C27846500   2.303   5.742   2.571  0.3176 -0.5920  0.5575
  122MOL   H27946501   2.908   5.778   2.247  0.1303  1.2095  0.5772
  122MOL   H28046502   2.679   5.840   2.299 -0.6907 -0.0375  1.4931
  122MOL   H28146503   2.674   5.639   2.519 -2.2292  0.5090  1.8097
  122MOL   H28246504   2.605   5.600   2.363  0.0052  0.5305  0.2099
  122MOL   H28346505   2.517   5.474   2.534 -0.2863 -0.0311  0.0078
  122MOL   H28446506   2.347   5.367   2.644  0.2937 -0.2843 -0.3072
  122MOL   H28546507   2.134   5.471   2.713 -2.1961 -1.2796 -3.9808
  122MOL   H28646508   2.115   5.723   2.659  0.0419  0.7043 -0.9651
  122MOL   C28746509   2.288   5.893   2.550 -0.6505  0.3266  0.4198
  122MOL   C28846510   2.282   5.947   2.408  0.0580 -0.5890 -0.2749
  122MOL   O28946511   2.160   5.927   2.486  0.5644 -0.5077  0.8687
  122MOL   C29046512   2.302   5.865   2.286  0.2681 -0.1215 -0.1975
  122MOL   O29146513   2.241   5.924   2.171  0.3004  0.1110 -0.7822
  122MOL   C29246514   2.116   5.877   2.141  0.4991  0.2634 -0.5078
  122MOL   C29346515   2.092   5.735   2.127 -0.5922 -0.1689 -0.0310
  122MOL   C29446516   1.963   5.675   2.102  0.0168 -0.0833 -0.2004
  122MOL   C29546517   1.861   5.767   2.084 -0.5496 -0.2547  0.2859
  122MOL   C29646518   1.883   5.905   2.081  0.8442  0.0482  0.2708
  122MOL   C29746519   2.009   5.964   2.109  0.0758 -0.0604 -0.9358
  122MOL   H29846520   2.318   5.958   2.632 -0.8822  1.4017 -0.3368
  122MOL   H29946521   2.307   6.050   2.383 -1.0877 -0.4049 -0.7044
  122MOL   H30046522   2.267   5.766   2.316  0.4252 -0.0434  0.2585
  122MOL   H30146523   2.410   5.859   2.275  0.3956 -1.9745  1.6944
  122MOL   H30246524   2.178   5.669   2.131  0.7427  1.6136  1.9859
  122MOL   H30346525   1.930   5.573   2.100 -1.9332  0.4918  1.2046
  122MOL   H30446526   1.763   5.727   2.064 -1.7806  3.0694 -0.7400
  122MOL   H30546527   1.793   5.964   2.076  2.0976  1.9121 -0.5333
  122MOL   C30646528   2.024   6.112   2.125  0.9695 -0.6175 -0.1359
  122MOL   C30746529   2.050   6.189   1.999  0.3824 -0.0778  0.3408
  122MOL   O30846530   1.916   6.187   2.056 -0.2054 -0.5879  0.3933
  122MOL   C30946531   2.050   6.144   1.854  1.0266  0.1767 -0.6631
  122MOL   O31046532   1.989   6.225   1.755  0.2476 -0.3827 -0.2227
  122MOL   C31146533   1.976   6.176   1.633  0.3237  0.1864  0.1440
  122MOL   C31246534   2.021   6.046   1.596 -0.6311  0.7369  0.6025
  122MOL   C31346535   1.992   5.998   1.468 -0.8175 -0.2108 -0.2010
  122MOL   C31446536   1.919   6.072   1.376  0.1307  0.3476  0.0644
  122MOL   C31546537   1.869   6.200   1.411  0.2487  0.2987 -0.5756
  122MOL   C31646538   1.908   6.255   1.539 -0.2388 -0.5167 -0.2189
  122MOL   H31746539   2.066   6.142   2.221  4.2013 -0.2749 -1.5917
  122MOL   H31846540   2.094   6.288   2.008 -0.8336  0.7546 -2.2424
  122MOL   H31946541   2.000   6.048   1.864 -0.8934  1.1538 -0.7307
  122MOL   H32046542   2.151   6.117   1.824  1.9672  2.7475  0.0708
  122MOL   H32146543   2.068   5.976   1.663 -0.3820 -1.3615 -1.6694
  122MOL   H32246544   2.021   5.897   1.441  0.3727 -0.1056  0.6712
  122MOL   H32346545   1.903   6.030   1.278  3.6035 -1.5309  0.2320
  122MOL   H32446546   1.826   6.265   1.337 -0.0258 -2.0271 -2.5361
  122MOL   C32546547   1.867   6.403   1.571  0.3032  0.0369 -0.0843
  122MOL   C32646548   1.890   6.527   1.484 -0.0402  0.6913  1.1465
  122MOL   O32746549   1.773   6.447   1.474 -0.1347 -0.1044  0.3375
  122MOL   C32846550   1.994   6.527   1.372  0.8439 -0.7142 -0.3726
  122MOL   O32946551   2.115   6.460   1.406 -0.1079  0.5532  0.4068
  122MOL   C33046552   2.206   6.519   1.489 -0.3810 -0.1500 -0.1897
  122MOL   C33146553   2.213   6.661   1.495  0.4051 -0.3056  0.0300
  122MOL   C33246554   2.318   6.726   1.568  0.8139 -0.6022 -0.7627
  122MOL   C33346555   2.405   6.648   1.640 -0.2518 -0.6163 -0.6512
  122MOL   C33446556   2.396   6.509   1.636  0.1680  0.3228  0.2956
  122MOL   C33546557   2.302   6.445   1.552  0.4675  0.0916 -0.4117
  122MOL   H33646558   1.844   6.423   1.675  0.8904  2.2434 -0.3613
  122MOL   H33746559   1.866   6.627   1.521 -0.4973  0.9634  0.1103
  122MOL   H33846560   2.001   6.628   1.331 -3.3657  0.2261  1.0523
  122MOL   H33946561   1.954   6.470   1.289  2.6188 -3.0470  0.3099
  122MOL   H34046562   2.143   6.719   1.437  0.3127  1.1056  1.5182
  122MOL   H34146563   2.327   6.834   1.561 -0.5876 -0.3357  1.1248
  122MOL   H34246564   2.488   6.699   1.688  0.8893 -3.1253  0.1643
  122MOL   H34346565   2.466   6.461   1.703 -0.8599 -2.2832 -0.4269
  122MOL   C34446566   2.291   6.295   1.558 -0.5663  0.4011 -0.8160
  122MOL   C34546567   2.331   6.194   1.452  0.7029 -0.3999 -0.2676
  122MOL   O34646568   2.426   6.243   1.552 -0.3171 -0.1353  0.0941
  122MOL   C34746569   2.373   6.230   1.303  0.4814  0.0462  0.3569
  122MOL   O34846570   2.480   6.143   1.259  0.0912  0.1169  0.0905
  122MOL   C34946571   2.446   6.014   1.221  0.1920 -0.4393 -0.0113
  122MOL   C35046572   2.315   5.958   1.213 -0.4748  0.7262  0.9073
  122MOL   C35146573   2.293   5.830   1.167 -0.1145 -0.3319 -0.0066
  122MOL   C35246574   2.402   5.760   1.120 -0.6139  0.4367 -0.4826
  122MOL   C35346575   2.532   5.811   1.126  0.4273  0.4666 -0.2183
  122MOL   C35446576   2.556   5.939   1.180 -0.1112  0.1402  0.9024
  122MOL   H35546577   2.248   6.260   1.652  2.4842  0.7889  0.7944
  122MOL   H35646578   2.307   6.089   1.461  0.2178 -0.5070 -2.5598
  122MOL   H35746579   2.415   6.330   1.318  1.1913 -0.6818  3.6269
  122MOL   H35846580   2.285   6.239   1.238 -0.1503  1.5639  1.3743
  122MOL   H35946581   2.226   6.004   1.255 -0.9362  1.9496 -1.3492
  122MOL   H36046582   2.191   5.800   1.154 -0.3462 -0.3194  1.7115
  122MOL   H36146583   2.390   5.656   1.093 -0.0523  0.0871  0.5913
  122MOL   H36246584   2.618   5.757   1.089  0.9047  1.9040 -1.2756
  122MOL   C36346585   2.694   5.997   1.193 -0.0276 -0.4041 -0.1221
  122MOL   C36446586   2.773   5.977   1.315  0.1659 -0.1252  0.1747
  122MOL   O36546587   2.796   5.893   1.200  0.2113 -0.1750 -0.2209
  122MOL   C36646588   2.719   5.904   1.433  0.2018 -0.1616 -0.2253
  122MOL   O36746589   2.650   5.995   1.519 -0.0405  0.1251 -0.3810
  122MOL   C36846590   2.537   5.952   1.589 -0.3671  0.1197 -0.3876
  122MOL   C36946591   2.529   6.015   1.713 -0.3845  0.2992  0.4661
  122MOL   C37046592   2.424   5.974   1.795  0.4716  0.2790 -0.0269
  122MOL   C37146593   2.328   5.884   1.757 -0.7363  0.7895  0.0405
  122MOL   C37246594   2.337   5.823   1.627 -0.2336  0.9555 -0.2785
  122MOL   C37346595   2.442   5.860   1.541 -0.0477  0.4165  0.4651
  122MOL   H37446596   2.717   6.070   1.116 -0.2530 -1.3802 -1.1365
  122MOL   H37546597   2.834   6.066   1.328  0.3777 -0.3921  1.0130
  122MOL   H37646598   2.794   5.855   1.495  1.9441  2.8140  0.1215
  122MOL   H37746599   2.658   5.823   1.394  0.0973  0.2080 -0.8304
  122MOL   H37846600   2.606   6.084   1.741 -0.5122  0.4359  0.4829
  122MOL   H37946601   2.425   6.020   1.893 -0.0479  2.6342 -1.0712
  122MOL   H38046602   2.255   5.850   1.829 -0.3172 -1.4673 -0.5895
  122MOL   H38146603   2.258   5.753   1.604  0.3837  0.3511 -0.5860
  122MOL   H38246604   2.447   5.816   1.443 -0.2008 -1.4529  1.2545
  123MOL     C146605   6.898   6.318   0.594  0.4197  0.2336 -0.0167
  123MOL     C246606   6.919   6.422   0.703 -0.0307  0.2239 -0.6204
  123MOL     O346607   6.836   6.304   0.720  0.0505  0.2027  0.2740
  123MOL     C446608   6.854   6.552   0.722 -0.8201  0.0878 -0.3479
  123MOL     O546609   6.764   6.581   0.608  0.2802  0.0563 -0.2322
  123MOL     C646610   6.631   6.580   0.641 -0.2972 -0.7465  0.5308
  123MOL     C746611   6.571   6.481   0.722 -0.2589 -0.6089 -0.2559
  123MOL     C846612   6.428   6.482   0.740  0.6688 -0.0487 -0.3618
  123MOL     C946613   6.346   6.579   0.674 -0.0638  0.2341  0.0659
  123MOL    C1046614   6.404   6.675   0.589 -0.2430 -0.6191  0.3659
  123MOL    C1146615   6.545   6.672   0.569 -0.2075 -0.2328  0.4901
  123MOL    H1246616   6.977   6.247   0.574  1.0233  1.5074 -2.2237
  123MOL    H1346617   7.015   6.414   0.754 -0.2681 -0.0955 -0.2194
  123MOL    H1446618   6.918   6.640   0.722  0.6410 -0.9517  0.9309
  123MOL    H1546619   6.796   6.559   0.814 -0.3708  1.3193 -0.1496
  123MOL    H1646620   6.637   6.413   0.774  0.5492  0.9524  0.8059
  123MOL    H1746621   6.374   6.423   0.812 -0.3912  0.4094 -0.7712
  123MOL    H1846622   6.239   6.578   0.686 -0.1536 -1.5984 -0.7357
  123MOL    H1946623   6.333   6.745   0.547 -1.7371 -3.1182 -1.4057
  123MOL    H2046624   6.831   6.343   0.512 -0.4289 -0.7901  0.3577
  123MOL    C2146625   6.618   6.771   0.478  0.1165  0.3379 -0.0821
  123MOL    C2246626   6.623   6.750   0.329 -0.3821  0.4810 -0.0394
  123MOL    O2346627   6.528   6.835   0.390  0.0751  0.6137  0.2687
  123MOL    C2446628   6.559   6.626   0.255  0.5995 -0.5197  0.1601
  123MOL    O2546629   6.527   6.662   0.125  0.3409  0.4249 -0.1903
  123MOL    C2646630   6.609   6.615   0.018 -0.0162  0.0788  0.0833
  123MOL    C2746631   6.723   6.531   0.038  1.0733  0.4267 -0.1195
  123MOL    C2846632   6.799   6.481   8.100 -0.1447  0.2138 -0.2852
  123MOL    C2946633   6.755   6.502   7.966  0.0677  0.3809  0.0937
  123MOL    C3046634   6.636   6.582   7.945 -0.4797 -0.4732  0.3556
  123MOL    C3146635   6.569   6.638   8.058  0.2652  0.3874 -0.2718
  123MOL    H3246636   6.684   6.847   0.520  0.9874 -1.1046  1.1767
  123MOL    H3346637   6.703   6.801   0.276 -0.2703 -0.6964 -1.0477
  123MOL    H3446638   6.469   6.603   0.311 -0.7490  0.8748 -1.4036
  123MOL    H3546639   6.619   6.535   0.267  0.6752 -0.7653 -1.9269
  123MOL    H3646640   6.773   6.520   0.133  0.2850  0.6184  0.3200
  123MOL    H3746641   6.898   6.446   8.123 -0.7784 -0.8723  0.8750
  123MOL    H3846642   6.815   6.467   7.883 -0.8993 -0.5774 -0.2102
  123MOL    H3946643   6.593   6.606   7.849 -2.3674 -1.5287  0.9173
  123MOL    C4046644   6.443   6.706   8.030 -0.0265 -0.1832 -0.4986
  123MOL    C4146645   6.421   6.854   8.059 -0.3349  0.3454  0.3728
  123MOL    O4246646   6.430   6.799   7.920  0.1144  0.5063 -0.5175
  123MOL    C4346647   6.531   6.956   8.101 -0.4090  0.1548  0.1890
  123MOL    O4446648   6.464   7.083   8.106  0.1899  0.9634  0.2301
  123MOL    C4546649   6.388   7.115   0.036  0.6093  0.6117 -1.1088
  123MOL    C4646650   6.357   7.025   0.143 -0.2181 -0.1291  0.1749
  123MOL    C4746651   6.278   7.058   0.253 -0.1202  0.4771 -1.2527
  123MOL    C4846652   6.224   7.189   0.247 -0.0354  0.5961  0.0068
  123MOL    C4946653   6.240   7.268   0.130 -0.1898 -0.0467 -0.7694
  123MOL    C5046654   6.324   7.236   0.025  0.3156  0.5167 -0.9056
  123MOL    H5146655   6.366   6.631   8.011 -0.0894  0.3570 -2.5092
  123MOL    H5246656   6.320   6.884   8.086 -0.8980  0.2786 -1.5615
  123MOL    H5346657   6.612   6.951   8.029  0.3829 -6.1652  1.2299
  123MOL    H5446658   6.585   6.929   0.022  0.7992 -0.0114 -0.5749
  123MOL    H5546659   6.400   6.925   0.141  0.1015 -0.0765  2.7527
  123MOL    H5646660   6.274   7.000   0.343  1.5457  0.1093 -1.3874
  123MOL    H5746661   6.146   7.225   0.312 -0.9040  0.6475 -1.0596
  123MOL    H5846662   6.174   7.353   0.120  3.7969  3.3692  0.6500
  123MOL    C5946663   6.334   7.316   8.073  0.4713 -0.6110  0.5926
  123MOL    C6046664   6.283   7.292   7.936 -0.2888  0.2969  0.1218
  123MOL    O6146665   6.209   7.369   8.027  0.3116 -0.0119  0.2211
  123MOL    C6246666   6.243   7.152   7.898  0.7616 -0.3516  0.1129
  123MOL    O6346667   6.123   7.164   7.817 -0.1751 -0.6004  0.1528
  123MOL    C6446668   6.132   7.143   7.683 -0.2172  0.3739 -0.4540
  123MOL    C6546669   6.235   7.198   7.597 -0.3832  0.8137 -0.6538
  123MOL    C6646670   6.237   7.177   7.459  0.3981 -0.0006  0.1756
  123MOL    C6746671   6.128   7.119   7.398  0.9145 -0.5146  0.7228
  123MOL    C6846672   6.024   7.071   7.477  0.1625 -0.2100 -0.7997
  123MOL    C6946673   6.023   7.078   7.619  0.4491  0.0506 -0.8197
  123MOL    H7046674   6.418   7.385   8.082  0.8930 -1.2091  1.3502
  123MOL    H7146675   6.333   7.336   7.850  0.3665 -1.5135 -0.4495
  123MOL    H7246676   6.211   7.099   7.988  0.8649  0.7356  0.7945
  123MOL    H7346677   6.328   7.096   7.858  2.4653  1.8927  0.5111
  123MOL    H7446678   6.323   7.245   7.640  0.3764 -1.7587  0.6730
  123MOL    H7546679   6.315   7.220   7.399  0.4239 -1.6216 -0.9877
  123MOL    H7646680   6.131   7.111   7.290 -0.6822 -0.4612  0.6702
  123MOL    H7746681   5.942   7.019   7.429  1.5761 -0.8764 -2.5295
  123MOL    C7846682   5.919   7.018   7.702  0.0436  0.5702 -0.7677
  123MOL    C7946683   5.799   7.090   7.750  0.3007 -0.0628 -0.0686
  123MOL    O8046684   5.791   6.998   7.639 -0.0692 -0.4254 -0.0511
  123MOL    C8146685   5.802   7.238   7.745 -0.6061 -0.0580  0.7979
  123MOL    O8246686   5.720   7.298   7.847 -0.1714 -0.4644  0.0526
  123MOL    C8346687   5.748   7.423   7.905  0.4408 -0.2885 -0.0644
  123MOL    C8446688   5.883   7.450   7.948  0.0306  0.5742  0.1043
  123MOL    C8546689   5.923   7.581   7.984 -0.1755 -1.3556 -0.9124
  123MOL    C8646690   5.830   7.683   7.985 -0.2480 -0.2952  0.4690
  123MOL    C8746691   5.697   7.660   7.945 -0.1346  0.4230 -0.0347
  123MOL    C8846692   5.654   7.532   7.901  0.3064  0.6815  0.3914
  123MOL    H8946693   5.947   6.930   7.759 -0.3405  0.9101 -0.0442
  123MOL    H9046694   5.762   7.049   7.843 -1.2598  2.4068  0.4608
  123MOL    H9146695   5.784   7.277   7.644  1.9313  1.0562  0.7375
  123MOL    H9246696   5.899   7.284   7.763  0.6180 -1.0318 -2.7930
  123MOL    H9346697   5.961   7.376   7.956  0.2089  0.8611  1.0759
  123MOL    H9446698   6.025   7.603   8.010 -0.6289 -1.4014  0.9279
  123MOL    H9546699   5.860   7.782   8.014 -0.7966 -0.3160  1.0993
  123MOL    H9646700   5.631   7.746   7.943 -0.6287  0.3774  6.1177
  123MOL    C9746701   5.514   7.509   7.846 -0.1454 -0.2645  0.0490
  123MOL    C9846702   5.386   7.492   7.934 -0.3814  0.2039 -0.3605
  123MOL    O9946703   5.417   7.612   7.863 -0.2224 -0.3453  0.0611
  123MOL   C10046704   5.390   7.493   8.087  0.0430 -0.4818 -0.0297
  123MOL   O10146705   5.272   7.556   8.136 -0.2724  0.0560 -0.8320
  123MOL   C10246706   5.260   7.600   0.096 -0.6740  0.8208  0.1216
  123MOL   C10346707   5.364   7.569   0.183 -0.0957  0.1052  0.2771
  123MOL   C10446708   5.349   7.602   0.318  0.2288 -0.3681 -0.1298
  123MOL   C10546709   5.243   7.683   0.365 -0.0019  0.1376 -0.3504
  123MOL   C10646710   5.143   7.725   0.271 -0.1507  0.0724 -0.5436
  123MOL   C10746711   5.145   7.679   0.138  0.3464 -0.0957  0.3584
  123MOL   H10846712   5.510   7.442   7.760 -0.9327 -0.2151  0.0450
  123MOL   H10946713   5.299   7.446   7.887 -1.2056  1.6119 -0.2490
  123MOL   H11046714   5.485   7.539   8.116  0.1360 -0.4170 -0.4409
  123MOL   H11146715   5.390   7.391   8.126 -0.6302 -1.4962 -2.6136
  123MOL   H11246716   5.458   7.516   0.170  0.7490  1.2680  1.4500
  123MOL   H11346717   5.426   7.587   0.392 -1.3523 -1.8330  1.2742
  123MOL   H11446718   5.242   7.714   0.468 -1.0967 -1.3555  0.1050
  123MOL   H11546719   5.055   7.780   0.302  0.5650  1.7683 -1.4695
  123MOL   C11646720   5.027   7.705   0.052 -0.4235 -0.0413  0.9007
  123MOL   C11746721   4.922   7.612   8.167 -0.3347  0.1341  0.1969
  123MOL   O11846722   4.902   7.673   0.124  0.3496  0.4074  0.4561
  123MOL   C11946723   4.944   7.463   0.004  0.0675  0.1748 -0.1184
  123MOL   O12046724   4.822   7.398   8.164  0.8841 -0.6073 -0.2786
  123MOL   C12146725   4.764   7.375   8.045  0.4984 -0.8743  0.5435
  123MOL   C12246726   4.834   7.334   7.929 -0.1153 -0.5238 -0.8819
  123MOL   C12346727   4.765   7.307   7.813  0.2882 -0.6844  0.0550
  123MOL   C12446728   4.629   7.306   7.810 -0.6928 -0.1706  0.1672
  123MOL   C12546729   4.559   7.355   7.925 -0.5303  0.7159  0.2242
  123MOL   C12646730   4.625   7.396   8.042 -0.1053  0.0281 -0.3645
  123MOL   H12746731   5.028   7.811   0.027  1.5289 -0.5104 -1.2384
  123MOL   H12846732   4.860   7.667   8.096  1.2968 -0.2263 -1.5736
  123MOL   H12946733   4.977   7.451   0.108  0.4282  0.7745 -0.1630
  123MOL   H13046734   5.026   7.417   8.118  0.2094 -0.8947  0.9457
  123MOL   H13146735   4.942   7.339   7.919 -0.1333  1.3501 -0.2975
  123MOL   H13246736   4.813   7.276   7.721  0.4528  2.4407 -0.9696
  123MOL   H13346737   4.576   7.264   7.725 -1.4763  0.7254  0.2034
  123MOL   H13446738   4.451   7.359   7.921 -0.6585 -0.8559  1.7985
  123MOL   C13546739   4.554   7.465   8.149 -0.0770 -0.7271  0.1319
  123MOL   C13646740   4.514   7.615   8.127 -0.4060 -0.3549 -0.2988
  123MOL   O13746741   4.426   7.508   8.105  0.3570  0.1236  0.5244
  123MOL   C13846742   4.541   7.695   8.005 -0.9129  0.1397 -0.1618
  123MOL   O13946743   4.600   7.821   8.041 -0.2262 -0.7355  0.4601
  123MOL   C14046744   4.518   7.920   8.086 -0.5698 -0.2384  0.8123
  123MOL   C14146745   4.380   7.934   8.052 -0.4222 -0.9877 -0.2841
  123MOL   C14246746   4.303   8.042   8.100  0.5555  0.5889 -1.0219
  123MOL   C14346747   4.358   8.126   0.024  0.6855 -0.0874 -1.1000
  123MOL   C14446748   4.501   8.127   0.047 -0.6491  0.0988 -0.1193
  123MOL   C14546749   4.575   8.018   8.169  0.5841 -0.3465 -0.2249
  123MOL   H14646750   4.560   7.416   0.076 -1.7935 -1.0334  0.1064
  123MOL   H14746751   4.512   7.675   0.048 -0.0586 -1.7086  0.6215
  123MOL   H14846752   4.448   7.701   7.949 -1.0805 -0.6088  0.0283
  123MOL   H14946753   4.618   7.647   7.946  1.2057  3.2250 -0.0188
  123MOL   H15046754   4.337   7.856   7.991  0.5143 -0.4218 -1.7040
  123MOL   H15146755   4.197   8.059   8.087  0.2974  0.5303  0.7679
  123MOL   H15246756   4.296   0.027   0.078  2.0318 -0.4051  0.8868
  123MOL   H15346757   4.542   0.013   0.130  0.6872  1.6743 -1.7928
  123MOL   C15446758   4.728   8.005   0.042  0.0468  0.3928  0.3567
  123MOL   C15546759   4.832   8.110   0.025  0.9378 -0.4230  0.2048
  123MOL   O15646760   4.759   8.099   0.139  0.4327 -0.4444 -0.1872
  123MOL   C15746761   4.803   0.066   8.108 -0.0013 -0.3344 -0.3362
  123MOL   O15846762   4.735   0.005   7.992  0.3513 -0.3526 -0.0694
  123MOL   C15946763   4.801   8.144   7.871 -0.4076 -0.2742  0.0558
  123MOL   C16046764   4.943   8.148   7.854  0.5522 -0.4585  0.5673
  123MOL   C16146765   5.000   8.122   7.728  0.3385  0.0384 -0.5152
  123MOL   C16246766   4.918   8.083   7.619  0.9900 -0.3869  0.0844
  123MOL   C16346767   4.775   8.070   7.636 -1.1325  0.2358 -0.6828
  123MOL   C16446768   4.717   8.112   7.761 -0.0808  0.1878  0.2578
  123MOL   H16546769   4.754   7.899   0.048  3.2995  1.0689 -1.2138
  123MOL   H16646770   4.939   8.097   0.042  1.1024 -1.9615 -1.8738
  123MOL   H16746771   4.897   0.116   8.084  2.2423 -2.9582  2.5126
  123MOL   H16846772   4.735   0.136   8.157 -1.8133 -2.4949  0.3163
  123MOL   H16946773   5.005   8.168   7.940  0.5867  0.7771  0.2723
  123MOL   H17046774   5.108   8.129   7.720  0.2441  2.0802 -0.4089
  123MOL   H17146775   4.961   8.056   7.524  3.9117 -2.9455  2.0554
  123MOL   H17246776   4.704   8.042   7.560 -1.4056  0.0011 -0.3435
  123MOL   C17346777   4.571   8.094   7.780 -0.0740 -0.7655 -0.4743
  123MOL   C17446778   4.487   0.044   7.819  0.2627 -0.3519  0.3297
  123MOL   O17546779   4.494   8.167   7.681  0.3626 -0.1020  0.2242
  123MOL   C17646780   4.540   0.179   7.854  0.2700 -0.2236  0.5102
  123MOL   O17746781   4.443   0.285   7.829 -0.2609  0.1553 -0.0419
  123MOL   C17846782   4.353   0.308   7.932 -0.2198 -0.1727 -0.4350
  123MOL   C17946783   4.376   0.271   8.068 -0.2976  0.4161 -0.2899
  123MOL   C18046784   4.270   0.290   8.159 -0.4324  0.4101  0.7966
  123MOL   C18146785   4.149   0.347   8.131 -0.4496  0.2067 -0.0710
  123MOL   C18246786   4.128   0.382   7.995  0.5235  0.2391 -0.0807
  123MOL   C18346787   4.227   0.361   7.895  0.5298 -0.0013  1.0864
  123MOL   H18446788   4.540   7.991   7.795 -2.8228  0.0693 -0.1143
  123MOL   H18546789   4.398   0.013   7.874  0.6818 -3.5520 -0.6651
  123MOL   H18646790   4.626   0.193   7.789 -1.2046 -1.0120 -1.7035
  123MOL   H18746791   4.580   0.185   7.955  4.1978 -0.3014 -0.9846
  123MOL   H18846792   4.465   0.226   8.108  0.4385  0.2301 -2.0904
  123MOL   H18946793   4.295   0.261   0.090 -0.7221  1.7063  1.2445
  123MOL   H19046794   4.076   0.366   0.038 -0.0745  0.9670  0.1087
  123MOL   H19146795   4.030   0.422   7.973 -0.9259 -2.3925  1.3456
  123MOL   C19246796   4.203   0.400   7.754 -0.0307 -0.0931  0.6446
  123MOL   C19346797   4.156   0.287   7.665 -0.1075  0.1102 -0.2593
  123MOL   O19446798   4.073   0.389   7.708  0.2120 -0.4552  0.1753
  123MOL   C19546799   4.132   0.144   7.710  0.5509  0.0210  0.1379
  123MOL   O19646800   4.031   0.076   7.630  0.3785  0.0960 -0.9727
  123MOL   C19746801   3.906   0.058   7.681 -0.6220  0.0750  0.0949
  123MOL   C19846802   3.830   0.151   7.758  0.0409  1.0106 -0.3326
  123MOL   C19946803   3.693   0.132   7.783  0.0567 -0.8263 -0.1763
  123MOL   C20046804   3.630   0.026   7.723  0.1105 -0.7092  0.2997
  123MOL   C20146805   3.700   8.103   7.642  0.3378 -0.0824 -0.3580
  123MOL   C20246806   3.837   8.118   7.630 -0.2433  0.4751  0.1899
  123MOL   H20346807   4.257   0.487   7.716 -0.0711 -0.0878  0.5977
  123MOL   H20446808   4.182   0.291   7.559  1.8869  0.0875  0.2220
  123MOL   H20546809   4.108   0.151   7.816  0.4851  0.0931  0.1182
  123MOL   H20646810   4.228   0.092   7.716  1.3304  1.2411 -1.4754
  123MOL   H20746811   3.879   0.241   7.791 -0.0794  1.7384 -2.0655
  123MOL   H20846812   3.643   0.207   7.842  3.0203  0.3880  0.8390
  123MOL   H20946813   3.523   0.014   7.733 -0.0024 -0.3473 -0.4538
  123MOL   H21046814   3.654   8.011   7.608  1.6617 -0.3676 -1.4096
  123MOL   C21146815   3.910   8.033   7.535 -0.4007 -0.8528 -0.2985
  123MOL   C21246816   4.043   7.955   7.562  0.5071  0.3565 -0.6449
  123MOL   O21346817   3.915   7.895   7.569  0.7526  0.0253  0.2778
  123MOL   C21446818   4.117   7.940   7.692  0.9889 -0.2427  0.4012
  123MOL   O21546819   4.167   7.811   7.718  0.2551 -0.0574 -0.2232
  123MOL   C21646820   4.272   7.765   7.645  0.6959 -0.0722  0.1474
  123MOL   C21746821   4.348   7.838   7.551  0.3845  1.4542 -0.0470
  123MOL   C21846822   4.476   7.792   7.511  0.2549  0.1500 -0.5828
  123MOL   C21946823   4.524   7.665   7.546 -0.5746 -0.6834  0.4735
  123MOL   C22046824   4.443   7.589   7.624 -0.5612  0.1509 -0.4153
  123MOL   C22146825   4.317   7.635   7.677  0.0831 -0.6265 -0.5009
  123MOL   H22246826   3.897   8.070   7.434  1.0059  0.4672 -0.0265
  123MOL   H22346827   4.102   7.935   7.473  1.3715 -2.2846  0.4617
  123MOL   H22446828   4.042   7.954   7.770  1.6049 -0.4917  1.0529
  123MOL   H22546829   4.197   8.013   7.701 -0.3142  1.0915  1.4225
  123MOL   H22646830   4.327   7.940   7.521  1.6361  1.7594  0.1135
  123MOL   H22746831   4.538   7.849   7.443 -1.1633  0.9202 -1.2561
  123MOL   H22846832   4.620   7.629   7.513 -0.4648 -0.1369  0.1903
  123MOL   H22946833   4.492   7.500   7.659  0.6339  0.6979 -0.6930
  123MOL   C23046834   4.238   7.555   7.776 -0.3353  0.4585  0.5725
  123MOL   C23146835   4.111   7.488   7.737 -0.0916  0.3459 -0.0306
  123MOL   O23246836   4.236   7.420   7.728 -0.2202  0.4804 -0.3017
  123MOL   C23346837   4.035   7.523   7.613  0.3558  0.1104  0.0326
  123MOL   O23446838   3.940   7.422   7.567 -0.4831  0.1922 -0.2816
  123MOL   C23546839   3.862   7.452   7.457 -0.4882  0.3726 -0.0545
  123MOL   C23646840   3.849   7.578   7.396 -0.1291  0.1060 -0.8211
  123MOL   C23746841   3.760   7.594   7.289  0.2276  0.0970 -0.3132
  123MOL   C23846842   3.679   7.484   7.239  1.1481  0.4417  0.9376
  123MOL   C23946843   3.693   7.357   7.307 -0.4622 -0.1555  1.4309
  123MOL   C24046844   3.793   7.342   7.411 -0.2806 -0.7253  0.1014
  123MOL   H24146845   4.260   7.576   7.880  1.9211 -1.0444  0.4236
  123MOL   H24246846   4.054   7.440   7.816  0.6041 -0.6792 -0.1339
  123MOL   H24346847   4.106   7.553   7.536  0.1181 -0.2341 -0.3195
  123MOL   H24446848   3.980   7.613   7.640 -1.4944 -0.8675 -0.4393
  123MOL   H24546849   3.903   7.660   7.442 -0.2522 -1.0567  1.4498
  123MOL   H24646850   3.751   7.690   7.241 -3.9247  1.1759  2.3282
  123MOL   H24746851   3.615   7.503   7.154  2.2952 -0.0550 -0.0517
  123MOL   H24846852   3.634   7.268   7.291  0.8753 -0.8648  0.2832
  123MOL   C24946853   3.808   7.207   7.474 -0.0875 -0.6306 -0.0397
  123MOL   C25046854   3.730   7.164   7.600  0.7315  0.0271  0.3002
  123MOL   O25146855   3.689   7.126   7.465  0.8526 -0.1293 -0.0935
  123MOL   C25246856   3.642   7.256   7.679  0.6136 -0.4441  0.2507
  123MOL   O25346857   3.543   7.194   7.753 -0.2493  0.5499 -0.2048
  123MOL   C25446858   3.554   7.179   7.888  0.1339 -0.0795 -0.3525
  123MOL   C25546859   3.677   7.196   7.959 -0.3234 -0.4234  0.3154
  123MOL   C25646860   3.670   7.176   8.100 -0.0224  0.2557  0.5832
  123MOL   C25746861   3.551   7.140   8.169  0.3202  0.2397 -0.6827
  123MOL   C25846862   3.431   7.119   8.098 -1.0113 -0.2653 -0.0716
  123MOL   C25946863   3.431   7.141   7.954  0.6415  0.2207  0.2480
  123MOL   H26046864   3.900   7.158   7.444  0.1373  0.2911 -0.9038
  123MOL   H26146865   3.763   7.075   7.653  3.0484  1.4149  1.2582
  123MOL   H26246866   3.597   7.305   7.592  2.0358 -0.5923 -0.5907
  123MOL   H26346867   3.690   7.336   7.734 -0.3207  0.1281  0.2462
  123MOL   H26446868   3.768   7.224   7.909  0.8159 -1.6007  1.7079
  123MOL   H26546869   3.753   7.197   8.166  1.3378 -0.9167 -0.7147
  123MOL   H26646870   3.555   7.129   0.107 -2.9298 -1.8506 -0.7177
  123MOL   H26746871   3.348   7.070   8.147 -0.4422 -0.1725  1.0109
  123MOL   C26846872   3.306   7.123   7.874  0.2491  0.1300 -0.2485
  123MOL   C26946873   3.230   6.993   7.860 -0.0877  0.6462  0.0695
  123MOL   O27046874   3.201   7.087   7.964 -0.3647 -0.1716 -0.1363
  123MOL   C27146875   3.265   6.862   7.923  0.4677 -0.3923  0.2582
  123MOL   O27246876   3.262   6.756   7.830  0.3144  0.1614  0.2928
  123MOL   C27346877   3.333   6.769   7.712  0.3280  0.0285  0.0791
  123MOL   C27446878   3.452   6.839   7.693  0.2105 -0.0847  0.1757
  123MOL   C27546879   3.517   6.839   7.565  0.6324  0.7136 -0.5556
  123MOL   C27646880   3.469   6.756   7.459  0.0133 -0.4793 -0.2233
  123MOL   C27746881   3.352   6.682   7.491  0.0817  0.1045 -0.0209
  123MOL   C27846882   3.282   6.692   7.609 -0.3642  0.3720  0.3441
  123MOL   H27946883   3.276   7.197   7.801  0.5411 -0.5779 -1.0953
  123MOL   H28046884   3.150   6.997   7.787 -0.5043 -2.7008  0.2730
  123MOL   H28146885   3.188   6.842   7.998  0.8069  3.2170  1.6760
  123MOL   H28246886   3.359   6.868   7.978 -0.3602  0.4720  1.6073
  123MOL   H28346887   3.495   6.889   7.778  0.2408  1.3744 -0.6968
  123MOL   H28446888   3.606   6.894   7.538 -0.0706  1.0099 -2.3290
  123MOL   H28546889   3.525   6.752   7.367 -0.7394  0.6470 -0.7424
  123MOL   H28646890   3.318   6.611   7.417 -0.2697 -0.6512  0.8684
  123MOL   C28746891   3.151   6.621   7.620  0.5947 -0.3400 -0.6451
  123MOL   C28846892   3.028   6.675   7.554 -0.5666  0.0209  0.3246
  123MOL   O28946893   3.098   6.568   7.493  0.0754  0.0526 -0.2409
  123MOL   C29046894   3.030   6.803   7.480 -0.1572 -0.5609 -0.2183
  123MOL   O29146895   2.918   6.828   7.395  0.3282 -0.2140 -0.1091
  123MOL   C29246896   2.911   6.791   7.263 -0.4724  0.0253  0.8170
  123MOL   C29346897   2.964   6.669   7.205 -0.4399  0.1006 -0.8090
  123MOL   C29446898   2.942   6.642   7.071  0.4679  0.0813 -0.0476
  123MOL   C29546899   2.865   6.722   6.986  0.4131 -0.1555 -0.5930
  123MOL   C29646900   2.817   6.842   7.045  0.8472  0.2389  0.3294
  123MOL   C29746901   2.842   6.878   7.180  0.9565 -0.2673  0.8701
  123MOL   H29846902   3.147   6.551   7.703  0.1086  0.8289  0.3332
  123MOL   H29946903   2.941   6.655   7.616  0.7125  2.0838  2.8755
  123MOL   H30046904   3.127   6.820   7.433  1.2204  0.5578  2.8276
  123MOL   H30146905   3.027   6.879   7.559 -0.3761 -0.4430 -0.3398
  123MOL   H30246906   3.022   6.600   7.265 -0.9905  0.2180 -0.1376
  123MOL   H30346907   2.979   6.550   7.027  1.3359 -0.3155  1.4617
  123MOL   H30446908   2.847   6.690   6.884 -2.4041  0.3044 -0.2823
  123MOL   H30546909   2.752   6.901   6.981 -1.6432 -1.2174  1.4659
  123MOL   C30646910   2.808   7.018   7.236  0.5994  0.0874  0.2974
  123MOL   C30746911   2.875   7.138   7.186 -0.6381  0.2466  0.1965
  123MOL   O30846912   2.749   7.095   7.132 -0.4826  0.4700 -0.0947
  123MOL   C30946913   2.992   7.142   7.090  0.3928 -0.3876  0.3205
  123MOL   O31046914   3.089   7.235   7.140  0.4238  0.2505  0.3828
  123MOL   C31146915   3.170   7.207   7.240  0.3103 -0.4495 -0.3783
  123MOL   C31246916   3.170   7.087   7.315  0.1767  0.1894 -0.0034
  123MOL   C31346917   3.271   7.063   7.413  0.3668  0.3904  0.7341
  123MOL   C31446918   3.344   7.175   7.459  0.3464  0.4108  0.8437
  123MOL   C31546919   3.338   7.298   7.397  0.2337  0.0863 -0.1012
  123MOL   C31646920   3.252   7.310   7.288  0.0427 -0.7562  0.3976
  123MOL   H31746921   2.746   7.015   7.325  1.0396  0.1749  0.6118
  123MOL   H31846922   2.875   7.226   7.250  0.9476  0.9911 -0.8013
  123MOL   H31946923   2.960   7.179   6.992  1.1729  2.3465  1.0495
  123MOL   H32046924   3.031   7.043   7.066 -0.5433 -1.0568  1.4931
  123MOL   H32146925   3.103   7.009   7.282  0.3012 -1.2642  2.9989
  123MOL   H32246926   3.294   6.969   7.461 -2.3821 -1.2327 -1.0203
  123MOL   H32346927   3.413   7.158   7.540 -0.8770  1.7951  2.2305
  123MOL   H32446928   3.397   7.383   7.429  0.2511  0.2914 -0.6655
  123MOL   C32546929   3.252   7.447   7.228  0.0440  0.2781  0.0296
  123MOL   C32646930   3.128   7.536   7.231  0.4709  0.1912  0.6186
  123MOL   O32746931   3.237   7.549   7.327  0.0333 -0.4199 -0.4892
  123MOL   C32846932   2.996   7.488   7.290  0.0073 -0.9363 -0.2541
  123MOL   O32946933   2.902   7.590   7.305 -0.0495  0.1089 -0.0826
  123MOL   C33046934   2.941   7.697   7.381 -0.3532 -0.1374  0.2500
  123MOL   C33146935   3.001   7.679   7.513 -0.4708 -0.6584 -0.4105
  123MOL   C33246936   3.048   7.792   7.585 -1.1096  0.0758 -0.1249
  123MOL   C33346937   3.013   7.924   7.540  0.2809 -0.4642  0.0294
  123MOL   C33446938   2.945   7.945   7.416  0.0856  0.0713 -0.4099
  123MOL   C33546939   2.921   7.833   7.340 -0.1469  0.1756 -0.8089
  123MOL   H33646940   3.330   7.473   7.156 -1.5313  1.0464 -1.4209
  123MOL   H33746941   3.128   7.611   7.152 -0.7000 -0.1801  0.2545
  123MOL   H33846942   3.015   7.419   7.372  0.1552  1.0486  1.4194
  123MOL   H33946943   2.942   7.429   7.215 -1.2024  0.9115 -0.8710
  123MOL   H34046944   3.020   7.575   7.535  0.4444 -0.4628 -0.2490
  123MOL   H34146945   3.102   7.773   7.677 -1.4642  0.3332  0.1412
  123MOL   H34246946   3.040   8.013   7.594 -3.2486  1.1642 -0.7778
  123MOL   H34346947   2.925   8.043   7.375 -0.6635 -1.1504 -3.0806
  123MOL   C34446948   2.880   7.850   7.195  0.6208  0.0927  0.2051
  123MOL   C34546949   2.753   7.912   7.149  0.4268  0.0178  0.1886
  123MOL   O34646950   2.882   7.981   7.147 -0.3402 -0.5033 -0.1863
  123MOL   C34746951   2.637   7.962   7.240  0.0772 -0.7395  0.2851
  123MOL   O34846952   2.563   8.069   7.163 -0.2047  0.1866 -0.6018
  123MOL   C34946953   2.634   0.011   7.156  1.2753 -0.0460  0.6662
  123MOL   C35046954   2.682   0.083   7.266  0.4098  1.2095 -0.0632
  123MOL   C35146955   2.766   0.198   7.252  0.8549 -0.1131  0.1461
  123MOL   C35246956   2.789   0.251   7.123 -0.4350 -0.6718 -0.1777
  123MOL   C35346957   2.732   0.185   7.015  0.0846  0.4096 -0.0114
  123MOL   C35446958   2.653   0.072   7.028  0.0507  0.0779 -0.1430
  123MOL   H35546959   2.931   7.776   7.134 -1.2606 -0.2070 -1.0510
  123MOL   H35646960   2.715   7.889   7.049 -2.1838  0.4937  1.0325
  123MOL   H35746961   2.679   8.002   7.332 -1.0764 -1.4156  1.1216
  123MOL   H35846962   2.583   7.872   7.271  0.9370 -0.7804  1.6921
  123MOL   H35946963   2.660   0.053   7.367 -0.8027 -0.0658 -0.6860
  123MOL   H36046964   2.803   0.251   7.339 -0.9085  2.4406 -0.5941
  123MOL   H36146965   2.841   0.344   7.105  0.0398 -0.7227  0.8887
  123MOL   H36246966   2.741   0.233   6.918 -1.0271  0.4253 -0.1045
  123MOL   C36346967   2.594   0.010   6.905  0.1102 -0.4356  0.0477
  123MOL   C36446968   2.445   8.167   6.887 -0.4955 -0.1752  0.1381
  123MOL   O36546969   2.527   0.104   6.827  0.2310 -0.2045  0.3826
  123MOL   C36646970   2.348   0.049   6.993 -0.2209 -0.2824  0.5169
  123MOL   O36746971   2.232   0.090   6.919 -0.2999 -0.1705 -0.5938
  123MOL   C36846972   2.115   0.117   6.984  0.3095  0.2190 -0.2053
  123MOL   C36946973   2.088   0.095   7.121  0.5355  0.1990 -0.5759
  123MOL   C37046974   1.954   0.127   7.168  0.0694  0.3793 -0.5029
  123MOL   C37146975   1.856   0.188   7.084 -0.2354 -0.3180  0.0345
  123MOL   C37246976   1.892   0.211   6.950 -0.2049 -0.2731  0.2830
  123MOL   C37346977   2.020   0.173   6.903 -0.4308 -0.4587 -0.9682
  123MOL   H37446978   2.651   8.102   6.854  0.6022 -0.3257  0.4267
  123MOL   H37546979   2.410   8.089   6.821 -2.1555 -0.7428  1.6367
  123MOL   H37646980   2.392   0.126   7.057  1.1371 -0.2169 -0.4832
  123MOL   H37746981   2.320   8.131   7.051  0.4707  0.1360  1.5020
  123MOL   H37846982   2.163   0.078   7.196  0.2367  2.0082  0.1547
  123MOL   H37946983   1.947   0.131   7.276  2.8297  0.1194 -0.2985
  123MOL   H38046984   1.755   0.208   7.117  0.2381  0.6008  0.9255
  123MOL   H38146985   1.818   0.266   6.895 -0.7485  0.4552  1.7127
  123MOL   H38246986   2.052   0.192   6.801 -0.8856 -1.7397 -1.3579
  124MOL     C146987   7.269   1.652   1.402 -0.2156 -0.9720 -0.7042
  124MOL     C246988   7.133   1.688   1.452 -0.3626  0.6403 -0.5155
  124MOL     O346989   7.158   1.569   1.370  0.0411  0.3485 -0.1328
  124MOL     C446990   7.065   1.809   1.396 -0.2686 -0.2383 -0.5083
  124MOL     O546991   7.158   1.907   1.370  0.1937 -0.2887 -0.4940
  124MOL     C646992   7.125   2.021   1.299  0.2339 -0.5156  0.0804
  124MOL     C746993   7.003   2.025   1.229 -1.3018  0.8077 -0.1488
  124MOL     C846994   6.963   2.144   1.167 -0.0417  0.0443  0.7090
  124MOL     C946995   7.054   2.252   1.172  0.6253 -0.1759  0.6252
  124MOL    C1046996   7.178   2.249   1.235  0.0404  0.8013 -0.0149
  124MOL    C1146997   7.216   2.126   1.290 -0.5878  0.0155  0.1657
  124MOL    H1246998   7.332   1.604   1.477 -1.8392 -2.7848 -0.4404
  124MOL    H1346999   7.117   1.667   1.557  1.3266  0.2610 -0.3092
  124MOL    H1447000   6.979   1.841   1.455  0.5973 -1.3430  1.4108
  124MOL    H1547001   7.035   1.776   1.297  1.2589 -0.5136 -0.8953
  124MOL    H1647002   6.924   1.951   1.230 -1.3407  0.8566  1.3279
  124MOL    H1747003   6.864   2.155   1.126 -0.8604  3.0927  3.2486
  124MOL    H1847004   7.018   2.349   1.140  2.3602  1.1575  2.5649
  124MOL    H1947005   7.238   2.338   1.229 -0.4652  0.9560 -3.6755
  124MOL    H2047006   7.326   1.698   1.321  1.0670 -2.9027 -0.9544
  124MOL    C2147007   7.343   2.101   1.373  0.8572  0.7664 -0.0554
  124MOL    C2247008   7.468   2.036   1.317 -0.7699 -0.4455  0.8795
  124MOL    O2347009   7.457   2.174   1.329  0.2093 -0.2744 -0.2608
  124MOL    C2447010   7.479   1.996   1.163  0.4883 -0.2213  0.1621
  124MOL    O2547011   7.609   2.023   1.125 -0.3124  0.6642 -0.1876
  124MOL    C2647012   7.628   2.059   0.992 -0.3487  0.0972 -0.8319
  124MOL    C2747013   7.644   1.958   0.897 -0.7285  0.0323  0.0578
  124MOL    C2847014   7.683   1.986   0.766  0.5235 -0.3690  0.6193
  124MOL    C2947015   7.692   2.124   0.728  0.2568  0.0030 -0.6628
  124MOL    C3047016   7.674   2.228   0.824  0.5434 -0.7532  0.2250
  124MOL    C3147017   7.643   2.191   0.955  0.6031  0.3025 -0.0369
  124MOL    H3247018   7.327   2.107   1.481  1.3609 -0.6819  0.1098
  124MOL    H3347019   7.539   1.994   1.389 -0.6376 -0.0628  0.9750
  124MOL    H3447020   7.412   2.047   1.094 -0.6998 -1.7511  0.1487
  124MOL    H3547021   7.470   1.888   1.150  0.7841 -0.1544 -0.6498
  124MOL    H3647022   7.636   1.854   0.922  0.4867 -0.0916 -0.0450
  124MOL    H3747023   7.700   1.901   0.702 -1.9203 -1.2246  1.0553
  124MOL    H3847024   7.705   2.158   0.627  0.2813 -2.0873 -1.3876
  124MOL    H3947025   7.677   2.334   0.801  0.9454 -0.6530  0.6975
  124MOL    C4047026   7.627   2.292   1.067 -0.6474  0.2280  0.4730
  124MOL    C4147027   7.721   2.337   1.170 -0.0863  0.4245  0.2365
  124MOL    O4247028   7.700   2.415   1.054  0.2406  0.2070 -0.2381
  124MOL    C4347029   7.858   2.277   1.186  0.0015  0.1145  0.3765
  124MOL    O4447030   7.925   2.324   1.309  0.2367  0.4747  0.3125
  124MOL    C4547031   7.882   2.273   1.429  0.4079 -0.2848  0.1667
  124MOL    C4647032   7.784   2.170   1.440 -0.0317  0.1937 -0.0958
  124MOL    C4747033   7.761   2.109   1.563 -0.6204 -0.6579  0.9905
  124MOL    C4847034   7.822   2.163   1.677 -0.7170  1.1659 -0.0986
  124MOL    C4947035   7.904   2.270   1.668 -0.5564  0.1999  0.5961
  124MOL    C5047036   7.939   2.324   1.545  0.3286 -0.8065  0.6013
  124MOL    H5147037   7.519   2.296   1.081 -0.9891 -2.3939 -1.1034
  124MOL    H5247038   7.681   2.387   1.258 -2.1183 -1.6065  0.5115
  124MOL    H5347039   7.929   2.313   1.112 -0.4646 -0.5127 -0.3885
  124MOL    H5447040   7.851   2.169   1.173 -1.3278  0.2376 -0.0140
  124MOL    H5547041   7.722   2.136   1.358 -1.5723  0.8030  0.7890
  124MOL    H5647042   7.704   2.021   1.586 -0.6847 -0.8017  0.2834
  124MOL    H5747043   7.799   2.120   1.773  0.6922 -0.4202 -0.4521
  124MOL    H5847044   7.942   2.320   1.756  0.0926 -0.6013  0.7780
  124MOL    C5947045   8.036   2.440   1.550 -0.1361 -0.5725 -0.4071
  124MOL    C6047046   7.989   2.582   1.524 -0.1833  0.2418 -0.0810
  124MOL    O6147047   8.008   2.531   1.651  0.0171 -0.1537  0.9584
  124MOL    C6247048   7.846   2.622   1.493  0.4954  0.3871  0.0358
  124MOL    O6347049   7.801   2.740   1.540  0.8130 -0.0821  0.3969
  124MOL    C6447050   7.858   2.860   1.495  0.0365 -0.9072  0.6674
  124MOL    C6547051   7.943   2.877   1.386 -0.1427 -0.5717  0.4272
  124MOL    C6647052   8.007   3.002   1.357 -0.2219  0.3886 -0.7554
  124MOL    C6747053   7.964   3.115   1.423  0.1543  0.0722  0.2089
  124MOL    C6847054   7.890   3.098   1.538  0.0270 -0.0970 -0.0026
  124MOL    C6947055   7.836   2.970   1.577 -0.7756  0.0236  0.3589
  124MOL    H7047056   8.143   2.425   1.534  0.0724 -0.5342  0.8686
  124MOL    H7147057   8.051   2.670   1.505 -1.3619  1.1998  0.4041
  124MOL    H7247058   7.773   2.556   1.540 -0.7136  0.6364 -1.4525
  124MOL    H7347059   7.841   2.619   1.384  2.4091  0.4873 -0.0749
  124MOL    H7447060   7.968   2.792   1.324 -0.8908 -0.0396 -0.6040
  124MOL    H7547061   8.068   3.014   1.269  0.2768  0.7028 -0.3691
  124MOL    H7647062   8.013   3.211   1.412  2.0486 -0.9570 -0.7178
  124MOL    H7747063   7.875   3.184   1.601  0.7251 -0.8419  1.1894
  124MOL    C7847064   7.750   2.956   1.707 -0.3496  0.3210 -0.2949
  124MOL    C7947065   7.799   2.895   1.835 -0.4455 -0.3022 -0.0739
  124MOL    O8047066   7.801   3.036   1.817 -0.1618  0.1647 -0.4135
  124MOL    C8147067   7.938   2.827   1.846  0.5105  0.6315 -0.7587
  124MOL    O8247068   7.986   2.828   1.983 -0.2697 -0.0354 -0.0211
  124MOL    C8347069   7.948   2.729   2.075 -0.1627 -0.5890  0.0174
  124MOL    C8447070   7.931   2.591   2.037  0.4637 -0.6311  0.3622
  124MOL    C8547071   7.883   2.499   2.132  0.5569 -0.1540 -0.5520
  124MOL    C8647072   7.871   2.535   2.269 -0.0854  0.1970 -0.2745
  124MOL    C8747073   7.912   2.664   2.305 -0.5571  0.1817 -0.2698
  124MOL    C8847074   7.944   2.770   2.208 -0.0342  0.5074 -0.1604
  124MOL    H8947075   7.643   2.974   1.695 -0.2811  0.9819  0.0199
  124MOL    H9047076   7.723   2.864   1.906  2.1071  0.5736  3.1697
  124MOL    H9147077   8.004   2.878   1.776  0.4351 -0.3923 -1.5930
  124MOL    H9247078   7.946   2.725   1.809  1.0047  0.5271 -0.3723
  124MOL    H9347079   7.940   2.554   1.935  0.0724  0.7857 -0.1985
  124MOL    H9447080   7.857   2.401   2.094 -2.3223  0.7831 -1.0950
  124MOL    H9547081   7.836   2.473   2.350  1.4963  0.1255  0.3658
  124MOL    H9647082   7.911   2.687   2.411 -0.7096  3.8283 -0.9745
  124MOL    C9747083   7.986   2.903   2.246 -0.0043 -0.0876  0.3297
  124MOL    C9847084   7.889   3.022   2.250  0.0667 -0.0281 -0.6898
  124MOL    O9947085   7.927   2.948   2.369  0.0495  0.2922 -0.0409
  124MOL   C10047086   7.747   3.017   2.211  0.0159 -0.4189  0.2242
  124MOL   O10147087   7.692   3.147   2.225 -0.2659  0.0916 -0.7711
  124MOL   C10247088   7.676   3.194   2.357  0.6021 -0.1828 -0.8000
  124MOL   C10347089   7.679   3.110   2.475  0.0058  0.7186 -0.2065
  124MOL   C10447090   7.667   3.174   2.601  0.0519  0.7091  0.1785
  124MOL   C10547091   7.649   3.313   2.611  0.3181  0.1499 -0.0625
  124MOL   C10647092   7.653   3.395   2.497 -0.7205 -0.4833  0.7384
  124MOL   C10747093   7.650   3.333   2.365 -0.4471  0.4109 -0.6224
  124MOL   H10847094   8.094   2.913   2.243 -0.0765  1.1093  1.1339
  124MOL   H10947095   7.940   3.118   2.257 -0.9135  0.2694  3.3832
  124MOL   H11047096   7.708   2.929   2.263  3.2278 -1.2893  1.3166
  124MOL   H11147097   7.735   2.984   2.108 -2.0917  0.4167  0.1814
  124MOL   H11247098   7.680   3.002   2.474  2.5617  0.7081 -0.2639
  124MOL   H11347099   7.676   3.103   2.682  0.7007  1.4398  0.7561
  124MOL   H11447100   7.636   3.374   2.699 -2.5592  1.6350 -1.4222
  124MOL   H11547101   7.652   3.502   2.507 -1.4371 -0.2952 -1.1914
  124MOL   C11647102   7.649   3.414   2.238  0.1781 -0.1423  0.5400
  124MOL   C11747103   7.531   3.484   2.177 -0.3834 -0.1427 -0.5730
  124MOL   O11847104   7.622   3.555   2.267  0.8044  0.1867 -0.5589
  124MOL   C11947105   7.390   3.465   2.220 -0.0067  0.0024  0.5305
  124MOL   O12047106   7.374   3.468   2.357 -0.4785  0.0282 -0.0002
  124MOL   C12147107   7.249   3.467   2.413 -0.2778  0.6124  0.2419
  124MOL   C12247108   7.129   3.448   2.341 -1.1810  0.2370 -0.3173
  124MOL   C12347109   7.003   3.456   2.409  0.3723 -0.2314 -0.2273
  124MOL   C12447110   6.999   3.489   2.549 -0.2276 -0.2449  0.2966
  124MOL   C12547111   7.117   3.508   2.621  0.0488 -0.1857  0.7714
  124MOL   C12647112   7.242   3.506   2.551 -0.4220  0.3143 -0.1929
  124MOL   H12747113   7.738   3.399   2.176 -0.0325  1.7140 -0.2523
  124MOL   H12847114   7.541   3.510   2.072 -0.0040 -0.0540 -0.5174
  124MOL   H12947115   7.355   3.369   2.180 -0.6738 -0.7415  2.7986
  124MOL   H13047116   7.332   3.542   2.169  0.9948  1.4498  1.5352
  124MOL   H13147117   7.139   3.431   2.235  1.2912  1.6926 -0.3584
  124MOL   H13247118   6.910   3.449   2.355  0.9400 -1.0244 -1.1163
  124MOL   H13347119   6.902   3.495   2.594 -1.0034 -0.6703 -1.2799
  124MOL   H13447120   7.102   3.526   2.727  2.1038 -0.0963  1.0666
  124MOL   C13547121   7.365   3.543   2.622  0.4596 -0.6404  0.4468
  124MOL   C13647122   7.434   3.677   2.616  0.1396  0.6435 -0.0482
  124MOL   O13747123   7.341   3.644   2.718 -0.1554 -0.5563  0.2810
  124MOL   C13847124   7.377   3.788   2.535  0.1296  0.3424  0.1457
  124MOL   O13947125   7.396   3.908   2.599  0.0126  0.2066  0.3186
  124MOL   C14047126   7.342   4.022   2.541 -0.1506 -0.2670  0.1990
  124MOL   C14147127   7.281   4.023   2.417  0.4961 -0.2398 -0.1346
  124MOL   C14247128   7.230   4.144   2.374 -0.8585  0.2240 -0.2535
  124MOL   C14347129   7.254   4.261   2.442  0.1316 -0.0622 -0.0679
  124MOL   C14447130   7.297   4.257   2.567  0.7768 -0.6606 -0.4586
  124MOL   C14547131   7.350   4.138   2.626  0.4860 -1.3616 -0.2303
  124MOL   H14647132   7.410   3.457   2.671  1.3832 -0.8253 -0.7003
  124MOL   H14747133   7.540   3.684   2.640  0.8671 -0.8836 -2.5917
  124MOL   H14847134   7.271   3.770   2.523  0.2246 -0.8075  0.9984
  124MOL   H14947135   7.430   3.780   2.439 -1.2596  0.6099 -0.6548
  124MOL   H15047136   7.282   3.936   2.353  1.9910  1.3874 -2.3772
  124MOL   H15147137   7.173   4.146   2.282 -2.4727 -0.1725  0.7146
  124MOL   H15247138   7.220   4.356   2.403 -1.6121 -1.4087 -1.9589
  124MOL   H15347139   7.291   4.347   2.627  0.0164 -1.6678  1.0297
  124MOL   C15447140   7.418   4.137   2.756  0.0700  0.7320 -0.6974
  124MOL   C15547141   7.537   4.226   2.777  0.1178 -0.1320 -0.2943
  124MOL   O15647142   7.405   4.265   2.825 -0.1252 -0.7628 -0.3498
  124MOL   C15747143   7.601   4.312   2.676  0.0177  1.1370 -0.2254
  124MOL   O15847144   7.690   4.395   2.752  0.4928  0.5496 -0.4795
  124MOL   C15947145   7.811   4.351   2.803  0.5430  0.4377 -0.1832
  124MOL   C16047146   7.873   4.231   2.765  0.0887 -0.1490 -0.1221
  124MOL   C16147147   8.007   4.206   2.803  0.3545  0.3997  0.3734
  124MOL   C16247148   8.072   4.287   2.893 -0.4160  0.4660  0.1047
  124MOL   C16347149   8.012   4.407   2.924 -0.5226 -0.5108  0.8662
  124MOL   C16447150   7.881   4.436   2.890  0.9849 -0.1622  0.1267
  124MOL   H16547151   7.425   4.041   2.806 -3.2586 -0.3410 -2.2056
  124MOL   H16647152   7.606   4.206   2.858 -0.6201 -0.2313  0.3070
  124MOL   H16747153   7.530   4.378   2.627 -0.8012 -0.1468 -0.7788
  124MOL   H16847154   7.661   4.258   2.602  0.7276 -0.9944  1.8559
  124MOL   H16947155   7.823   4.168   2.693  2.0820 -1.2874 -0.5675
  124MOL   H17047156   8.057   4.115   2.774  0.2927  0.1268  1.1178
  124MOL   H17147157   0.000   4.254   2.924  0.0189  1.1298 -0.5670
  124MOL   H17247158   8.067   4.473   2.989 -0.9314  0.7551 -0.0767
  124MOL   C17347159   7.813   4.554   2.942  0.3753 -0.0959  0.1970
  124MOL   C17447160   7.705   4.538   3.048  0.0987 -0.0864  0.3405
  124MOL   O17547161   7.837   4.590   3.077 -0.2075  0.4051  0.2042
  124MOL   C17647162   7.672   4.408   3.112  0.0683 -0.1832 -0.4491
  124MOL   O17747163   7.591   4.416   3.231  0.1788  0.0218  0.1925
  124MOL   C17847164   7.455   4.454   3.225  0.5208 -0.3671 -0.0407
  124MOL   C17947165   7.392   4.479   3.105 -0.1612  0.2254 -0.1286
  124MOL   C18047166   7.257   4.535   3.107 -0.4899 -0.5047 -0.1208
  124MOL   C18147167   7.190   4.568   3.227 -0.2016 -0.2852  0.3327
  124MOL   C18247168   7.254   4.544   3.351  0.0698 -0.1687 -0.6903
  124MOL   C18347169   7.385   4.486   3.347 -0.1171 -0.7835  0.5378
  124MOL   H18447170   7.808   4.643   2.879 -0.6142 -0.5046 -0.3151
  124MOL   H18547171   7.626   4.612   3.037  1.5175  1.5652  0.9802
  124MOL   H18647172   7.766   4.354   3.131 -0.5020 -0.8418  0.5403
  124MOL   H18747173   7.626   4.341   3.039  0.8934 -0.0058 -1.1391
  124MOL   H18847174   7.439   4.458   3.010  0.8761  1.2064  0.1636
  124MOL   H18947175   7.219   4.555   3.008  2.4170  1.9382 -0.8154
  124MOL   H19047176   7.092   4.615   3.231  0.2569  0.6535  0.8053
  124MOL   H19147177   7.204   4.574   3.442  1.4150 -0.0277  0.0086
  124MOL   C19247178   7.468   4.465   3.473  0.5308 -0.0330 -0.1821
  124MOL   C19347179   7.589   4.542   3.510  0.5648 -0.4672  0.4099
  124MOL   O19447180   7.456   4.576   3.568  1.0725 -0.1427 -0.6758
  124MOL   C19547181   7.651   4.646   3.421  0.1804  0.5694 -0.1875
  124MOL   O19647182   7.729   4.742   3.492  0.0155  0.5204  0.2471
  124MOL   C19747183   7.821   4.813   3.423 -0.2746 -0.5301 -0.0995
  124MOL   C19847184   7.827   4.840   3.286 -0.0772 -0.1104 -0.0327
  124MOL   C19947185   7.928   4.919   3.231  0.6418  0.3499  0.1833
  124MOL   C20047186   8.012   4.991   3.318  0.2883  0.3926  0.0385
  124MOL   C20147187   8.003   4.972   3.458 -0.1134  0.0503 -0.2878
  124MOL   C20247188   7.907   4.884   3.515 -0.5259 -0.9584  0.7058
  124MOL   H20347189   7.456   4.367   3.519  1.7991  0.8929  2.1784
  124MOL   H20447190   7.656   4.503   3.586 -0.3757 -1.3313  0.8075
  124MOL   H20547191   7.586   4.713   3.366 -0.0001 -0.1022 -0.8008
  124MOL   H20647192   7.712   4.594   3.347  0.0552 -0.6025  0.5159
  124MOL   H20747193   7.764   4.789   3.214  3.3116 -2.4031 -1.4840
  124MOL   H20847194   7.923   4.927   3.124  1.1266  0.4613  0.1662
  124MOL   H20947195   8.085   5.059   3.276  0.6507  0.4736  0.7786
  124MOL   H21047196   8.071   5.036   3.513 -1.0774  0.3258  0.6118
  124MOL   C21147197   7.899   4.869   3.664 -0.5379  0.6193 -0.8443
  124MOL   C21247198   8.000   4.788   3.748 -0.6637 -0.4020 -0.4357
  124MOL   O21347199   8.016   4.926   3.730  0.2432 -1.0089 -0.1302
  124MOL   C21447200   8.112   4.715   3.679 -0.0619  0.2529 -0.2685
  124MOL   O21547201   0.052   4.728   3.774 -0.2158 -0.1347 -0.1379
  124MOL   C21647202   0.178   4.684   3.735  0.2468  0.4270  0.2502
  124MOL   C21747203   0.209   4.600   3.617 -0.3843 -0.4715 -0.2684
  124MOL   C21847204   0.336   4.539   3.606  0.3328 -0.5277  0.2286
  124MOL   C21947205   0.437   4.590   3.681 -0.5751 -0.0358 -0.0540
  124MOL   C22047206   0.418   4.689   3.781 -0.2226 -0.3210 -0.6503
  124MOL   C22147207   0.289   4.739   3.806 -0.7460 -0.2483  0.1402
  124MOL   H22247208   7.796   4.869   3.699 -0.5376  1.7326 -0.8230
  124MOL   H22347209   7.989   4.758   3.852 -0.1010 -1.2147 -0.6090
  124MOL   H22447210   8.147   4.768   3.591  2.9181 -0.4521  0.4158
  124MOL   H22547211   8.078   4.615   3.655  2.9125 -0.8560 -0.0719
  124MOL   H22647212   0.136   4.555   3.551 -0.3218  1.2946 -1.5655
  124MOL   H22747213   0.359   4.475   3.523 -0.6270  1.3507 -1.5372
  124MOL   H22847214   0.538   4.559   3.657 -0.2320  0.5168  0.6259
  124MOL   H22947215   0.506   4.733   3.825 -0.2058  1.0836 -2.0745
  124MOL   C23047216   0.273   4.846   3.908 -0.3200  0.2232 -0.8069
  124MOL   C23147217   0.239   4.820   4.051  0.3873  0.5333 -0.8096
  124MOL   O23247218   0.374   4.843   4.008 -0.1088  0.0429  0.3211
  124MOL   C23347219   0.211   4.684   4.115  0.2186  0.0645 -0.3384
  124MOL   O23447220   0.076   4.639   4.100 -0.1976 -0.0303  0.4141
  124MOL   C23547221   0.022   4.533   4.169  0.5125  0.6054 -0.5432
  124MOL   C23647222   0.035   4.515   4.305 -0.3959  0.0296  0.0520
  124MOL   C23747223   8.169   4.391   4.361 -0.6946 -0.0250 -0.0258
  124MOL   C23847224   8.088   4.299   4.287  0.1977  0.7472 -0.4230
  124MOL   C23947225   8.069   4.318   4.152 -0.3700 -0.6161  0.2380
  124MOL   C24047226   8.123   4.435   4.092 -0.6394 -0.9114 -0.7758
  124MOL   H24147227   0.242   4.943   3.870  0.2500  0.8564  0.3457
  124MOL   H24247228   0.188   4.899   4.105  1.2662  1.1622 -0.8803
  124MOL   H24347229   0.233   4.689   4.221  0.6662  0.7714 -0.4668
  124MOL   H24447230   0.279   4.609   4.072 -0.2253  0.3309 -1.5247
  124MOL   H24547231   0.095   4.581   4.365  2.5493 -1.6756 -0.9415
  124MOL   H24647232   0.017   4.374   4.466  4.0753 -0.9615 -0.8963
  124MOL   H24747233   8.043   4.213   4.333 -0.6286  1.5681  0.3436
  124MOL   H24847234   8.017   4.253   4.083 -1.0695  1.3795 -1.1555
  124MOL   C24947235   8.120   4.464   3.942  0.5982 -0.1055  0.5192
  124MOL   C25047236   0.048   4.400   3.846  0.2870  0.5844  0.0607
  124MOL   O25147237   8.083   4.349   3.871 -0.5003  0.6366  0.0923
  124MOL   C25247238   0.165   4.311   3.881  0.0027 -0.1464  0.5165
  124MOL   O25347239   0.226   4.246   3.770 -0.0428 -0.0511  0.1461
  124MOL   C25447240   0.219   4.110   3.763  0.6033  0.0175  0.2545
  124MOL   C25547241   0.125   4.025   3.830 -0.4651  0.0317 -0.2088
  124MOL   C25647242   0.122   3.892   3.801 -0.1298  0.4580  0.6128
  124MOL   C25747243   0.223   3.829   3.728  1.1260 -0.2120  0.1028
  124MOL   C25847244   0.312   3.915   3.667  0.2223 -0.2293 -0.1902
  124MOL   C25947245   0.307   4.052   3.675 -0.2035  0.1465 -0.4662
  124MOL   H26047246   8.097   4.561   3.900 -2.1101 -1.4709 -1.3222
  124MOL   H26147247   0.059   4.445   3.747  0.1961 -1.5264 -0.9512
  124MOL   H26247248   0.155   4.250   3.971 -0.9262 -1.0033 -0.1554
  124MOL   H26347249   0.236   4.385   3.918 -1.6534  1.3634  0.7231
  124MOL   H26447250   0.053   4.067   3.899 -1.0216  1.5098 -1.6430
  124MOL   H26547251   0.055   3.823   3.850 -0.6829  1.2975  1.0268
  124MOL   H26647252   0.234   3.724   3.705 -1.7662 -0.1568 -1.6675
  124MOL   H26747253   0.392   3.874   3.607 -1.2094  0.9532 -3.0106
  124MOL   C26847254   0.411   4.139   3.612 -0.0777 -0.2816 -0.2527
  124MOL   C26947255   0.521   4.217   3.681  0.2164 -0.6349 -0.3749
  124MOL   O27047256   0.541   4.085   3.630  0.0124  0.0670 -0.2784
  124MOL   C27147257   0.529   4.236   3.833  0.5251  0.3836 -0.0084
  124MOL   O27247258   0.656   4.246   3.885  0.2330 -0.2417 -0.2031
  124MOL   C27347259   0.671   4.183   4.002 -0.3188 -0.1222  0.0524
  124MOL   C27447260   0.573   4.219   4.108 -0.0249  0.7399 -0.0181
  124MOL   C27547261   0.574   4.148   4.230  0.3327 -0.1586 -0.1238
  124MOL   C27647262   0.669   4.040   4.246 -0.0106 -0.2202 -0.3088
  124MOL   C27747263   0.755   4.012   4.144 -0.1441  0.5264  0.2909
  124MOL   C27847264   0.764   4.082   4.027  0.0063 -0.0834  0.1086
  124MOL   H27947265   0.382   4.189   3.520  0.4661  3.0174  1.2946
  124MOL   H28047266   0.572   4.289   3.616  0.7805  0.3158  1.1032
  124MOL   H28147267   0.471   4.152   3.871  2.1466 -0.9154 -0.3310
  124MOL   H28247268   0.483   4.332   3.859 -0.3684  0.0733 -0.4381
  124MOL   H28347269   0.501   4.300   4.102 -0.6346  0.3270  1.6005
  124MOL   H28447270   0.504   4.175   4.307  0.1738 -2.1851  0.4660
  124MOL   H28547271   0.663   3.993   4.343 -1.8523  0.2960 -0.1608
  124MOL   H28647272   0.830   3.937   4.163 -0.1659  0.3802 -0.1972
  124MOL   C28747273   0.870   4.055   3.929 -0.7060  0.9182  0.5395
  124MOL   C28847274   0.991   4.141   3.920 -0.4044  0.4763 -0.3665
  124MOL   O28947275   0.996   4.012   3.983  0.2310  0.0347 -0.0548
  124MOL   C29047276   1.003   4.270   3.997  0.2308  0.3235  0.1422
  124MOL   O29147277   1.136   4.299   4.020 -0.0768  0.0919 -0.1867
  124MOL   C29247278   1.172   4.435   4.054 -0.3313  0.5531 -0.1992
  124MOL   C29347279   1.100   4.551   4.016  0.4203 -0.6671  0.1041
  124MOL   C29447280   1.161   4.675   4.039 -0.2854 -0.1823  0.4259
  124MOL   C29547281   1.289   4.691   4.100  0.1585  0.2202 -0.2492
  124MOL   C29647282   1.351   4.569   4.133  0.2419 -0.0035  0.1394
  124MOL   C29747283   1.304   4.442   4.110 -0.1768 -0.2870 -0.6400
  124MOL   H29847284   0.827   3.999   3.847 -0.5473 -1.1824  1.8586
  124MOL   H29947285   1.048   4.145   3.827 -0.0283 -0.8952 -0.1945
  124MOL   H30047286   0.958   4.253   4.096  0.3735 -0.9013  0.0035
  124MOL   H30147287   0.958   4.348   3.935  0.8631 -1.0092 -2.0010
  124MOL   H30247288   1.003   4.552   3.970 -0.9962 -0.7098  2.9810
  124MOL   H30347289   1.106   4.761   4.004  1.3300  0.4517 -0.5981
  124MOL   H30447290   1.333   4.785   4.132  0.6521 -0.3590  0.8024
  124MOL   H30547291   1.454   4.571   4.166  1.0976 -0.4183 -2.4450
  124MOL   C30647292   1.393   4.320   4.118  0.3625 -0.5327  0.0846
  124MOL   C30747293   1.446   4.236   4.003 -0.5095 -0.2450 -0.3810
  124MOL   O30847294   1.520   4.346   4.053 -0.5729  0.5438 -0.2783
  124MOL   C30947295   1.397   4.245   3.858  0.3215 -0.3037  0.3817
  124MOL   O31047296   1.475   4.171   3.766  0.6420  0.4002 -0.0513
  124MOL   C31147297   1.575   4.230   3.689 -0.2529  0.0737 -0.1113
  124MOL   C31247298   1.616   4.363   3.722 -0.0852 -0.9537  0.5542
  124MOL   C31347299   1.711   4.431   3.642  0.0321 -0.3849  0.0520
  124MOL   C31447300   1.759   4.364   3.528  0.5856  0.0435 -0.0839
  124MOL   C31547301   1.727   4.226   3.502 -0.1848 -0.4073  0.1557
  124MOL   C31647302   1.638   4.156   3.583  0.6038  0.0952 -0.2236
  124MOL   H31747303   1.411   4.286   4.219  2.8260 -0.4009 -0.2822
  124MOL   H31847304   1.499   4.143   4.026 -0.7024  0.0072  1.0959
  124MOL   H31947305   1.377   4.349   3.833  0.1573 -0.7155 -1.2788
  124MOL   H32047306   1.302   4.191   3.849  0.8644 -1.3564  0.7999
  124MOL   H32147307   1.584   4.410   3.813 -1.3527  2.6312 -1.6446
  124MOL   H32247308   1.750   4.529   3.665 -0.1863 -0.0313 -1.0614
  124MOL   H32347309   1.837   4.407   3.466  0.5016 -0.0432 -0.2467
  124MOL   H32447310   1.766   4.176   3.415  0.4886  0.2109  0.0947
  124MOL   C32547311   1.603   4.011   3.576  0.1007 -1.0260  0.3583
  124MOL   C32647312   1.496   3.955   3.488  0.1341  1.0015  0.7459
  124MOL   O32747313   1.629   3.958   3.449  0.1390 -0.3145 -0.2239
  124MOL   C32847314   1.388   4.031   3.421 -0.4486  0.0214  0.2169
  124MOL   O32947315   1.326   3.966   3.313 -0.0966 -0.2583 -0.4257
  124MOL   C33047316   1.385   3.972   3.191  0.7368  0.4442 -0.3151
  124MOL   C33147317   1.471   4.081   3.148 -1.0361 -0.5533  0.1904
  124MOL   C33247318   1.518   4.095   3.014  0.1903  0.5217  0.1417
  124MOL   C33347319   1.473   4.001   2.921  0.5911  0.7172  0.1115
  124MOL   C33447320   1.382   3.895   2.960  0.1017 -0.1655  0.5579
  124MOL   C33547321   1.334   3.876   3.092 -0.1115  0.2462  0.0359
  124MOL   H33647322   1.643   3.946   3.653 -1.5871 -2.0156  0.4395
  124MOL   H33747323   1.463   3.863   3.535 -0.6320  1.5231  1.2425
  124MOL   H33847324   1.423   4.130   3.392  0.7706 -1.1754 -2.6420
  124MOL   H33947325   1.307   4.048   3.492 -0.6045 -0.2623  0.1085
  124MOL   H34047326   1.511   4.154   3.217 -1.0070  0.0177 -0.4252
  124MOL   H34147327   1.592   4.169   2.988  1.0185  0.6455  2.6921
  124MOL   H34247328   1.501   4.007   2.817 -1.8142  1.2507 -0.5364
  124MOL   H34347329   1.343   3.826   2.887 -2.9711  0.1082  1.8462
  124MOL   C34447330   1.248   3.760   3.134 -0.2954  0.2931  0.0359
  124MOL   C34547331   1.097   3.753   3.124 -0.5486 -0.7807  0.3630
  124MOL   O34647332   1.188   3.699   3.024  0.1749 -0.5012 -0.0332
  124MOL   C34747333   1.009   3.860   3.065 -0.3934  0.0367 -0.0402
  124MOL   O34847334   0.942   3.930   3.168 -0.3761  0.3977 -0.2443
  124MOL   C34947335   0.847   4.020   3.125  0.3283 -0.2616  0.8591
  124MOL   C35047336   0.815   4.055   2.993  0.3951  0.0219  0.5136
  124MOL   C35147337   0.711   4.145   2.962  0.2073  0.1497  0.2797
  124MOL   C35247338   0.633   4.200   3.067  0.6966  0.6028  0.0710
  124MOL   C35347339   0.666   4.162   3.203 -0.4336  0.2557 -0.0978
  124MOL   C35447340   0.770   4.069   3.231 -0.2554 -0.5369  0.5675
  124MOL   H35547341   1.286   3.691   3.209 -2.8958 -0.0515  1.1165
  124MOL   H35647342   1.047   3.676   3.182 -2.3856  2.6291  3.5272
  124MOL   H35747343   0.950   3.814   2.986 -0.0007 -0.2383 -0.1734
  124MOL   H35847344   1.073   3.928   3.010  0.6457 -0.9950 -0.1396
  124MOL   H35947345   0.883   4.014   2.920  2.0048  2.2519  0.7127
  124MOL   H36047346   0.686   4.172   2.860 -1.6255 -0.6627  0.4941
  124MOL   H36147347   0.547   4.263   3.049  1.0632  1.1426  0.2104
  124MOL   H36247348   0.603   4.193   3.285  0.5143  0.9065  0.3950
  124MOL   C36347349   0.798   4.039   3.372 -0.1574  0.1640  0.2542
  124MOL   C36447350   0.925   4.092   3.431  0.4134 -0.2801 -0.2249
  124MOL   O36547351   0.802   4.158   3.450  0.3452 -0.1400  0.3533
  124MOL   C36647352   1.029   4.174   3.352 -0.5368 -0.6355 -0.6003
  124MOL   O36747353   1.114   4.229   3.454  0.0951 -0.3132 -0.4541
  124MOL   C36847354   1.216   4.307   3.417 -0.9975 -0.3740 -0.1546
  124MOL   C36947355   1.282   4.375   3.523 -0.2710  0.5820 -0.2298
  124MOL   C37047356   1.393   4.458   3.487  0.2051 -0.3701  0.7870
  124MOL   C37147357   1.419   4.487   3.352  0.3965  0.1875  0.5482
  124MOL   C37247358   1.344   4.428   3.252  0.2135 -0.5226 -0.1062
  124MOL   C37347359   1.242   4.341   3.280 -0.2415 -0.2717  0.7701
  124MOL   H37447360   0.739   3.955   3.411  1.6138 -2.1904 -1.9333
  124MOL   H37547361   0.963   4.026   3.508 -0.8266 -1.3179 -0.4832
  124MOL   H37647362   0.985   4.256   3.295 -2.2639 -0.9742  0.1944
  124MOL   H37747363   1.086   4.113   3.283  0.7993 -1.8955  1.5418
  124MOL   H37847364   1.254   4.349   3.624 -2.0702 -0.6924 -1.0401
  124MOL   H37947365   1.449   4.519   3.557 -0.7880  0.8989  0.4903
  124MOL   H38047366   1.501   4.553   3.329  1.2058 -1.4678 -1.4897
  124MOL   H38147367   1.370   4.436   3.147 -1.1366 -0.6611 -0.4651
  124MOL   H38247368   1.194   4.282   3.203 -1.8947  0.0835  1.4999
  125MOL     C147369   2.552   0.785   6.962  0.2539  0.1133  0.8732
  125MOL     C247370   2.415   0.794   6.908  0.4279 -0.3535 -0.0608
  125MOL     O347371   2.440   0.751   7.036 -0.7993 -0.2528 -0.0034
  125MOL     C447372   2.355   0.694   6.819 -0.4151  1.1366 -0.1426
  125MOL     O547373   2.451   0.623   6.734 -0.4350 -0.3550  0.2959
  125MOL     C647374   2.545   0.703   6.663  0.1407 -0.1258  0.1954
  125MOL     C747375   2.520   0.827   6.607 -0.1972  0.5248  0.0302
  125MOL     C847376   2.626   0.906   6.553 -0.6902  0.0506  0.4706
  125MOL     C947377   2.753   0.847   6.534 -0.2578 -0.4044 -0.3438
  125MOL    C1047378   2.774   0.710   6.574  0.0510  0.0537 -0.2769
  125MOL    C1147379   2.675   0.643   6.644 -0.4152  0.3569 -0.2483
  125MOL    H1247380   2.608   0.875   6.986 -0.4349  1.2341 -1.5510
  125MOL    H1347381   2.372   0.893   6.895  1.6052  0.3584  1.3832
  125MOL    H1447382   2.293   0.749   6.748  1.3699  1.9989 -1.0652
  125MOL    H1547383   2.281   0.624   6.859 -1.4030  1.5134 -1.2640
  125MOL    H1647384   2.422   0.871   6.615 -0.8424 -0.6798 -1.0831
  125MOL    H1747385   2.612   1.002   6.506 -0.0766 -0.6544 -1.1904
  125MOL    H1847386   2.832   0.892   6.475 -0.0522 -0.1582  0.1131
  125MOL    H1947387   2.875   0.672   6.563  0.3531 -0.0601  2.4823
  125MOL    H2047388   2.615   0.698   6.944 -2.3281 -1.8972  1.2005
  125MOL    C2147389   2.690   0.507   6.709 -0.1095 -0.0266  0.6279
  125MOL    C2247390   2.704   0.376   6.640 -0.0725 -0.1243  0.3124
  125MOL    O2347391   2.819   0.452   6.682 -0.2155 -0.0690 -0.6628
  125MOL    C2447392   2.692   0.347   6.493  0.4464 -0.2310  0.0833
  125MOL    O2547393   2.569   0.273   6.474 -0.2544  0.4970 -0.0182
  125MOL    C2647394   2.550   0.216   6.354 -0.5496  0.1789 -0.4290
  125MOL    C2747395   2.645   0.217   6.248  0.2198  0.3860  0.5335
  125MOL    C2847396   2.604   0.172   6.117  0.3985 -0.0176 -0.4204
  125MOL    C2947397   2.466   0.135   6.094  0.5235  0.2548  0.1002
  125MOL    C3047398   2.376   0.123   6.209 -0.7245 -0.1106  0.1006
  125MOL    C3147399   2.418   0.162   6.340  0.5851  0.6931 -0.3398
  125MOL    H3247400   2.649   0.502   6.810 -0.5338 -2.1284  0.3838
  125MOL    H3347401   2.686   0.288   6.701 -2.8970 -0.5229 -1.0163
  125MOL    H3447402   2.783   0.294   6.465 -0.6548 -1.3278 -1.5796
  125MOL    H3547403   2.682   0.445   6.446  2.7469  0.6207  1.2877
  125MOL    H3647404   2.747   0.249   6.266  0.1292  0.3038  1.2195
  125MOL    H3747405   2.679   0.174   6.039  0.8726  1.6829  0.0518
  125MOL    H3847406   2.431   0.111   5.994 -2.1570  1.4705  0.7012
  125MOL    H3947407   2.273   0.095   6.193 -0.2015 -1.2472 -1.4035
  125MOL    C4047408   2.336   0.135   6.463 -0.3604  0.2900 -0.0818
  125MOL    C4147409   2.264   0.239   6.550  0.3001 -0.8514  0.4704
  125MOL    O4247410   2.192   0.150   6.449 -0.8142  0.3873  0.2697
  125MOL    C4347411   2.261   0.386   6.518  0.6394  0.5091 -0.8836
  125MOL    O4447412   2.166   0.453   6.597 -0.4589  1.2003 -0.4192
  125MOL    C4547413   2.125   0.580   6.562  0.0096 -0.3040  0.9126
  125MOL    C4647414   2.210   0.656   6.475 -0.4478 -0.3705 -0.0918
  125MOL    C4747415   2.165   0.777   6.419  0.5014  0.1099  0.6524
  125MOL    C4847416   2.035   0.825   6.442 -0.0612 -0.1215 -0.9164
  125MOL    C4947417   1.954   0.749   6.534  0.1713 -0.1837 -0.9102
  125MOL    C5047418   1.993   0.626   6.589 -0.3254  0.1998 -0.5568
  125MOL    H5147419   2.359   0.044   6.518 -2.0241  0.7143  1.3503
  125MOL    H5247420   2.234   0.214   6.652  0.2194 -2.2286  0.1095
  125MOL    H5347421   2.231   0.388   6.413 -1.1903  0.7210 -0.3587
  125MOL    H5447422   2.364   0.422   6.521 -0.2710  3.5176 -3.2631
  125MOL    H5547423   2.313   0.631   6.454 -0.1744 -1.0804  2.0025
  125MOL    H5647424   2.228   0.822   6.344  2.6149 -1.2627  1.5735
  125MOL    H5747425   2.005   0.923   6.409 -2.1076 -0.8775 -1.3910
  125MOL    H5847426   1.852   0.784   6.544 -0.9221 -3.2569 -0.7034
  125MOL    C5947427   1.898   0.548   6.676 -0.1969 -0.3227  0.4526
  125MOL    C6047428   1.870   0.559   6.823  0.3030 -0.4993 -0.6615
  125MOL    O6147429   1.797   0.634   6.716 -0.1729 -0.3847  0.2367
  125MOL    C6247430   1.957   0.642   6.920  0.6565 -0.5022 -0.2220
  125MOL    O6347431   2.027   0.745   6.854  0.9039  0.0520 -0.0363
  125MOL    C6447432   2.073   0.848   6.931  0.1743 -0.0113 -0.7462
  125MOL    C6547433   2.139   0.833   7.055 -0.7235 -0.1237  0.3175
  125MOL    C6647434   2.187   0.950   7.120  0.4478  0.0690 -0.0654
  125MOL    C6747435   2.173   1.075   7.069  0.5371 -0.6537 -0.2367
  125MOL    C6847436   2.104   1.099   6.950 -0.1179 -0.2978 -0.2768
  125MOL    C6947437   2.057   0.981   6.878 -0.3621  1.2931 -0.2629
  125MOL    H7047438   1.866   0.462   6.617  0.6960 -1.5583  1.7342
  125MOL    H7147439   1.803   0.483   6.863 -0.3576 -0.4442 -1.6518
  125MOL    H7247440   2.031   0.584   6.975 -0.5207 -1.2369  0.6061
  125MOL    H7347441   1.896   0.684   7.001  1.0936 -0.7482  0.2380
  125MOL    H7447442   2.158   0.733   7.091  1.7425  0.3199  0.3912
  125MOL    H7547443   2.243   0.934   7.211 -1.0897  0.7278  1.0259
  125MOL    H7647444   2.206   1.160   7.128 -0.0590  0.4925 -1.5439
  125MOL    H7747445   2.091   1.198   6.909 -1.1237 -0.6180 -0.7560
  125MOL    C7847446   1.994   1.001   6.750 -0.4504 -0.2593 -0.3268
  125MOL    C7947447   1.847   1.002   6.723 -0.0579 -0.3523 -0.1926
  125MOL    O8047448   1.922   1.126   6.752 -0.0133  0.2665 -0.0827
  125MOL    C8147449   1.749   0.965   6.832 -0.4522 -0.0434  0.7272
  125MOL    O8247450   1.622   1.033   6.804  0.1592  0.0699  0.4114
  125MOL    C8347451   1.503   0.976   6.855  0.6992 -0.4075 -0.4954
  125MOL    C8447452   1.490   0.842   6.900 -0.3080 -0.1702  0.2209
  125MOL    C8547453   1.373   0.800   6.970  0.1218  0.6676 -0.8393
  125MOL    C8647454   1.262   0.888   6.970 -0.5846 -0.2850 -0.2883
  125MOL    C8747455   1.259   1.008   6.904 -0.1999  0.1618  0.1021
  125MOL    C8847456   1.384   1.060   6.849  0.2333  0.2389  0.1542
  125MOL    H8947457   2.063   0.987   6.666 -0.3562  0.8546 -0.4362
  125MOL    H9047458   1.823   0.990   6.618  1.2200  0.1308 -0.5548
  125MOL    H9147459   1.785   1.010   6.924  2.3210 -1.1690  0.2464
  125MOL    H9247460   1.739   0.856   6.831 -0.2356 -0.0684  1.4845
  125MOL    H9347461   1.565   0.764   6.897 -0.5614 -0.4118  0.0334
  125MOL    H9447462   1.369   0.700   7.010  1.5361  0.2800 -1.6325
  125MOL    H9547463   1.171   0.851   7.015 -1.1522  1.8679  0.4021
  125MOL    H9647464   1.167   1.064   6.897 -0.5225 -0.4368 -0.5184
  125MOL    C9747465   1.393   1.192   6.786  0.0262 -0.5362 -0.1351
  125MOL    C9847466   1.386   1.223   6.640 -0.5772 -0.2092  0.3962
  125MOL    O9947467   1.271   1.232   6.723  0.2338  0.0677  0.7052
  125MOL   C10047468   1.385   1.111   6.534 -0.1347  0.6523  0.0223
  125MOL   O10147469   1.400   1.174   6.411  0.0241 -0.0945 -0.2120
  125MOL   C10247470   1.294   1.231   6.343 -0.4755 -0.9288 -0.1451
  125MOL   C10347471   1.169   1.241   6.410  0.9020  0.4658  0.2907
  125MOL   C10447472   1.068   1.321   6.345 -0.3480  0.2223  0.1264
  125MOL   C10547473   1.100   1.385   6.228 -0.5074  0.7344 -0.0899
  125MOL   C10647474   1.228   1.378   6.162  0.8526  0.1402 -0.0828
  125MOL   C10747475   1.322   1.291   6.219 -1.1058 -0.8522 -0.0730
  125MOL   H10847476   1.431   1.261   6.861 -0.9379  0.0800 -0.2021
  125MOL   H10947477   1.432   1.315   6.604  1.7410 -1.5053 -0.0838
  125MOL   H11047478   1.293   1.053   6.541  1.1792 -1.5475 -0.1873
  125MOL   H11147479   1.466   1.042   6.560 -0.1366  0.3185 -0.8317
  125MOL   H11247480   1.150   1.199   6.508  0.3961 -3.5371 -1.4267
  125MOL   H11347481   0.965   1.332   6.376 -0.3105 -1.1338  0.7355
  125MOL   H11447482   1.032   1.462   6.195 -1.6526 -0.1666  0.1465
  125MOL   H11547483   1.256   1.429   6.071  0.3800  1.0251  0.2609
  125MOL   C11647484   1.462   1.289   6.163 -0.2885  0.1015 -0.4464
  125MOL   C11747485   1.542   1.166   6.136  0.3368  0.2080  0.1363
  125MOL   O11847486   1.458   1.219   6.032 -0.6528 -0.1653  0.7202
  125MOL   C11947487   1.513   1.028   6.185 -0.2050  0.5262 -0.7217
  125MOL   O12047488   1.523   0.917   6.092  0.0561 -0.0722  0.0169
  125MOL   C12147489   1.408   0.891   6.021  0.3661  0.8243  0.1564
  125MOL   C12247490   1.287   0.965   6.029  0.0892 -0.2631 -0.1130
  125MOL   C12347491   1.176   0.939   5.943  0.1625  0.3252 -0.4256
  125MOL   C12447492   1.181   0.847   5.839  0.6899 -0.5357 -0.5013
  125MOL   C12547493   1.298   0.760   5.833 -0.3679 -0.2989  0.3173
  125MOL   C12647494   1.415   0.789   5.916 -0.0254  0.3166 -0.0282
  125MOL   H12747495   1.510   1.386   6.161  1.2066 -0.6351 -2.1518
  125MOL   H12847496   1.646   1.177   6.105  0.8170  0.2492  1.7175
  125MOL   H12947497   1.415   1.027   6.234 -0.1535  1.3318 -0.5965
  125MOL   H13047498   1.583   0.998   6.263 -1.4098  1.1581  0.6192
  125MOL   H13147499   1.266   1.045   6.098 -0.7595 -0.0918 -0.5638
  125MOL   H13247500   1.089   0.999   5.965  0.7213  0.8270  0.4407
  125MOL   H13347501   1.095   0.836   5.774  0.8566  3.1351 -1.5016
  125MOL   H13447502   1.299   0.681   5.760  3.1451 -0.8085  0.8575
  125MOL   C13547503   1.534   0.699   5.901 -0.4609  0.6189  0.2494
  125MOL   C13647504   1.589   0.612   6.016  0.3564  0.7509 -0.3828
  125MOL   O13747505   1.504   0.559   5.915  0.2707  0.7243 -0.7376
  125MOL   C13847506   1.532   0.599   6.157  1.0734 -0.1671  0.3880
  125MOL   O13947507   1.533   0.466   6.211 -0.1370 -0.7921 -0.1615
  125MOL   C14047508   1.648   0.413   6.266  0.2504  0.1653 -0.1959
  125MOL   C14147509   1.775   0.486   6.270  0.6227 -0.2210  0.3908
  125MOL   C14247510   1.885   0.423   6.333 -0.1719 -0.5051  0.7090
  125MOL   C14347511   1.867   0.299   6.387  0.5004  0.4014 -0.1131
  125MOL   C14447512   1.750   0.225   6.377  0.5973 -0.5409  0.1332
  125MOL   C14547513   1.638   0.285   6.319 -0.1001 -0.5505 -0.2876
  125MOL   H14647514   1.609   0.726   5.827 -0.7416 -1.2105 -0.7484
  125MOL   H14747515   1.690   0.573   6.015 -0.7057 -2.1195  0.0816
  125MOL   H14847516   1.429   0.631   6.170  0.3922 -1.8924 -0.6252
  125MOL   H14947517   1.592   0.663   6.221  1.2499  2.2426 -2.0892
  125MOL   H15047518   1.793   0.589   6.242 -1.3145 -0.1389 -0.6110
  125MOL   H15147519   1.981   0.473   6.336 -1.0411  1.2239  0.4131
  125MOL   H15247520   1.952   0.242   6.423 -0.1895  0.2504  1.2969
  125MOL   H15347521   1.746   0.124   6.415 -0.3889 -0.1771  0.9976
  125MOL   C15447522   1.510   0.208   6.318  0.5003  0.3219 -0.0007
  125MOL   C15547523   1.469   0.119   6.203 -0.3430 -0.8637  0.0035
  125MOL   O15647524   1.523   0.063   6.325 -0.5764  0.4679  0.1555
  125MOL   C15747525   1.550   0.099   6.081 -0.1436  0.7505  0.0210
  125MOL   O15847526   1.493   0.002   6.003 -0.4876  0.7069 -0.1688
  125MOL   C15947527   1.518   8.033   6.018 -0.5033  0.2387 -0.6065
  125MOL   C16047528   1.597   7.978   6.123  0.5452 -0.3385 -0.6374
  125MOL   C16147529   1.597   7.838   6.133 -0.2669 -0.3571  0.0434
  125MOL   C16247530   1.544   7.755   6.034  0.5928 -0.6670  0.3986
  125MOL   C16347531   1.470   7.813   5.933  0.0789 -0.0740 -0.1320
  125MOL   C16447532   1.459   7.953   5.919  0.2566  0.3830 -0.4319
  125MOL   H16547533   1.434   0.255   6.380  0.7755 -2.7969  2.8490
  125MOL   H16647534   1.362   0.100   6.196 -0.3791 -0.4580 -0.5413
  125MOL   H16747535   1.652   0.071   6.110 -0.0612  0.4209 -0.5688
  125MOL   H16847536   1.559   0.195   6.029 -0.5448 -0.7535 -2.9646
  125MOL   H16947537   1.642   8.039   6.200 -0.1490  1.2077 -1.4296
  125MOL   H17047538   1.656   7.791   6.210 -0.4461 -0.5785  0.0455
  125MOL   H17147539   1.561   7.649   6.030  0.3421 -0.6915 -0.1026
  125MOL   H17247540   1.411   7.752   5.865  1.2982 -1.3837 -0.0148
  125MOL   C17347541   1.371   8.018   5.821 -0.0376  0.3030 -0.0502
  125MOL   C17447542   1.430   8.085   5.694  0.2492 -0.0826  0.2672
  125MOL   O17547543   1.372   7.951   5.695 -0.1202  0.3685 -0.0129
  125MOL   C17647544   1.578   8.086   5.675  0.4150  0.0013  0.5395
  125MOL   O17747545   1.613   8.144   5.545 -0.1950  0.5294  0.2504
  125MOL   C17847546   1.610   0.108   5.530 -0.0236 -0.5485  0.2736
  125MOL   C17947547   1.564   0.208   5.627  0.2482  0.2875  0.0294
  125MOL   C18047548   1.566   0.343   5.604 -0.1509 -0.4727  0.9850
  125MOL   C18147549   1.624   0.393   5.487 -0.2917 -0.2548 -0.3334
  125MOL   C18247550   1.669   0.303   5.384 -0.1830  0.3603 -0.7453
  125MOL   C18347551   1.656   0.163   5.406  0.4766  0.4566  0.5691
  125MOL   H18447552   1.273   8.049   5.856  1.0820  0.8555  2.7227
  125MOL   H18547553   1.372   8.155   5.634  1.2348 -0.7227 -1.4668
  125MOL   H18647554   1.624   7.988   5.665 -2.3753 -1.1253 -1.7852
  125MOL   H18747555   1.632   8.137   5.754  0.3970 -2.7508  2.4127
  125MOL   H18847556   1.526   0.183   5.725 -0.5402 -1.1372 -0.6195
  125MOL   H18947557   1.512   0.414   5.665 -0.5150  0.0267  0.0807
  125MOL   H19047558   1.636   0.501   5.486  1.0773 -0.3953  0.1122
  125MOL   H19147559   1.714   0.338   5.293  0.9800  0.9394  0.0418
  125MOL   C19247560   1.666   0.071   5.296 -0.0226  0.0012  0.8156
  125MOL   C19347561   1.548   0.009   5.227  0.1174 -0.4709  0.1443
  125MOL   O19447562   1.616   0.127   5.176  0.1572 -0.3248  0.4145
  125MOL   C19547563   1.410   0.028   5.292  0.3912  0.0168  0.8023
  125MOL   O19647564   1.312   8.162   5.191  0.4673 -0.2994 -0.2954
  125MOL   C19747565   1.191   0.064   5.213 -0.7117 -0.1568  0.2708
  125MOL   C19847566   1.127   0.071   5.340 -0.0001 -0.7774  0.5398
  125MOL   C19947567   1.015   0.152   5.368 -0.5114 -0.7377 -0.9904
  125MOL   C20047568   0.959   0.227   5.266  0.0996 -0.2247 -0.2013
  125MOL   C20147569   1.015   0.212   5.136  1.0013  0.1489  0.2564
  125MOL   C20247570   1.124   0.127   5.107  0.2791 -0.4945  0.6578
  125MOL   H20347571   1.761   0.019   5.283  0.4816  1.4378 -1.5229
  125MOL   H20447572   1.568   8.088   5.170  1.3705  0.4014 -0.8199
  125MOL   H20547573   1.393   0.133   5.316  1.4260  0.1641  0.9187
  125MOL   H20647574   1.406   8.138   5.383  1.7833 -0.5809  0.4997
  125MOL   H20747575   1.180   0.023   5.421  1.0950 -0.2739  0.1343
  125MOL   H20847576   0.991   0.148   5.474  2.3703 -0.4988 -0.2755
  125MOL   H20947577   0.883   0.303   5.279  1.7654  1.5416 -0.5113
  125MOL   H21047578   0.965   0.279   5.067  1.1387  0.7194  0.7135
  125MOL   C21147579   1.180   0.121   4.967 -0.1460 -0.1999  0.3189
  125MOL   C21247580   1.099   0.096   4.841  0.1845 -0.5945  0.2593
  125MOL   O21347581   1.131   0.231   4.878 -0.0335 -0.3436 -0.4223
  125MOL   C21447582   0.951   0.063   4.833 -0.3157 -0.0806 -0.5716
  125MOL   O21547583   0.915   0.005   4.707  0.3232 -0.1320 -0.1913
  125MOL   C21647584   0.867   0.089   4.609  0.0773 -0.2622 -0.6730
  125MOL   C21747585   0.916   0.217   4.581  0.0547  0.9593 -0.5662
  125MOL   C21847586   0.866   0.287   4.471  0.9257  0.2455 -0.2707
  125MOL   C21947587   0.760   0.238   4.395 -0.2159 -0.4189 -0.4318
  125MOL   C22047588   0.712   0.110   4.422  0.6445  0.4502  0.0457
  125MOL   C22147589   0.760   0.040   4.531  0.5363  0.4120  0.4854
  125MOL   H22247590   1.288   0.128   4.971 -0.0094 -2.4782  1.1393
  125MOL   H22347591   1.158   0.041   4.769 -0.6063 -1.1281  0.0078
  125MOL   H22447592   0.901   0.153   4.869  0.6987 -0.1897  1.1544
  125MOL   H22547593   0.939   8.146   4.898 -0.2274  0.6249  0.3865
  125MOL   H22647594   0.989   0.262   4.646 -0.5024 -1.5288  1.9138
  125MOL   H22747595   0.899   0.386   4.443 -1.0282  0.4101 -2.1318
  125MOL   H22847596   0.720   0.307   4.323  0.0954  0.9414  0.6700
  125MOL   H22947597   0.630   0.066   4.367  1.2147  1.3253 -1.5437
  125MOL   C23047598   0.712   8.066   4.543  0.2099 -0.2638 -0.1412
  125MOL   C23147599   0.628   8.005   4.660 -0.3438 -0.5556  0.4469
  125MOL   O23247600   0.560   8.058   4.548  0.3856 -0.8593 -0.3855
  125MOL   C23347601   0.608   8.074   4.795  0.0661  0.5606 -0.0894
  125MOL   O23447602   0.474   8.054   4.856  0.1939  0.3862 -0.3467
  125MOL   C23547603   0.374   8.145   4.831  0.2457  0.4406 -0.5194
  125MOL   C23647604   0.377   0.069   4.724 -0.4826  0.4586  0.1013
  125MOL   C23747605   0.269   0.164   4.700  0.4230  0.8952  0.0624
  125MOL   C23847606   0.166   0.172   4.790 -0.6670  0.1215  0.0934
  125MOL   C23947607   0.165   0.081   4.899  0.0744  0.0882  0.1160
  125MOL   C24047608   0.258   8.143   4.914  0.7787  0.1254 -0.2387
  125MOL   H24147609   0.754   8.002   4.465  1.1394 -0.3800  0.4490
  125MOL   H24247610   0.621   7.897   4.665 -0.4003 -0.5074  1.6658
  125MOL   H24347611   0.630   0.010   4.785  0.3507  0.2739 -2.8591
  125MOL   H24447612   0.689   8.038   4.859 -0.6363  0.5751  0.8086
  125MOL   H24547613   0.465   0.062   4.662 -0.7245  0.2911 -0.2196
  125MOL   H24647614   0.258   0.225   4.611 -3.3665  0.4584  0.1711
  125MOL   H24747615   0.080   0.238   4.786 -1.3009 -0.6619  0.6797
  125MOL   H24847616   0.081   0.086   4.967  0.1877 -1.6049  0.3942
  125MOL   C24947617   0.239   8.049   5.020  0.1095 -0.1327  0.6465
  125MOL   C25047618   0.333   8.031   5.143 -0.3376  0.1310 -0.1655
  125MOL   O25147619   0.203   8.102   5.144 -0.1097 -0.4281 -0.5502
  125MOL   C25247620   0.453   8.120   5.165 -0.0188 -0.2472  0.2163
  125MOL   O25347621   0.466   8.136   5.305  0.0864  0.2024 -0.2636
  125MOL   C25447622   0.531   8.041   5.382 -0.6569 -0.1169 -0.3345
  125MOL   C25547623   0.575   7.919   5.325 -0.6748 -0.1507  0.3471
  125MOL   C25647624   0.653   7.838   5.404 -0.3262 -0.6878 -0.1091
  125MOL   C25747625   0.676   7.866   5.535  0.0730  0.0225  0.5586
  125MOL   C25847626   0.635   7.984   5.597  0.6833  0.5770 -0.5025
  125MOL   C25947627   0.563   8.075   5.516  0.1437  0.3249 -0.4287
  125MOL   H26047628   0.182   7.965   4.982 -0.0810  0.1380  0.3337
  125MOL   H26147629   0.339   7.936   5.194  0.1661  1.2830  1.9801
  125MOL   H26247630   0.431   0.047   5.121  0.9655 -0.9396 -1.8287
  125MOL   H26347631   0.546   8.080   5.128  0.3666  0.7317  0.1043
  125MOL   H26447632   0.557   7.895   5.221 -2.8633  0.3177  0.5850
  125MOL   H26547633   0.699   7.755   5.353 -2.2249 -0.3695 -2.4228
  125MOL   H26647634   0.736   7.806   5.602 -0.9890 -0.3739  1.1621
  125MOL   H26747635   0.666   8.003   5.699 -0.1223  0.8484 -0.3035
  125MOL   C26847636   0.544   0.045   5.564  0.0884  0.2107  0.3587
  125MOL   C26947637   0.409   0.104   5.601 -0.2524  0.7736 -0.4142
  125MOL   O27047638   0.496   0.042   5.702 -0.3163  0.3019 -0.7539
  125MOL   C27147639   0.283   0.041   5.549 -0.6740  0.9127 -0.2041
  125MOL   O27247640   0.168   0.092   5.614 -0.2891 -0.1366  0.1154
  125MOL   C27347641   0.144   0.061   5.746 -0.6913  0.2945 -0.3288
  125MOL   C27447642   0.193   8.117   5.816 -0.0586 -0.7167 -0.4810
  125MOL   C27547643   0.143   8.082   5.941 -0.3358 -0.5155  0.3300
  125MOL   C27647644   0.056   8.166   6.012  0.1801 -0.1099  0.3165
  125MOL   C27747645   0.012   0.118   5.956 -0.0248 -0.2082  0.0848
  125MOL   C27847646   0.051   0.138   5.827 -0.2252 -0.0358  0.4661
  125MOL   H27947647   0.635   0.103   5.554  0.0710 -0.2742 -2.9260
  125MOL   H28047648   0.399   0.213   5.605 -2.3201  0.5604  0.9644
  125MOL   H28147649   0.290   8.104   5.567  0.0147  0.6998 -1.6439
  125MOL   H28247650   0.262   0.042   5.442 -1.5533 -1.1995 -0.0839
  125MOL   H28347651   0.261   8.046   5.771  0.6919  0.0368 -0.5402
  125MOL   H28447652   0.169   7.989   5.987 -0.4180  0.1596  1.7614
  125MOL   H28547653   0.030   8.141   6.113 -0.8155 -3.2749 -0.6616
  125MOL   H28647654   8.120   0.178   6.021  2.3424  0.6016  1.6845
  125MOL   C28747655   8.165   0.255   5.759 -0.6329 -0.5125  0.5914
  125MOL   C28847656   8.040   0.265   5.678  0.6616 -0.5715  0.0115
  125MOL   O28947657   8.040   0.289   5.820  0.3975  0.2793  0.2262
  125MOL   C29047658   7.955   0.153   5.635 -0.0042 -0.4946  0.3573
  125MOL   O29147659   7.876   0.177   5.513  0.2961 -0.4038  0.1123
  125MOL   C29247660   7.927   0.172   5.389 -0.8280 -0.1583 -0.2514
  125MOL   C29347661   8.073   0.162   5.366  0.0586  0.7489 -1.3507
  125MOL   C29447662   8.126   0.175   5.243  0.6433 -0.7594  0.5655
  125MOL   C29547663   8.045   0.192   5.131  0.0364 -0.7603  0.0702
  125MOL   C29647664   7.907   0.203   5.149 -0.4611 -0.1915  0.3425
  125MOL   C29747665   7.847   0.194   5.280  0.5952 -0.2622 -0.8342
  125MOL   H29847666   0.060   0.336   5.728 -0.6510 -0.1182  1.5596
  125MOL   H29947667   8.027   0.360   5.626 -3.0265 -1.1404 -0.2332
  125MOL   H30047668   7.869   0.137   5.700 -0.8868  1.1806 -0.3760
  125MOL   H30147669   8.007   0.058   5.618 -0.0186 -0.5185  0.4460
  125MOL   H30247670   8.138   0.141   5.450 -0.1897  2.3707 -0.7306
  125MOL   H30347671   0.063   0.167   5.228  0.5494 -0.8468 -0.0683
  125MOL   H30447672   8.081   0.206   5.030  2.8131 -2.5169  0.7760
  125MOL   H30547673   7.841   0.225   5.067 -0.0064  0.5493  0.1647
  125MOL   C30647674   7.696   0.181   5.288 -0.2715  0.6039  0.2447
  125MOL   C30747675   7.615   0.291   5.358  0.3748  1.1284  0.8692
  125MOL   O30847676   7.632   0.278   5.208 -0.0550 -0.3875  0.3781
  125MOL   C30947677   7.665   0.415   5.421  0.0092  0.0735  0.3017
  125MOL   O31047678   7.573   0.460   5.513 -0.1322  0.3243 -0.4066
  125MOL   C31147679   7.573   0.388   5.627 -0.1476  0.3593  0.4469
  125MOL   C31247680   7.482   0.284   5.645  0.0331 -0.2253 -0.4404
  125MOL   C31347681   7.506   0.191   5.746  0.8911  0.0062 -0.0695
  125MOL   C31447682   7.608   0.217   5.842  0.0867  0.3099  0.2768
  125MOL   C31547683   7.692   0.332   5.834  0.2321 -0.3152 -0.0219
  125MOL   C31647684   7.668   0.421   5.726 -0.1676  0.4203  0.3648
  125MOL   H31747685   7.651   0.083   5.273 -0.9508  1.1142 -1.1508
  125MOL   H31847686   7.513   0.265   5.385 -0.0863 -1.9927 -3.3010
  125MOL   H31947687   7.681   0.487   5.341  1.0154 -1.0763 -0.5632
  125MOL   H32047688   7.763   0.395   5.465  0.0153  2.6003  1.5077
  125MOL   H32147689   7.407   0.261   5.571  0.8541 -1.6384 -0.8554
  125MOL   H32247690   7.444   0.103   5.747 -1.5229  1.6398  0.1455
  125MOL   H32347691   7.620   0.154   5.929  0.6187  0.1369  0.0796
  125MOL   H32447692   7.768   0.346   5.909 -0.0754 -0.6351  0.3481
  125MOL   C32547693   7.751   0.542   5.716 -0.1694  0.3090 -0.3173
  125MOL   C32647694   7.716   0.665   5.802 -0.1157 -0.9605  0.3254
  125MOL   O32747695   7.821   0.572   5.831 -0.3451 -0.1612 -0.4850
  125MOL   C32847696   7.627   0.682   5.921  0.4281 -0.0292  0.2071
  125MOL   O32947697   7.562   0.805   5.906 -0.3510 -0.2130 -0.0967
  125MOL   C33047698   7.440   0.818   5.967  0.4895 -0.0025  0.2746
  125MOL   C33147699   7.384   0.745   6.069  0.0942  0.2845  0.0949
  125MOL   C33247700   7.255   0.772   6.123  0.0074  0.7266  0.0129
  125MOL   C33347701   7.178   0.875   6.068  0.5535  0.1312 -0.0658
  125MOL   C33447702   7.225   0.952   5.962  0.3384 -1.1300 -0.3166
  125MOL   C33547703   7.355   0.919   5.913  0.5618  0.4263  0.3127
  125MOL   H33647704   7.791   0.571   5.619 -0.8455  0.9804 -0.3999
  125MOL   H33747705   7.756   0.763   5.775 -1.3770  0.4455  3.3164
  125MOL   H33847706   7.689   0.671   6.010 -1.3305 -1.2602  1.3161
  125MOL   H33947707   7.560   0.596   5.929 -0.2789  0.2351 -2.4972
  125MOL   H34047708   7.438   0.672   6.128 -0.9880 -0.1707  0.5343
  125MOL   H34147709   7.224   0.710   6.206 -0.6122  2.3832  1.0411
  125MOL   H34247710   7.081   0.900   6.108  0.6880 -0.9486  0.9837
  125MOL   H34347711   7.163   1.027   5.914  0.7425 -1.6657 -1.6888
  125MOL   C34447712   7.412   0.982   5.787  0.5085  0.3273 -0.1241
  125MOL   C34547713   7.414   0.898   5.653  0.8344 -0.0975  0.8108
  125MOL   O34647714   7.321   1.005   5.678  0.0846 -0.3317  0.1885
  125MOL   C34747715   7.360   0.750   5.625  0.1711 -0.2255  0.0383
  125MOL   O34847716   7.327   0.737   5.489  0.6164  0.6834 -0.1949
  125MOL   C34947717   7.206   0.778   5.433 -0.5890 -0.2864 -0.5335
  125MOL   C35047718   7.096   0.824   5.514 -0.6881  0.2526 -0.1727
  125MOL   C35147719   6.976   0.862   5.454  0.1557  0.1411  0.6244
  125MOL   C35247720   6.965   0.856   5.311 -0.1600  0.5906 -0.4129
  125MOL   C35347721   7.076   0.811   5.232 -0.1554  0.1395  1.0271
  125MOL   C35447722   7.199   0.777   5.292  0.5597  0.0512  0.1458
  125MOL   H35547723   7.485   1.060   5.808  1.2582 -0.0726 -1.1873
  125MOL   H35647724   7.504   0.927   5.599 -0.2330  1.1716 -0.3275
  125MOL   H35747725   7.280   0.712   5.689  0.0290  2.0784  1.2574
  125MOL   H35847726   7.449   0.689   5.640 -1.0444 -2.2354 -0.7238
  125MOL   H35947727   7.113   0.830   5.621 -0.3793 -2.8563  0.0174
  125MOL   H36047728   6.898   0.907   5.513  1.1620 -0.8225  2.7361
  125MOL   H36147729   6.875   0.885   5.260  0.3299  0.7484 -1.2085
  125MOL   H36247730   7.065   0.803   5.125 -2.2471  1.0645  1.1516
  125MOL   C36347731   7.309   0.729   5.208  0.5305 -0.2413  0.2170
  125MOL   C36447732   7.344   0.587   5.173 -0.4641  0.3248 -0.1008
  125MOL   O36547733   7.257   0.663   5.085  0.2605  0.3872 -0.3360
  125MOL   C36647734   7.289   0.461   5.238 -0.2173  0.3221  0.2058
  125MOL   O36747735   7.292   0.341   5.168  0.1773  0.5012 -0.0751
  125MOL   C36847736   7.282   0.219   5.237  0.5739 -0.0260 -0.4102
  125MOL   C36947737   7.232   0.206   5.367 -0.6356  0.2876 -0.5485
  125MOL   C37047738   7.237   0.077   5.425  0.0840 -0.2289 -1.0583
  125MOL   C37147739   7.311   8.141   5.367  0.2161  0.3486  0.0153
  125MOL   C37247740   7.357   8.160   5.235 -0.0569 -0.0247 -0.9016
  125MOL   C37347741   7.335   0.109   5.167  0.1465 -0.4330 -0.3302
  125MOL   H37447742   7.386   0.801   5.181  0.2693  0.0132  0.1311
  125MOL   H37547743   7.446   0.581   5.137 -0.7137  2.3449 -1.1811
  125MOL   H37647744   7.187   0.484   5.271 -0.0648  0.6940  0.4221
  125MOL   H37747745   7.340   0.451   5.334 -0.3295 -2.0447  0.0533
  125MOL   H37847746   7.187   0.289   5.418 -1.1370  1.2021 -2.4248
  125MOL   H37947747   7.209   0.069   5.529  0.8306  2.7574 -0.5713
  125MOL   H38047748   7.321   8.054   5.430  1.7053  0.1019 -0.5342
  125MOL   H38147749   7.405   8.078   5.184 -1.2771 -1.4145  0.1672
  125MOL   H38247750   7.361   0.102   5.062  1.2079  0.7869 -0.1686
  126MOL     C147751   6.903   4.986   7.143  0.0325  0.4761 -0.0656
  126MOL     C247752   6.880   4.909   7.015  0.2736  0.2823  0.4760
  126MOL     O347753   6.998   4.885   7.100  0.3691 -0.5359  0.1890
  126MOL     C447754   6.913   4.975   6.884 -0.1376  0.1114 -0.0642
  126MOL     O547755   6.928   5.118   6.897  0.2569  0.4357 -0.0432
  126MOL     C647756   6.943   5.203   6.788 -0.4549  0.3394 -0.9393
  126MOL     C747757   6.951   5.149   6.657 -0.6869  0.3291  0.5860
  126MOL     C847758   6.970   5.240   6.545  0.2110 -0.7521  0.0519
  126MOL     C947759   6.983   5.380   6.560 -0.7184  0.1560  0.3229
  126MOL    C1047760   6.973   5.436   6.685 -0.4649 -0.5121 -0.6376
  126MOL    C1147761   6.951   5.347   6.795  0.0164 -0.2727 -0.2248
  126MOL    H1247762   6.843   4.953   7.228 -0.0187 -2.0876 -1.0473
  126MOL    H1347763   6.826   4.816   7.007  0.6633  0.0952 -0.0508
  126MOL    H1447764   6.825   4.947   6.826 -0.6080 -0.2653  0.8273
  126MOL    H1547765   7.007   4.937   6.842  0.1760  0.4873  0.2972
  126MOL    H1647766   6.938   5.043   6.642 -1.8272  0.3393  1.4213
  126MOL    H1747767   6.981   5.200   6.446  0.0883 -1.2407  0.2364
  126MOL    H1847768   6.994   5.447   6.476  1.7545 -0.2590  0.2629
  126MOL    H1947769   6.969   5.543   6.701  1.8310 -0.5777  0.5984
  126MOL    H2047770   6.948   5.085   7.146  0.4385  0.3216 -1.0547
  126MOL    C2147771   6.929   5.414   6.925  0.1546 -0.0347 -0.4264
  126MOL    C2247772   7.021   5.395   7.044 -0.1944 -0.0981 -0.0900
  126MOL    O2347773   7.033   5.508   6.955  0.2653 -0.1351  0.2574
  126MOL    C2447774   7.152   5.325   7.056  0.3987  0.1961  0.1621
  126MOL    O2547775   7.190   5.329   7.194 -0.2067 -0.1140  0.3007
  126MOL    C2647776   7.226   5.458   7.234 -0.3804  0.5271 -0.2079
  126MOL    C2747777   7.298   5.551   7.149 -0.2269 -0.1153  0.1801
  126MOL    C2847778   7.316   5.683   7.198 -0.4788  0.3216  0.1840
  126MOL    C2947779   7.270   5.722   7.330 -0.1877 -0.3119  0.4642
  126MOL    C3047780   7.208   5.627   7.411 -0.0383 -0.4568  0.7765
  126MOL    C3147781   7.184   5.498   7.362  0.6658  0.0265 -0.4885
  126MOL    H3247782   6.825   5.439   6.948  0.2255  0.1118 -0.2576
  126MOL    H3347783   6.978   5.415   7.142 -1.0309  1.1933 -0.6969
  126MOL    H3447784   7.220   5.365   6.981  2.8163 -2.9139  0.5815
  126MOL    H3547785   7.140   5.218   7.040 -0.6767  0.6461 -2.2208
  126MOL    H3647786   7.341   5.524   7.054 -0.7064  1.0532 -0.3763
  126MOL    H3747787   7.377   5.761   7.154  1.0136 -0.6724  0.4526
  126MOL    H3847788   7.286   5.822   7.369 -0.9479  0.1405 -0.3630
  126MOL    H3947789   7.174   5.654   7.510  0.9889 -1.2610  1.3528
  126MOL    C4047790   7.109   5.401   7.446 -0.3758 -0.3888 -0.1575
  126MOL    C4147791   7.183   5.302   7.541  0.3258  0.3051 -0.4175
  126MOL    O4247792   7.120   5.425   7.591 -0.2983 -0.2713  0.2216
  126MOL    C4347793   7.332   5.296   7.549  0.1689  0.6392 -0.4165
  126MOL    O4447794   7.372   5.230   7.671 -0.4854  0.5336 -0.3861
  126MOL    C4547795   7.362   5.100   7.688 -0.6301 -0.7072 -0.5734
  126MOL    C4647796   7.297   5.009   7.605  0.4681  0.2743 -0.0886
  126MOL    C4747797   7.287   4.875   7.639  0.3842  0.1457  0.0726
  126MOL    C4847798   7.331   4.829   7.767 -0.0254 -0.5323  0.3442
  126MOL    C4947799   7.390   4.922   7.856 -0.0312  0.0018 -0.2313
  126MOL    C5047800   7.400   5.055   7.819  0.8722  0.1196 -0.1414
  126MOL    H5147801   7.003   5.387   7.425 -0.0927  0.6831 -2.3996
  126MOL    H5247802   7.123   5.221   7.583  1.4260  0.6267  1.8880
  126MOL    H5347803   7.374   5.397   7.542  1.3917  0.0665 -1.5314
  126MOL    H5447804   7.371   5.244   7.462  0.2238  0.5895 -0.3624
  126MOL    H5547805   7.255   5.045   7.512  0.0543  0.8324  0.3068
  126MOL    H5647806   7.241   4.807   7.569  0.2956  0.4568 -0.1721
  126MOL    H5747807   7.342   4.723   7.783 -1.6021 -0.5962  1.0350
  126MOL    H5847808   7.421   4.883   7.951 -3.1138  0.5541  1.0600
  126MOL    C5947809   7.446   5.159   7.918 -0.0869 -0.0725  0.7584
  126MOL    C6047810   7.355   5.232   8.009  0.3906 -0.4756 -0.1727
  126MOL    O6147811   7.414   5.106   8.041 -0.2408  0.2156  0.3689
  126MOL    C6247812   7.205   5.224   7.994 -0.3661 -0.2750  0.7640
  126MOL    O6347813   7.156   5.339   8.059  0.0088 -0.4948  0.7714
  126MOL    C6447814   7.018   5.375   8.053  0.0642 -0.2575  0.2564
  126MOL    C6547815   6.921   5.291   7.994 -0.2410 -0.2989  0.2002
  126MOL    C6647816   6.790   5.333   7.977  0.6715 -0.0226 -0.0703
  126MOL    C6747817   6.759   5.468   8.006 -0.4227 -0.3740 -0.2006
  126MOL    C6847818   6.856   5.555   8.058  0.7278 -0.2962  0.2299
  126MOL    C6947819   6.989   5.510   8.082  0.3328  0.2920  0.2507
  126MOL    H7047820   7.549   5.191   7.906 -0.6991  1.0849 -1.6445
  126MOL    H7147821   7.378   5.320   8.069  1.5422 -1.8717  1.4761
  126MOL    H7247822   7.172   5.126   8.028 -2.2494  0.6704  1.7455
  126MOL    H7347823   7.176   5.235   7.890  0.9579 -0.4776  0.3669
  126MOL    H7447824   6.962   5.193   7.971  2.1646  0.3508  1.4511
  126MOL    H7547825   6.721   5.275   7.918 -0.5431  1.2401  0.0690
  126MOL    H7647826   6.661   5.497   7.971  0.0919  2.3171  0.4499
  126MOL    H7747827   6.836   5.657   8.086 -0.6807 -0.6449  0.5166
  126MOL    C7847828   7.096   5.604   8.134  0.5817  0.7336 -0.1658
  126MOL    C7947829   7.188   5.679   8.031  0.3043  0.5162  1.3391
  126MOL    O8047830   7.073   5.740   8.086 -0.1766  0.0357  0.3023
  126MOL    C8147831   7.186   5.654   7.880 -0.4480  0.5617 -0.4731
  126MOL    O8247832   7.222   5.778   7.836  0.0633 -0.0520 -0.3472
  126MOL    C8347833   7.354   5.780   7.786 -0.4826  0.8477 -0.1843
  126MOL    C8447834   7.398   5.678   7.697 -0.0813 -0.0121  0.9242
  126MOL    C8547835   7.525   5.677   7.638 -0.1064  0.3534  0.6816
  126MOL    C8647836   7.609   5.792   7.665  0.7683  0.0715 -0.8091
  126MOL    C8747837   7.562   5.897   7.754 -0.1680  0.6317  0.7277
  126MOL    C8847838   7.438   5.885   7.818  0.2630 -0.3586 -0.6308
  126MOL    H8947839   7.151   5.578   0.055  1.6265  0.4196 -0.8801
  126MOL    H9047840   7.283   5.704   8.078 -0.1790 -1.0414  3.2051
  126MOL    H9147841   7.082   5.629   7.857  0.4669 -1.7031 -2.3941
  126MOL    H9247842   7.240   5.562   7.856 -1.8927 -0.1286 -1.1841
  126MOL    H9347843   7.333   5.599   7.659  2.7424 -2.7162  1.5150
  126MOL    H9447844   7.557   5.602   7.567 -0.8463  0.0108  0.7069
  126MOL    H9547845   7.703   5.806   7.614  0.5529 -1.1778 -1.5637
  126MOL    H9647846   7.631   5.980   7.762  0.0023  0.3445  2.6242
  126MOL    C9747847   7.379   5.997   7.895  0.0166 -0.0967 -0.0139
  126MOL    C9847848   7.383   6.025   8.046 -0.2032  0.7695  0.6214
  126MOL    O9947849   7.475   6.084   7.950  0.0063  0.3255 -0.3694
  126MOL   C10047850   7.432   5.928   8.150  0.2638  0.0071 -0.1701
  126MOL   O10147851   7.505   5.808   8.103 -0.0114 -0.0758 -0.1479
  126MOL   C10247852   7.524   5.699   0.017  0.5187  0.0927  0.3175
  126MOL   C10347853   7.473   5.694   0.153  0.1391 -0.3788 -0.4146
  126MOL   C10447854   7.487   5.577   0.226  0.0743 -0.2136  0.6543
  126MOL   C10547855   7.536   5.456   0.169  0.3090 -0.8882  0.3524
  126MOL   C10647856   7.595   5.465   0.035 -0.8040  0.3224 -0.8337
  126MOL   C10747857   7.590   5.586   8.130 -0.4724 -0.3588 -0.0395
  126MOL   H10847858   7.303   6.049   7.837  0.3904  0.6731  0.1841
  126MOL   H10947859   7.306   6.089   8.090 -1.3293  0.4795 -0.8869
  126MOL   H11047860   7.341   5.900   0.034  0.1654  1.8167  0.6398
  126MOL   H11147861   7.485   5.992   0.050  1.2318 -0.0062 -0.8891
  126MOL   H11247862   7.421   5.778   0.197  2.5612  0.9218  0.0196
  126MOL   H11347863   7.444   5.578   0.326  2.0913 -2.3143  1.5850
  126MOL   H11447864   7.521   5.363   0.221  2.0260 -2.1412 -1.3498
  126MOL   H11547865   7.633   5.374   8.161  0.5470 -0.0042  0.9800
  126MOL   C11647866   7.645   5.593   7.997  0.2004  0.6174 -0.0400
  126MOL   C11747867   7.773   5.669   7.963 -0.1421 -0.0686  0.0738
  126MOL   O11847868   7.776   5.531   7.995  0.2486  0.4215 -0.4429
  126MOL   C11947869   7.850   5.759   8.055  0.2170 -0.8921  0.0061
  126MOL   O12047870   7.991   5.743   8.021 -0.1992 -0.1421  0.3889
  126MOL   C12147871   8.073   5.775   8.126 -0.2108  0.2570 -0.9547
  126MOL   C12247872   8.080   5.905   0.013  0.0043  0.0625 -0.0338
  126MOL   C12347873   8.136   5.923   0.144  0.3972  0.0653 -0.3717
  126MOL   C12447874   0.040   5.818   0.204 -0.5430 -0.5387 -0.5549
  126MOL   C12547875   0.045   5.691   0.141 -0.3853  0.3852  0.3466
  126MOL   C12647876   8.141   5.669   0.022 -0.5747  0.0995 -0.3307
  126MOL   H12747877   7.577   5.559   7.918 -0.9987  1.2385  0.7053
  126MOL   H12847878   7.779   5.684   7.856  0.9100 -2.9726 -0.3065
  126MOL   H12947879   7.823   5.740   8.159 -0.7422 -0.0369 -0.0782
  126MOL   H13047880   7.821   5.862   8.033 -0.9835 -0.9240  1.3624
  126MOL   H13147881   8.036   5.990   8.133  0.6528  1.1394  1.2023
  126MOL   H13247882   8.126   6.018   0.194 -0.8463  0.8173 -1.9945
  126MOL   H13347883   0.090   5.826   0.298  0.3275 -2.9060 -0.7787
  126MOL   H13447884   0.098   5.613   0.193  0.3403  0.3892 -0.3724
  126MOL   C13547885   8.141   5.530   8.136  0.3402  0.7077 -0.0499
  126MOL   C13647886   0.048   5.490   8.009 -0.1892 -0.1353 -0.2632
  126MOL   O13747887   0.102   5.461   8.133 -0.1584 -0.5796  0.1458
  126MOL   C13847888   0.131   5.589   7.927 -0.0615 -0.5293  0.4655
  126MOL   O13947889   0.257   5.535   7.886  0.0095  0.4278 -0.3640
  126MOL   C14047890   0.255   5.433   7.797 -1.2504  0.0807  0.2830
  126MOL   C14147891   0.151   5.412   7.713  0.1410 -0.1427 -0.0642
  126MOL   C14247892   0.142   5.297   7.629 -0.3610 -0.2429  0.5257
  126MOL   C14347893   0.250   5.205   7.631  0.3722  0.5166  0.4840
  126MOL   C14447894   0.355   5.230   7.719  0.1918 -0.2055  0.1429
  126MOL   C14547895   0.364   5.345   7.801  0.6689  0.1838  0.1120
  126MOL   H14647896   8.049   5.474   8.154 -0.3698  1.8450 -0.0583
  126MOL   H14747897   0.021   5.398   7.956 -2.4135 -1.4609  3.0270
  126MOL   H14847898   0.152   5.678   7.987  3.4900 -0.5046 -0.7175
  126MOL   H14947899   0.069   5.632   7.849  0.8383 -0.8918 -0.4523
  126MOL   H15047900   0.073   5.487   7.708  0.0545 -0.1810  0.6283
  126MOL   H15147901   0.059   5.275   7.564  0.7713  0.9642 -1.3939
  126MOL   H15247902   0.263   5.120   7.566 -0.1984  1.0778 -0.3799
  126MOL   H15347903   0.436   5.160   7.711 -0.1937 -0.6296 -0.0399
  126MOL   C15447904   0.480   5.375   7.890  0.0583  0.2562  0.4921
  126MOL   C15547905   0.489   5.301   8.016 -0.2827  0.7226  0.3810
  126MOL   O15647906   0.570   5.261   7.904 -0.1645  0.3979 -0.4371
  126MOL   C15747907   0.376   5.207   8.060 -0.1657 -0.0466 -0.3287
  126MOL   O15847908   0.413   5.107   8.158 -0.2942 -0.9760  0.4526
  126MOL   C15947909   0.312   5.048   0.065 -0.2305 -1.0172  0.1725
  126MOL   C16047910   0.184   5.024   0.007 -0.9210 -0.6929  0.8647
  126MOL   C16147911   0.083   4.954   0.083 -0.1093 -0.6587  1.0901
  126MOL   C16247912   0.104   4.924   0.218  0.2377  0.3074 -0.0882
  126MOL   C16347913   0.234   4.943   0.266 -0.1657 -0.2654  0.9014
  126MOL   C16447914   0.337   5.000   0.191  0.5862 -0.5931 -0.0569
  126MOL   H16547915   0.536   5.468   7.876  3.0242 -1.2502  1.7705
  126MOL   H16647916   0.544   5.344   8.099  1.3881 -1.3329  0.3688
  126MOL   H16747917   0.345   5.145   7.976 -0.9375  0.1072 -0.1686
  126MOL   H16847918   0.288   5.262   8.094 -0.4773 -0.6217 -0.2002
  126MOL   H16947919   0.165   5.043   8.072 -1.1953 -2.4840  0.5705
  126MOL   H17047920   8.158   4.947   0.032  0.3236 -1.7722  0.4189
  126MOL   H17147921   0.035   4.866   0.278 -0.5603  0.1227 -1.1706
  126MOL   H17247922   0.250   4.891   0.359  0.3379 -4.4737 -1.4020
  126MOL   C17347923   0.474   5.007   0.245 -0.3313  0.5720 -0.2590
  126MOL   C17447924   0.521   5.100   0.351 -0.6754  0.2867 -0.2394
  126MOL   O17547925   0.481   4.969   0.383 -0.0982 -0.6541 -0.1282
  126MOL   C17647926   0.434   5.213   0.380 -0.0354  0.0643 -0.0439
  126MOL   O17747927   0.481   5.295   0.489 -0.0673 -0.1732  0.3280
  126MOL   C17847928   0.485   5.246   0.617 -0.2287  0.1385  0.4610
  126MOL   C17947929   0.422   5.126   0.658 -0.4419  0.1274 -0.9300
  126MOL   C18047930   0.443   5.072   0.787  0.0546 -0.2852 -0.1198
  126MOL   C18147931   0.522   5.143   0.885 -0.8997 -1.3334 -0.0124
  126MOL   C18247932   0.574   5.268   0.845  0.0353  0.3190  0.2885
  126MOL   C18347933   0.562   5.313   0.710 -0.4018  0.4199 -0.4059
  126MOL   H18447934   0.547   4.962   0.178 -1.2032 -0.6241 -0.3989
  126MOL   H18547935   0.628   5.108   0.337 -0.6395 -0.6712 -0.5847
  126MOL   H18647936   0.330   5.184   0.396  0.4280 -2.7488 -1.8464
  126MOL   H18747937   0.433   5.271   0.288 -1.9230 -0.5723 -0.4333
  126MOL   H18847938   0.372   5.061   0.587  0.0719 -0.3430 -0.8700
  126MOL   H18947939   0.404   4.976   0.817  0.4038 -0.5161 -0.4095
  126MOL   H19047940   0.524   5.097   0.983 -0.0645 -0.6514  0.2964
  126MOL   H19147941   0.634   5.326   0.913 -0.3873  2.0514 -0.7848
  126MOL   C19247942   0.629   5.437   0.674  0.1545  0.1495  0.0002
  126MOL   C19347943   0.549   5.567   0.643 -1.0488 -0.0891  0.2085
  126MOL   O19447944   0.610   5.542   0.772 -0.2586 -0.1959  0.1780
  126MOL   C19547945   0.405   5.592   0.657 -0.7632  0.5348  0.7597
  126MOL   O19647946   0.380   5.732   0.669 -0.1148 -0.1849 -0.6704
  126MOL   C19747947   0.248   5.765   0.684  0.3065 -0.0130  0.2793
  126MOL   C19847948   0.141   5.673   0.682 -0.0194  0.3652  0.2316
  126MOL   C19947949   0.014   5.712   0.705  0.2583 -0.2812 -0.4578
  126MOL   C20047950   8.153   5.847   0.724  0.4756  0.0143  0.3083
  126MOL   C20147951   0.084   5.940   0.721 -0.6160 -0.3493 -0.4292
  126MOL   C20247952   0.216   5.903   0.694  0.3221 -0.1093  0.6507
  126MOL   H20347953   0.723   5.421   0.623 -0.8402 -0.3257 -1.7268
  126MOL   H20447954   0.608   5.635   0.582 -1.9307  0.1092 -0.4272
  126MOL   H20547955   0.358   5.541   0.740 -2.2048  1.1501  0.3260
  126MOL   H20647956   0.372   5.558   0.559 -0.9271  2.9247 -0.0347
  126MOL   H20747957   0.159   5.567   0.677  1.6986  0.5042  2.4453
  126MOL   H20847958   8.119   5.626   0.692  1.4214 -0.9737 -1.8322
  126MOL   H20947959   8.049   5.877   0.730  0.5427 -0.0338  1.8444
  126MOL   H21047960   0.064   6.045   0.734 -1.9776 -0.7910  1.2612
  126MOL   C21147961   0.336   5.996   0.691  0.0807  0.2821  0.5285
  126MOL   C21247962   0.371   6.093   0.580  0.4260  0.2889  0.1919
  126MOL   O21347963   0.295   6.138   0.696  0.1589 -0.3063  0.8457
  126MOL   C21447964   0.290   6.107   0.449  0.8253 -0.0388 -0.4863
  126MOL   O21547965   0.357   6.189   0.358  0.4006 -0.1615  0.2498
  126MOL   C21647966   0.385   6.320   0.387  0.0765  0.2657 -0.2161
  126MOL   C21747967   0.343   6.394   0.502  0.0573 -0.3763 -0.0035
  126MOL   C21847968   0.376   6.535   0.520 -0.0238 -0.3452 -0.4603
  126MOL   C21947969   0.456   6.587   0.422  0.7958  0.1762  0.1586
  126MOL   C22047970   0.502   6.516   0.306 -0.1752 -0.1587 -0.5189
  126MOL   C22147971   0.455   6.387   0.289  0.2459 -0.9738 -0.9326
  126MOL   H22247972   0.405   5.977   0.773  1.1847  1.4453 -0.1105
  126MOL   H22347973   0.476   6.121   0.572  0.1110  2.9540  4.3219
  126MOL   H22447974   0.184   6.124   0.471  0.7336  0.1183 -1.0396
  126MOL   H22547975   0.297   6.012   0.397 -0.9078  0.2661 -1.3230
  126MOL   H22647976   0.276   6.342   0.568  0.0037 -0.7874 -0.3812
  126MOL   H22747977   0.343   6.587   0.609  0.2735 -1.9247  0.6061
  126MOL   H22847978   0.489   6.688   0.442  2.0760 -0.2197  0.1411
  126MOL   H22947979   0.564   6.564   0.231  0.9595 -1.0398 -0.1465
  126MOL   C23047980   0.484   6.312   0.164  0.1005  0.3160 -0.2082
  126MOL   C23147981   0.380   6.233   0.083  0.0950  0.4999 -0.5278
  126MOL   O23247982   0.417   6.370   0.051  0.0798  0.0779 -0.0300
  126MOL   C23347983   0.225   6.222   0.106  0.0220  0.1921 -0.4604
  126MOL   O23447984   0.153   6.251   8.149 -0.6377 -0.1395  0.0332
  126MOL   C23547985   0.172   6.160   8.046 -0.6259  0.0562 -0.0741
  126MOL   C23647986   0.217   6.027   8.062 -0.3286  0.2723  0.5935
  126MOL   C23747987   0.214   5.937   7.954  0.3099 -0.5192  0.4451
  126MOL   C23847988   0.155   5.975   7.835 -0.4624  0.0191 -0.1552
  126MOL   C23947989   0.112   6.107   7.814  0.8271 -0.2639 -0.3422
  126MOL   C24047990   0.124   6.195   7.918 -0.0415  0.4977 -0.3542
  126MOL   H24147991   0.589   6.291   0.144  0.2326  1.4701 -0.7440
  126MOL   H24247992   0.420   6.160   0.014 -2.3222 -0.1396 -1.2894
  126MOL   H24347993   0.193   6.299   0.177  1.3242  0.3640 -0.0348
  126MOL   H24447994   0.193   6.127   0.148  1.9308  0.4659  1.7092
  126MOL   H24547995   0.256   5.992   8.156 -0.2576 -0.8749  0.1443
  126MOL   H24647996   0.259   5.840   7.972  0.2836 -0.5300  0.4527
  126MOL   H24747997   0.157   5.905   7.753  0.5458  0.0290 -0.1361
  126MOL   H24847998   0.080   6.139   7.717  1.5174 -0.1987 -0.5522
  126MOL   C24947999   0.072   6.332   7.886  0.3138  0.2251 -0.5955
  126MOL   C25048000   0.156   6.458   7.882  0.8151 -0.6350  0.6814
  126MOL   O25148001   0.123   6.386   7.762 -0.1493  0.5878  0.0884
  126MOL   C25248002   0.306   6.468   7.918  0.4122  0.3134 -0.6273
  126MOL   O25348003   0.331   6.592   7.983 -0.1428 -0.4676 -0.2200
  126MOL   C25448004   0.462   6.621   8.030  0.1613  0.2429  0.1538
  126MOL   C25548005   0.576   6.544   7.998  0.3137 -0.0155 -0.2266
  126MOL   C25648006   0.701   6.579   8.053  0.2112  0.4158  0.2674
  126MOL   C25748007   0.713   6.690   8.140  0.4187  1.5010 -0.8160
  126MOL   C25848008   0.601   6.772   8.162 -0.0303  0.4308  0.0924
  126MOL   C25948009   0.479   6.740   8.097  0.0210  0.1274  0.2050
  126MOL   H26048010   8.137   6.344   7.911  0.4396  1.6627 -0.6903
  126MOL   H26148011   0.106   6.555   7.884  0.5187 -0.7173 -2.0525
  126MOL   H26248012   0.368   6.475   7.828 -0.8403  0.9646 -1.4393
  126MOL   H26348013   0.337   6.385   7.983 -0.7210  0.6050  0.2973
  126MOL   H26448014   0.559   6.452   7.943  0.2358  1.4607 -2.7616
  126MOL   H26548015   0.784   6.515   8.027 -2.2033 -3.1313  0.9190
  126MOL   H26648016   0.811   6.708   0.011 -0.1751 -0.6287  1.6825
  126MOL   H26748017   0.605   6.857   0.059 -2.0953  0.6272  0.0170
  126MOL   C26848018   0.351   6.829   8.111  0.2953  0.8009 -0.1865
  126MOL   C26948019   0.244   6.793   0.040 -0.8036 -0.6521 -0.2873
  126MOL   O27048020   0.352   6.887   0.074 -0.4805 -0.3381  0.5830
  126MOL   C27148021   0.242   6.657   0.112 -0.6573  0.1608 -0.8010
  126MOL   O27248022   0.177   6.659   0.237 -0.3413  0.3627  0.0656
  126MOL   C27348023   0.039   6.655   0.241  0.0211  0.3688 -0.3236
  126MOL   C27448024   8.127   6.630   0.132 -0.1704 -0.4128  0.5659
  126MOL   C27548025   7.988   6.643   0.141  0.1931 -0.2652  0.4347
  126MOL   C27648026   7.931   6.682   0.264 -0.4631 -0.2807  0.0602
  126MOL   C27748027   8.017   6.712   0.373 -0.7659 -0.5720 -0.4599
  126MOL   C27848028   8.155   6.690   0.368 -0.5203 -0.7527  0.2393
  126MOL   H27948029   0.343   6.904   8.032 -0.2320  0.4956 -0.4277
  126MOL   H28048030   0.142   6.831   0.027 -0.0750  2.0819  1.5468
  126MOL   H28148031   0.341   6.633   0.151 -0.3584  1.8146 -0.4914
  126MOL   H28248032   0.224   6.566   0.055  0.4992  0.2879 -1.3898
  126MOL   H28348033   0.007   6.601   0.040  0.1110  1.3931  0.1197
  126MOL   H28448034   7.930   6.621   0.053 -2.0281 -0.7390  1.9616
  126MOL   H28548035   7.827   6.703   0.282 -0.4760  1.1353 -1.5196
  126MOL   H28648036   7.979   6.748   0.467  0.1856 -0.9794  0.0876
  126MOL   C28748037   0.070   6.710   0.488 -0.7785  0.0437 -0.3564
  126MOL   C28848038   0.170   6.825   0.514  0.1572  0.7146  0.0909
  126MOL   O28948039   0.040   6.823   0.574  0.2711  0.5077  0.3661
  126MOL   C29048040   0.187   6.963   0.441 -0.3370  0.0677  1.0231
  126MOL   O29148041   0.259   7.055   0.518  0.2899 -0.2020  0.0500
  126MOL   C29248042   0.396   7.060   0.501 -0.5863 -0.2958  0.3184
  126MOL   C29348043   0.470   6.973   0.417  0.2850 -0.4243 -0.2762
  126MOL   C29448044   0.608   6.989   0.400 -0.1697  0.5208  0.9764
  126MOL   C29548045   0.677   7.090   0.471  0.6755 -0.9854  0.3259
  126MOL   C29648046   0.606   7.180   0.554  0.4091  0.3764 -0.0418
  126MOL   C29748047   0.467   7.164   0.568 -0.3759  0.2592 -0.2006
  126MOL   H29848048   0.073   6.611   0.534 -0.0637  0.9827  1.6868
  126MOL   H29948049   0.250   6.790   0.580  0.4401  0.7360 -0.2416
  126MOL   H30048050   0.089   7.009   0.426 -0.1581  0.1390  0.0544
  126MOL   H30148051   0.223   6.958   0.338  0.2154  0.1865  1.2077
  126MOL   H30248052   0.413   6.899   0.363  0.3398 -0.1011 -0.7860
  126MOL   H30348053   0.663   6.937   0.322  0.1418 -2.1859  2.9224
  126MOL   H30448054   0.779   7.102   0.437 -0.4849 -0.1320 -3.0633
  126MOL   H30548055   0.666   7.261   0.593  1.2759 -0.4280  0.3000
  126MOL   C30648056   0.386   7.264   0.644 -0.9134 -0.3135 -0.3041
  126MOL   C30748057   0.382   7.276   0.794 -0.6007 -0.3268 -0.4313
  126MOL   O30848058   0.473   7.354   0.709  0.1273 -1.2715 -0.1700
  126MOL   C30948059   0.446   7.194   0.898  0.2497  0.0873  0.1169
  126MOL   O31048060   0.516   7.267   1.000  0.1952  0.2399  0.3549
  126MOL   C31148061   0.638   7.320   0.965 -0.3743 -0.6230  0.4926
  126MOL   C31248062   0.742   7.249   0.907 -0.3052  0.0545  0.3354
  126MOL   C31348063   0.859   7.308   0.862  0.0514  0.1139  0.1662
  126MOL   C31448064   0.878   7.444   0.877 -0.1498  0.3152  0.0817
  126MOL   C31548065   0.774   7.519   0.939  0.7213 -0.4628 -0.2616
  126MOL   C31648066   0.658   7.459   0.984  0.3458  0.0090  0.1680
  126MOL   H31748067   0.326   7.315   0.569  0.2858 -0.7724 -1.6018
  126MOL   H31848068   0.301   7.337   0.833 -0.8486 -1.9715  1.7152
  126MOL   H31948069   0.524   7.132   0.855 -2.8023 -1.5401 -3.3543
  126MOL   H32048070   0.370   7.129   0.943  0.2765 -0.8315 -1.1596
  126MOL   H32148071   0.734   7.143   0.886  2.5024 -0.1759  0.2824
  126MOL   H32248072   0.934   7.249   0.811 -1.6009 -0.4631 -1.6462
  126MOL   H32348073   0.965   7.496   0.840  0.2906 -0.1235  0.4974
  126MOL   H32448074   0.786   7.626   0.943  1.3610 -0.5551  0.6083
  126MOL   C32548075   0.542   7.540   1.045 -0.4650 -0.2897 -0.2481
  126MOL   C32648076   0.556   7.580   1.189 -0.6478  0.4198 -0.7410
  126MOL   O32748077   0.585   7.669   1.085  0.5474 -0.1276  0.4087
  126MOL   C32848078   0.671   7.527   1.271  0.5037 -0.1509  0.0077
  126MOL   O32948079   0.646   7.543   1.411 -0.3192 -1.2823 -0.1869
  126MOL   C33048080   0.737   7.622   1.477 -0.1732 -0.2522 -0.5274
  126MOL   C33148081   0.771   7.753   1.442 -0.7819  0.2970 -0.0947
  126MOL   C33248082   0.864   7.826   1.520 -0.4655 -0.3006 -0.0461
  126MOL   C33348083   0.915   7.769   1.642 -0.2332 -0.3930  0.7044
  126MOL   C33448084   0.870   7.644   1.687 -0.1695 -0.0446  0.4992
  126MOL   C33548085   0.785   7.566   1.600 -0.3694  0.5425 -0.6737
  126MOL   H33648086   0.442   7.540   1.002  0.0218 -1.0707 -1.4152
  126MOL   H33748087   0.470   7.605   1.250 -0.8078 -0.5646 -0.5600
  126MOL   H33848088   0.758   7.586   1.242 -1.3645  1.4271 -2.5500
  126MOL   H33948089   0.688   7.423   1.243  0.1406 -0.2039 -0.0201
  126MOL   H34048090   0.743   7.789   1.344 -2.4011  0.2398  0.3358
  126MOL   H34148091   0.899   7.923   1.486 -1.1879 -0.8712 -2.5780
  126MOL   H34248092   0.973   7.839   1.701  0.2974  0.3679 -0.7081
  126MOL   H34348093   0.902   7.596   1.778  0.6587  0.7250  0.6208
  126MOL   C34448094   0.735   7.434   1.645  0.2971  0.3411  0.1232
  126MOL   C34548095   0.775   7.301   1.582  0.1478 -0.2778 -0.1089
  126MOL   O34648096   0.828   7.341   1.704 -0.1378 -0.3176  0.1631
  126MOL   C34748097   0.882   7.285   1.470  0.0425 -0.7098 -1.2203
  126MOL   O34848098   0.938   7.402   1.413 -0.5204 -0.0519 -0.6874
  126MOL   C34948099   1.028   7.388   1.313  0.1647 -0.1746  0.4124
  126MOL   C35048100   1.026   7.288   1.214  0.4734 -0.6238  0.5933
  126MOL   C35148101   1.126   7.282   1.112 -0.4030 -1.0664  0.6402
  126MOL   C35248102   1.241   7.360   1.120 -0.0358  0.1208 -0.1575
  126MOL   C35348103   1.248   7.449   1.223 -1.0086 -0.1927 -0.4657
  126MOL   C35448104   1.141   7.470   1.317 -0.1633  0.7463 -0.6063
  126MOL   H35548105   0.639   7.440   1.696 -0.7430  0.1282 -1.7710
  126MOL   H35648106   0.711   7.214   1.592 -0.5955  0.2936  0.1572
  126MOL   H35748107   0.834   7.230   1.389 -1.6935  0.5998 -1.1069
  126MOL   H35848108   0.955   7.223   1.522  0.0977 -1.5148 -2.2359
  126MOL   H35948109   0.944   7.219   1.214 -1.4851  1.6154 -0.8155
  126MOL   H36048110   1.117   7.199   1.043 -0.8546 -2.5609  2.4519
  126MOL   H36148111   1.326   7.332   1.060  0.0973 -0.4806  0.3023
  126MOL   H36248112   1.341   7.504   1.226 -0.8662 -0.5374  4.1491
  126MOL   C36348113   1.162   7.580   1.421  0.3109 -0.0503  0.0140
  126MOL   C36448114   1.196   7.554   1.563  0.0260  0.0061  0.5974
  126MOL   O36548115   1.298   7.585   1.462  0.1800  0.9509  1.3902
  126MOL   C36648116   1.196   7.424   1.624 -0.4074  0.5571  0.1312
  126MOL   O36748117   1.313   7.395   1.699 -0.4326 -0.1068  0.2802
  126MOL   C36848118   1.419   7.359   1.620 -0.0050 -0.7412  0.1777
  126MOL   C36948119   1.405   7.290   1.499 -0.1070  0.3078 -0.0553
  126MOL   C37048120   1.520   7.259   1.421 -0.5626 -0.0655 -0.2952
  126MOL   C37148121   1.649   7.309   1.461  0.5718  0.5493  0.7227
  126MOL   C37248122   1.659   7.375   1.582 -0.2193  0.2901  0.0807
  126MOL   C37348123   1.546   7.398   1.665  0.2534 -0.4668 -0.0048
  126MOL   H37448124   1.116   7.675   1.393 -1.4046 -0.7480  0.4205
  126MOL   H37548125   1.170   7.636   1.630  4.0886  1.3247  0.6736
  126MOL   H37648126   1.168   7.346   1.553 -1.8198 -0.1119  1.4204
  126MOL   H37748127   1.114   7.413   1.694 -1.0786  3.0495 -0.2064
  126MOL   H37848128   1.316   7.239   1.468  1.2556 -1.5394 -1.0553
  126MOL   H37948129   1.505   7.211   1.326  2.6393 -0.4653 -0.6447
  126MOL   H38048130   1.739   7.308   1.401  0.8913  1.3117  1.1880
  126MOL   H38148131   1.748   7.423   1.620  0.0076  1.5462 -1.9625
  126MOL   H38248132   1.559   7.466   1.748 -1.6237  1.0940 -0.9233
  127MOL     C148133   3.956   2.504   5.627 -0.1738  0.5435  0.9295
  127MOL     C248134   4.045   2.579   5.715 -0.2063  0.7789 -0.6223
  127MOL     O348135   4.014   2.629   5.585  0.3041  0.1620 -0.8518
  127MOL     C448136   4.193   2.541   5.735 -0.9436 -0.1665 -0.1222
  127MOL     O548137   4.229   2.413   5.681 -0.0741 -0.3963  0.2143
  127MOL     C648138   4.223   2.299   5.760  0.2006  0.1622  0.6965
  127MOL     C748139   4.214   2.299   5.903 -0.3392 -0.4709  0.0026
  127MOL     C848140   4.216   2.184   5.973 -0.2498  0.4663  0.6658
  127MOL     C948141   4.226   2.063   5.913 -0.3264 -0.2342  0.5031
  127MOL    C1048142   4.233   2.059   5.771 -0.1429  0.3737 -0.0589
  127MOL    C1148143   4.239   2.179   5.697 -0.0988  0.0614 -0.0649
  127MOL    H1248144   3.854   2.504   5.665  0.5080  0.6934  2.7948
  127MOL    H1348145   4.004   2.632   5.800 -0.7005  0.8231 -0.8818
  127MOL    H1448146   4.229   2.562   5.835 -1.1281 -1.9215  0.3313
  127MOL    H1548147   4.248   2.616   5.677  1.5507 -2.0452 -0.2713
  127MOL    H1648148   4.181   2.389   5.953  0.8377  0.5880 -1.0999
  127MOL    H1748149   4.202   2.197   6.080 -2.3411  0.2722  0.4293
  127MOL    H1848150   4.223   1.969   5.966 -0.9971 -0.9424 -0.7665
  127MOL    H1948151   4.240   1.963   5.721 -2.9523  0.4369 -0.6396
  127MOL    H2048152   3.999   2.412   5.586  0.1872  0.2618  1.9425
  127MOL    C2148153   4.257   2.168   5.549 -0.2783 -0.8267  0.4046
  127MOL    C2248154   4.389   2.185   5.493  0.1789  0.0589  0.3634
  127MOL    O2348155   4.329   2.052   5.502  0.5416 -0.0366 -0.3723
  127MOL    C2448156   4.512   2.202   5.571 -0.2969 -0.6411  0.0293
  127MOL    O2548157   4.588   2.311   5.516 -0.1647 -0.3427 -0.1117
  127MOL    C2648158   4.657   2.285   5.403 -0.0905 -0.1722 -0.2137
  127MOL    C2748159   4.668   2.157   5.338  0.1748  0.4072 -0.2719
  127MOL    C2848160   4.738   2.136   5.217  0.3119  0.3375 -0.0035
  127MOL    C2948161   4.783   2.252   5.154 -0.4652  0.0289 -0.3429
  127MOL    C3048162   4.773   2.384   5.212  0.8952  0.0287 -0.2337
  127MOL    C3148163   4.712   2.394   5.339  0.3849 -1.3827 -0.2101
  127MOL    H3248164   4.173   2.206   5.491 -0.5385  3.1610  3.2301
  127MOL    H3348165   4.407   2.213   5.389  0.9370 -0.2693  0.4045
  127MOL    H3448166   4.568   2.108   5.570 -0.9373 -1.0160 -0.4460
  127MOL    H3548167   4.490   2.219   5.676 -0.8932 -0.9122 -0.0493
  127MOL    H3648168   4.633   2.066   5.383  3.2688 -1.2505 -1.1070
  127MOL    H3748169   4.766   2.040   5.176  1.1639  0.1248  1.0227
  127MOL    H3848170   4.836   2.232   5.063  0.9500 -1.7601  0.8321
  127MOL    H3948171   4.812   2.478   5.173 -0.9060  1.0719  0.4305
  127MOL    C4048172   4.685   2.534   5.391  0.1678 -0.3532 -0.3954
  127MOL    C4148173   4.790   2.617   5.469 -0.4043 -0.4859  0.2849
  127MOL    O4248174   4.767   2.634   5.327 -0.0063  0.0319  0.2514
  127MOL    C4348175   4.919   2.559   5.512 -0.2961  0.5516  0.3315
  127MOL    O4448176   4.994   2.648   5.598 -0.2516  0.3061  0.0910
  127MOL    C4548177   5.058   2.760   5.550 -1.6449  0.0160  0.3414
  127MOL    C4648178   5.049   2.816   5.418 -0.2349 -0.3328 -0.2911
  127MOL    C4748179   5.134   2.915   5.371  1.0437  0.2270 -0.3691
  127MOL    C4848180   5.221   2.973   5.460 -0.3914 -0.0993  0.2412
  127MOL    C4948181   5.234   2.921   5.589 -0.0706 -0.4181 -0.7483
  127MOL    C5048182   5.151   2.816   5.634 -0.6325 -0.6283  0.4773
  127MOL    H5148183   4.582   2.563   5.411  0.4247 -1.9306  3.8918
  127MOL    H5248184   4.745   2.690   5.536 -3.6786 -1.1314 -1.0984
  127MOL    H5348185   4.972   2.546   5.417 -1.4359  1.1784 -0.3965
  127MOL    H5448186   4.908   2.465   5.565  0.9465  0.0047 -0.3485
  127MOL    H5548187   4.975   2.783   5.347  0.2404 -0.0491 -0.9267
  127MOL    H5648188   5.115   2.944   5.269  0.9254 -0.6373 -0.5973
  127MOL    H5748189   5.297   3.045   5.432 -1.4617  0.1958 -2.0706
  127MOL    H5848190   5.314   2.947   5.657 -2.4375 -0.8042  2.2865
  127MOL    C5948191   5.179   2.754   5.776  0.2593 -0.8773 -0.6979
  127MOL    C6048192   5.296   2.659   5.801 -0.2968  0.6794 -0.0503
  127MOL    O6148193   5.298   2.797   5.844 -1.0337  0.8988 -0.2752
  127MOL    C6248194   5.407   2.635   5.711  0.1789  0.5518 -0.1436
  127MOL    O6348195   5.497   2.547   5.773  0.3732 -0.2447  0.3176
  127MOL    C6448196   5.474   2.412   5.791 -0.1682 -1.0157 -0.1940
  127MOL    C6548197   5.370   2.345   5.725  0.0317 -0.2601 -0.5298
  127MOL    C6648198   5.345   2.211   5.758  0.2130 -0.7940  0.2794
  127MOL    C6748199   5.417   2.145   5.855 -0.1071  0.2472  0.6405
  127MOL    C6848200   5.531   2.203   5.916 -0.6098 -0.7809 -0.3927
  127MOL    C6948201   5.554   2.340   5.884  0.1657  0.8246  0.1683
  127MOL    H7048202   5.092   2.753   5.841  1.7256 -1.1714  1.3263
  127MOL    H7148203   5.293   2.588   5.884  0.4846  1.2819  0.4924
  127MOL    H7248204   5.438   2.730   5.669  1.0762  0.0388 -0.6639
  127MOL    H7348205   5.356   2.591   5.624 -0.0212  2.0760 -0.8074
  127MOL    H7448206   5.304   2.392   5.654 -1.8000  1.0698  1.9513
  127MOL    H7548207   5.259   2.162   5.714 -0.2533 -0.6916  1.0729
  127MOL    H7648208   5.396   2.043   5.882 -1.9810  0.5751  0.4923
  127MOL    H7748209   5.601   2.157   5.984 -1.8371  1.2002  2.2750
  127MOL    C7848210   5.663   2.418   5.952  0.2911  0.0904 -0.3011
  127MOL    C7948211   5.638   2.507   6.070 -0.6393 -0.0098  0.3775
  127MOL    O8048212   5.688   2.370   6.083  0.4094  0.3085 -0.0544
  127MOL    C8148213   5.507   2.535   6.137  0.9942  0.6726  0.5287
  127MOL    O8248214   5.534   2.576   6.274  0.0984 -0.3573 -0.2943
  127MOL    C8348215   5.425   2.604   6.354  0.6468 -0.4479  1.0475
  127MOL    C8448216   5.292   2.637   6.296  0.1865 -0.1989 -0.7022
  127MOL    C8548217   5.183   2.654   6.387  0.1470 -0.4645 -0.2892
  127MOL    C8648218   5.205   2.641   6.523 -0.2604 -0.1633 -0.2462
  127MOL    C8748219   5.334   2.627   6.580  0.9341  0.9193 -0.0553
  127MOL    C8848220   5.445   2.599   6.495  0.3602 -0.2106  0.3194
  127MOL    H8948221   5.755   2.416   5.894  0.8652 -0.2294  0.6047
  127MOL    H9048222   5.717   2.582   6.079  1.3912 -2.1706  1.0673
  127MOL    H9148223   5.442   2.447   6.136 -0.8843  2.0185  1.8023
  127MOL    H9248224   5.469   2.618   6.078  0.8988 -0.1209 -0.5428
  127MOL    H9348225   5.269   2.632   6.191  1.6077 -0.4310 -1.0102
  127MOL    H9448226   5.081   2.678   6.359 -0.0353 -0.0638  0.6920
  127MOL    H9548227   5.110   2.647   6.574 -1.0684  0.1576 -1.7606
  127MOL    H9648228   5.345   2.621   6.687  3.2925 -0.1907 -0.3430
  127MOL    C9748229   5.582   2.561   6.546  0.2652 -0.7533 -0.0312
  127MOL    C9848230   5.682   2.658   6.585  0.6845  0.0446 -0.3558
  127MOL    O9948231   5.589   2.595   6.685  0.2919  0.1018 -0.0896
  127MOL   C10048232   5.660   2.806   6.566 -0.8244 -0.0530  0.5263
  127MOL   O10148233   5.607   2.838   6.435  0.5022 -0.0350  0.3077
  127MOL   C10248234   5.689   2.905   6.342 -0.5490 -0.2758  0.5025
  127MOL   C10348235   5.833   2.902   6.347  0.0105  0.2305  0.7519
  127MOL   C10448236   5.911   2.981   6.259  0.2376  0.8261  0.1736
  127MOL   C10548237   5.853   3.048   6.151  0.4237  0.7617 -0.5094
  127MOL   C10648238   5.712   3.049   6.142 -0.7139 -1.0207 -0.0720
  127MOL   C10748239   5.634   2.982   6.241  0.0586 -0.0133  0.0527
  127MOL   H10848240   5.604   2.457   6.524  0.6736 -1.2039  2.3083
  127MOL   H10948241   5.785   2.623   6.579  1.2657  1.1764  2.2005
  127MOL   H11048242   5.747   2.868   6.585 -0.5715 -0.0457 -0.6143
  127MOL   H11148243   5.589   2.836   6.644 -0.2805  0.4096  0.8503
  127MOL   H11248244   5.876   2.832   6.417  0.2261  1.3226  1.7093
  127MOL   H11348245   6.019   2.983   6.267  0.5023 -3.5076 -0.7675
  127MOL   H11448246   5.923   3.096   6.085 -0.6912  2.1707 -0.6844
  127MOL   H11548247   5.672   3.108   6.061  0.5551 -0.9147 -0.6338
  127MOL   C11648248   5.485   2.981   6.221 -0.0278  0.6584 -0.2191
  127MOL   C11748249   5.384   3.039   6.316  0.4807 -0.7510  0.3400
  127MOL   O11848250   5.433   3.104   6.195  0.7528  0.0889  0.0244
  127MOL   C11948251   5.423   3.103   6.443 -1.0087  0.2994  0.5045
  127MOL   O12048252   5.333   3.194   6.496  0.1410 -0.4559 -0.4776
  127MOL   C12148253   5.235   3.153   6.578  1.1671 -0.6134  0.1904
  127MOL   C12248254   5.218   3.014   6.605 -0.0876  0.4150  0.1802
  127MOL   C12348255   5.113   2.976   6.686  0.4140  0.1280 -0.5238
  127MOL   C12448256   5.026   3.075   6.750  0.1984  0.0730 -0.6957
  127MOL   C12548257   5.058   3.212   6.736  0.1845 -0.1597 -0.4534
  127MOL   C12648258   5.159   3.249   6.639 -0.4848 -0.1297  0.2522
  127MOL   H12748259   5.449   2.903   6.154 -0.1267 -0.6076  1.2819
  127MOL   H12848260   5.289   2.987   6.308 -0.3710  0.5526  1.9252
  127MOL   H12948261   5.513   3.162   6.427  0.1924 -1.5185  0.4622
  127MOL   H13048262   5.457   3.019   6.504  0.9730  0.1090 -0.8283
  127MOL   H13148263   5.272   2.934   6.556 -2.2875 -0.6150 -0.6591
  127MOL   H13248264   5.081   2.874   6.698  0.4332  0.0335 -1.2240
  127MOL   H13348265   4.950   3.035   6.816  0.4540 -0.5066 -0.7501
  127MOL   H13448266   5.003   3.285   6.793 -2.5617  0.1547 -3.3110
  127MOL   C13548267   5.200   3.392   6.618 -0.5799  0.6741  0.6773
  127MOL   C13648268   5.145   3.478   6.505 -0.0077 -0.6266  0.4090
  127MOL   O13748269   5.097   3.490   6.641  0.2535 -0.3325 -0.2503
  127MOL   C13848270   5.044   3.437   6.413  0.0236 -0.0852 -0.0801
  127MOL   O13948271   4.999   3.553   6.338 -0.3335  0.1439 -0.0360
  127MOL   C14048272   4.982   3.555   6.204 -0.2616 -0.7019  0.1009
  127MOL   C14148273   5.010   3.449   6.115 -0.6312  0.0835  0.1544
  127MOL   C14248274   4.984   3.455   5.977 -0.2041 -0.4629 -0.0935
  127MOL   C14348275   4.927   3.576   5.931  0.3842 -0.3191 -0.1326
  127MOL   C14448276   4.901   3.690   6.013  0.4663  0.3389 -0.2366
  127MOL   C14548277   4.944   3.679   6.151 -0.2415 -0.0622 -0.0134
  127MOL   H14648278   5.296   3.409   6.666 -1.1827 -0.5950  2.3935
  127MOL   H14748279   5.208   3.562   6.478 -0.6263 -0.1122  0.5587
  127MOL   H14848280   4.963   3.391   6.470  1.1734 -2.0834 -0.0094
  127MOL   H14948281   5.090   3.363   6.347 -1.1336  1.0217 -2.1780
  127MOL   H15048282   5.034   3.349   6.148 -2.8851  0.0422  1.7917
  127MOL   H15148283   5.002   3.367   5.917  0.2225 -0.3999 -0.0554
  127MOL   H15248284   4.884   3.587   5.832  1.4043 -0.1548 -0.5649
  127MOL   H15348285   4.866   3.778   5.961  1.9650  1.1023  0.0045
  127MOL   C15448286   4.919   3.792   6.243 -0.2897 -0.2518 -0.0879
  127MOL   C15548287   5.017   3.902   6.267  0.6070  0.2359 -0.1661
  127MOL   O15648288   4.899   3.926   6.179 -0.3291  0.0481 -0.2225
  127MOL   C15748289   5.148   3.894   6.194 -0.2738 -0.0323 -0.6534
  127MOL   O15848290   5.206   4.022   6.188 -0.5269  0.2438 -0.4000
  127MOL   C15948291   5.149   4.125   6.114 -0.2782 -0.5576  0.1717
  127MOL   C16048292   5.072   4.102   6.000 -0.2606  0.4611  0.3283
  127MOL   C16148293   5.022   4.208   5.913 -0.1078  0.5367  0.1078
  127MOL   C16248294   5.040   4.340   5.956 -0.2704  0.6195  0.5818
  127MOL   C16348295   5.125   4.359   6.069  0.7132 -0.5953 -0.0249
  127MOL   C16448296   5.177   4.256   6.150 -0.2996 -0.7364 -0.1540
  127MOL   H16548297   4.844   3.765   6.317 -1.2093 -1.1682 -1.3234
  127MOL   H16648298   5.009   3.946   6.366  2.5584  0.8422 -0.2505
  127MOL   H16748299   5.126   3.856   6.094  2.0289 -0.2440 -1.1312
  127MOL   H16848300   5.221   3.831   6.244  0.1583 -0.5863 -1.9495
  127MOL   H16948301   5.055   4.000   5.970 -0.7680  0.1156  1.7360
  127MOL   H17048302   4.977   4.178   5.820 -2.3600  0.3400  1.2251
  127MOL   H17148303   5.006   4.422   5.893  0.4276 -1.3720 -2.4810
  127MOL   H17248304   5.136   4.461   6.105  0.8214 -0.4653 -0.4236
  127MOL   C17348305   5.259   4.281   6.271  0.8052  0.3591  0.3943
  127MOL   C17448306   5.407   4.247   6.277 -0.0369  0.1044 -0.3775
  127MOL   O17548307   5.353   4.380   6.258  1.0127 -0.0656  0.0145
  127MOL   C17648308   5.491   4.192   6.162 -0.4116 -0.5798  0.1417
  127MOL   O17748309   5.623   4.252   6.175  0.1551  0.6211  0.1558
  127MOL   C17848310   5.701   4.261   6.064  0.6470 -0.1276  0.0917
  127MOL   C17948311   5.662   4.207   5.942 -0.1394 -0.3960  0.4861
  127MOL   C18048312   5.749   4.213   5.829 -0.0294 -0.4750 -0.1716
  127MOL   C18148313   5.868   4.283   5.845  0.4836  0.5429 -0.4764
  127MOL   C18248314   5.909   4.337   5.965  0.1932 -0.1011  0.0179
  127MOL   C18348315   5.831   4.326   6.083 -0.1726 -0.1363 -0.1173
  127MOL   H18448316   5.201   4.278   6.362 -2.0428 -2.0314 -1.3937
  127MOL   H18548317   5.436   4.212   6.376  2.5428  0.5339 -0.9589
  127MOL   H18648318   5.441   4.231   6.073  0.7465  0.7700  0.0622
  127MOL   H18748319   5.502   4.084   6.174  2.6227 -0.1611  1.6383
  127MOL   H18848320   5.577   4.144   5.922 -0.5392  0.0210  0.8534
  127MOL   H18948321   5.713   4.160   5.743 -0.8914  0.0764 -0.1609
  127MOL   H19048322   5.930   4.284   5.757  0.7494 -0.7913 -0.3236
  127MOL   H19148323   6.007   4.383   5.972  0.5954 -0.8219 -0.7014
  127MOL   C19248324   5.876   4.386   6.211 -0.0884  0.5547  0.2617
  127MOL   C19348325   5.921   4.290   6.322 -0.3995  0.2913  0.2081
  127MOL   O19448326   6.010   4.358   6.236 -0.0491  0.1406 -0.2847
  127MOL   C19548327   5.921   4.143   6.309  0.4899 -0.7055  0.6263
  127MOL   O19648328   6.015   4.096   6.395 -0.0516 -0.1962  0.6445
  127MOL   C19748329   6.011   3.965   6.402 -0.5573 -0.5260 -0.3002
  127MOL   C19848330   5.999   3.877   6.292 -0.5442  0.5716 -0.0635
  127MOL   C19948331   5.988   3.738   6.312 -0.4411 -0.8410 -0.1255
  127MOL   C20048332   5.993   3.678   6.438  1.0073  0.1349 -0.6155
  127MOL   C20148333   6.011   3.769   6.545 -0.5846  0.2513  0.2219
  127MOL   C20248334   6.030   3.906   6.530  0.6766 -0.5761 -0.0573
  127MOL   H20348335   5.848   4.490   6.224  0.2951  0.5653  1.0492
  127MOL   H20448336   5.915   4.320   6.426  1.9638  0.0173  0.4615
  127MOL   H20548337   5.949   4.125   6.205 -1.0507 -1.2068  0.2920
  127MOL   H20648338   5.820   4.102   6.315  1.0791 -2.2259  0.3644
  127MOL   H20748339   6.004   3.898   6.187 -1.4531 -0.2972 -0.2900
  127MOL   H20848340   5.979   3.681   6.221  0.9428  0.5373 -1.1372
  127MOL   H20948341   5.971   3.576   6.464 -1.9778  1.2547  1.6240
  127MOL   H21048342   6.015   3.714   6.638 -1.7767  0.6148  0.4973
  127MOL   C21148343   6.067   3.993   6.646 -0.1947 -0.3029  0.0581
  127MOL   C21248344   5.960   4.059   6.736  0.1046  1.0587  0.4535
  127MOL   O21348345   6.036   3.937   6.775  0.9223  0.4717  0.0154
  127MOL   C21448346   5.808   4.032   6.732  0.4798 -0.4106  0.4510
  127MOL   O21548347   5.728   4.111   6.820 -0.0146 -0.3709 -0.1004
  127MOL   C21648348   5.738   4.247   6.811 -1.0102  0.7871  0.1809
  127MOL   C21748349   5.743   4.314   6.683  0.0724 -0.2853  0.7067
  127MOL   C21848350   5.770   4.454   6.676 -1.1788 -0.0369  0.2709
  127MOL   C21948351   5.789   4.523   6.793 -1.1445  0.6625  0.7205
  127MOL   C22048352   5.784   4.462   6.916  0.4838  0.1401 -0.0398
  127MOL   C22148353   5.758   4.321   6.930 -0.0958 -0.5615  0.6863
  127MOL   H22248354   6.169   4.031   6.648 -0.1284 -0.5087  1.7414
  127MOL   H22348355   5.996   4.139   6.800  2.1321  0.7239 -0.2237
  127MOL   H22448356   5.792   3.928   6.760  0.2432 -0.1426  1.3297
  127MOL   H22548357   5.773   4.031   6.629 -1.3813  1.1803  1.0308
  127MOL   H22648358   5.728   4.251   6.596 -1.2908  1.5721 -0.4239
  127MOL   H22748359   5.752   4.505   6.583 -1.3736  0.5654  0.6341
  127MOL   H22848360   5.802   4.630   6.798 -0.5997  0.5757  1.1614
  127MOL   H22948361   5.791   4.518   7.009 -0.0000 -1.7837  1.1945
  127MOL   C23048362   5.747   4.259   7.067  0.2562  0.6234  0.1243
  127MOL   C23148363   5.852   4.193   7.150  0.6250 -0.5096 -0.6727
  127MOL   O23248364   5.801   4.327   7.172  0.0494 -0.5480  0.0291
  127MOL   C23348365   5.988   4.171   7.091  0.1166 -0.4640  0.5875
  127MOL   O23448366   6.101   4.144   7.179 -0.0852 -0.2183  0.5245
  127MOL   C23548367   6.097   4.213   7.295 -0.5838 -0.3677  0.0824
  127MOL   C23648368   6.059   4.352   7.302 -0.1197  0.7758 -0.9699
  127MOL   C23748369   6.050   4.419   7.428  0.4172  0.1387 -0.6084
  127MOL   C23848370   6.098   4.350   7.544  0.0630 -0.0731  0.7810
  127MOL   C23948371   6.143   4.217   7.534 -0.3456  0.3154 -0.2166
  127MOL   C24048372   6.151   4.152   7.409 -0.4854 -0.1734 -0.0297
  127MOL   H24148373   5.642   4.235   7.081  0.0205  1.2555 -0.5107
  127MOL   H24248374   5.826   4.124   7.231  0.5475  2.4890  1.9421
  127MOL   H24348375   6.022   4.248   7.021  1.7785 -1.3429  0.3881
  127MOL   H24448376   5.970   4.096   7.014  2.2570 -0.1591 -0.2490
  127MOL   H24548377   6.029   4.394   7.207  1.5882 -0.5789 -2.1382
  127MOL   H24648378   6.007   4.518   7.426 -2.1118 -0.8883 -0.0086
  127MOL   H24748379   6.090   4.393   7.642  0.2530 -0.5438  1.0066
  127MOL   H24848380   6.168   4.164   7.625 -2.4391  0.6298  0.5670
  127MOL   C24948381   6.191   4.008   7.403  0.0108  0.8528  0.5128
  127MOL   C25048382   6.331   3.962   7.427 -0.0689 -0.1477  0.0576
  127MOL   O25148383   6.225   3.944   7.524 -0.2306  0.2524  0.2269
  127MOL   C25248384   6.450   4.050   7.462 -0.3965 -0.2516  0.3082
  127MOL   O25348385   6.560   3.963   7.464 -0.3358 -0.0748 -0.1258
  127MOL   C25448386   6.681   4.019   7.472 -0.1153  0.2407 -0.3598
  127MOL   C25548387   6.706   4.155   7.484 -0.6640  0.3423  0.7974
  127MOL   C25648388   6.840   4.207   7.498  0.2215  0.1353  0.3008
  127MOL   C25748389   6.953   4.123   7.517  0.0626 -0.2322  0.3765
  127MOL   C25848390   6.925   3.984   7.500 -0.7056  0.0088  0.1894
  127MOL   C25948391   6.795   3.933   7.470 -0.1078 -0.2913  0.0121
  127MOL   H26048392   6.127   3.949   7.337  1.7415 -1.6141  0.9668
  127MOL   H26148393   6.356   3.874   7.369 -1.3499 -1.3228  1.2523
  127MOL   H26248394   6.436   4.089   7.563 -1.6088  0.7599 -0.2340
  127MOL   H26348395   6.455   4.119   7.378 -4.0975  0.0735  0.2724
  127MOL   H26448396   6.629   4.231   7.478  0.3229  1.3651  0.7936
  127MOL   H26548397   6.850   4.314   7.503 -0.2956  0.2621 -1.1330
  127MOL   H26648398   7.052   4.161   7.538 -0.1865  2.0620 -2.2915
  127MOL   H26748399   7.000   3.907   7.511 -0.6650 -0.1034 -0.7884
  127MOL   C26848400   6.771   3.783   7.458  0.6571  0.4802 -0.0838
  127MOL   C26948401   6.761   3.714   7.327  0.1623 -0.8714  0.1727
  127MOL   O27048402   6.885   3.732   7.397 -0.7216 -0.1732 -0.6426
  127MOL   C27148403   6.751   3.780   7.185 -0.2994 -0.0949  0.4098
  127MOL   O27248404   6.644   3.715   7.111 -0.4566  0.2655  0.1709
  127MOL   C27348405   6.537   3.786   7.055 -0.3404  0.2840  0.5741
  127MOL   C27448406   6.486   3.910   7.109  0.2800  0.1083 -0.2557
  127MOL   C27548407   6.375   3.984   7.060  0.0018 -0.1203  0.2143
  127MOL   C27648408   6.305   3.925   6.950  0.1579 -0.2332 -0.9493
  127MOL   C27748409   6.352   3.803   6.897  0.0139  0.5287  0.4522
  127MOL   C27848410   6.458   3.729   6.954 -0.3704  0.0757 -0.3680
  127MOL   H27948411   6.754   3.727   7.549 -2.3365 -1.7070 -1.8958
  127MOL   H28048412   6.712   3.617   7.320 -1.2806 -0.2457  1.3235
  127MOL   H28148413   6.848   3.767   7.137  0.3200  0.3748  1.5128
  127MOL   H28248414   6.743   3.887   7.203  0.3638 -0.0483  0.4325
  127MOL   H28348415   6.532   3.951   7.198  1.2180 -1.1373 -0.1593
  127MOL   H28448416   6.360   4.085   7.096 -0.0572  0.9080 -2.5667
  127MOL   H28548417   6.224   3.982   6.908 -1.5344 -2.1214 -0.2814
  127MOL   H28648418   6.300   3.773   6.807  1.6577  1.6450 -0.8935
  127MOL   C28748419   6.493   3.596   6.902 -0.0759  0.0110 -1.0132
  127MOL   C28848420   6.428   3.468   6.943 -0.3323  0.6102 -0.1467
  127MOL   O28948421   6.388   3.537   6.822  1.0346  0.1629 -0.1565
  127MOL   C29048422   6.304   3.462   7.040 -0.0545  0.1640 -0.3534
  127MOL   O29148423   6.303   3.349   7.124  0.1194  0.4782 -0.1617
  127MOL   C29248424   6.370   3.356   7.245  0.4904  0.3067 -0.0676
  127MOL   C29348425   6.463   3.459   7.276 -0.6292  0.1174 -0.5158
  127MOL   C29448426   6.500   3.478   7.413  0.0931 -0.8479  0.1039
  127MOL   C29548427   6.460   3.389   7.515  0.1028  0.1549  0.1167
  127MOL   C29648428   6.385   3.277   7.475 -0.1125 -0.1956 -0.2366
  127MOL   C29748429   6.343   3.256   7.343  0.5344 -0.5179 -0.0803
  127MOL   H29848430   6.597   3.587   6.869  0.3275  1.6227 -0.2255
  127MOL   H29948431   6.487   3.378   6.931  0.0499  0.9411 -0.7754
  127MOL   H30048432   6.210   3.456   6.985 -0.5642 -5.0582  0.8563
  127MOL   H30148433   6.290   3.555   7.095  0.2855  0.1974 -0.3231
  127MOL   H30248434   6.484   3.525   7.194  0.3135 -1.2000 -1.3572
  127MOL   H30348435   6.553   3.568   7.438 -0.0571 -0.6781 -0.1866
  127MOL   H30448436   6.501   3.385   7.614  2.0381 -0.8745 -0.6875
  127MOL   H30548437   6.362   3.202   7.548 -0.4903 -0.8756 -1.0421
  127MOL   C30648438   6.259   3.135   7.307  0.1896  0.3451 -0.3437
  127MOL   C30748439   6.308   3.021   7.221 -0.4006 -0.5676  0.4799
  127MOL   O30848440   6.313   3.010   7.367 -0.4659 -0.5197 -0.3006
  127MOL   C30948441   6.430   3.031   7.136 -0.3045 -0.6055 -0.4896
  127MOL   O31048442   6.467   2.910   7.071  0.1704 -0.0188 -0.2092
  127MOL   C31148443   6.540   2.821   7.146 -0.2803  0.3493  0.5783
  127MOL   C31248444   6.641   2.866   7.236 -0.3799 -0.2057 -0.4883
  127MOL   C31348445   6.725   2.773   7.304  0.6073  0.1049 -0.5649
  127MOL   C31448446   6.698   2.635   7.290 -0.0919 -0.3994 -0.1684
  127MOL   C31548447   6.595   2.593   7.212  0.5170  0.6616  0.5940
  127MOL   C31648448   6.513   2.681   7.140 -0.3165  0.1889 -0.0290
  127MOL   H31748449   6.151   3.147   7.316  0.3590  1.2531  0.6042
  127MOL   H31848450   6.228   2.961   7.178  1.3447 -2.2556 -0.4999
  127MOL   H31948451   6.519   3.072   7.184  0.0311  2.1217 -3.2987
  127MOL   H32048452   6.424   3.101   7.052  0.4968  1.2285  0.9546
  127MOL   H32148453   6.673   2.965   7.263  0.0807 -0.4691 -0.0543
  127MOL   H32248454   6.807   2.803   7.368 -0.2104 -0.1365  0.6010
  127MOL   H32348455   6.757   2.558   7.337  1.8600  0.2617 -1.5141
  127MOL   H32448456   6.564   2.490   7.198 -2.9684  1.5711  1.1209
  127MOL   C32548457   6.390   2.628   7.070 -0.3312 -0.4651  0.3258
  127MOL   C32648458   6.277   2.547   7.140 -0.4517 -0.0063 -0.8679
  127MOL   O32748459   6.268   2.687   7.117 -0.2012  0.4300  0.0597
  127MOL   C32848460   6.310   2.498   7.279  0.2997 -0.6705  0.5829
  127MOL   O32948461   6.190   2.436   7.324 -0.0028  0.0178 -0.7646
  127MOL   C33048462   6.193   2.374   7.447  0.1727 -0.4284 -0.7690
  127MOL   C33148463   6.306   2.390   7.530 -0.1589  0.4085  0.3945
  127MOL   C33248464   6.310   2.335   7.662  0.7900 -0.4827 -0.0385
  127MOL   C33348465   6.198   2.273   7.711  0.4881  0.6514 -0.2556
  127MOL   C33448466   6.085   2.252   7.629  0.8831  0.1362  0.0082
  127MOL   C33548467   6.080   2.302   7.497  0.9575 -0.9815 -0.3881
  127MOL   H33648468   6.400   2.645   6.963 -0.2130 -2.1020  0.0647
  127MOL   H33748469   6.208   2.486   7.082 -0.8277  0.5562 -1.0111
  127MOL   H33848470   6.355   2.579   7.336 -1.1033  0.4431  0.1339
  127MOL   H33948471   6.381   2.415   7.271 -0.7195 -1.5163  0.2276
  127MOL   H34048472   6.396   2.442   7.502  2.4455 -2.8996  2.4013
  127MOL   H34148473   6.390   2.369   7.728  2.0482 -1.1833 -1.1774
  127MOL   H34248474   6.192   2.237   7.812 -1.3848 -0.9404 -0.9030
  127MOL   H34348475   6.005   2.197   7.675  0.1784 -0.7322 -2.1966
  127MOL   C34448476   5.966   2.246   7.417  0.0284  0.0667  0.0946
  127MOL   C34548477   5.965   2.124   7.321 -1.3977  0.1357  0.1408
  127MOL   O34648478   5.930   2.110   7.461  0.0142 -0.2546  0.0468
  127MOL   C34748479   6.086   2.058   7.278  0.4495 -0.5926  0.2571
  127MOL   O34848480   6.058   1.945   7.193 -0.0480 -0.1856 -0.6406
  127MOL   C34948481   5.990   1.836   7.237 -0.4948  0.3433  0.6950
  127MOL   C35048482   6.018   1.779   7.363 -0.1944  0.1504 -0.1985
  127MOL   C35148483   5.947   1.660   7.402 -0.4634 -0.2411  0.4105
  127MOL   C35248484   5.854   1.600   7.309 -0.3276 -0.1937 -0.0769
  127MOL   C35348485   5.827   1.654   7.183  0.8266 -0.2102  0.3395
  127MOL   C35448486   5.899   1.774   7.147  0.8686  0.6598 -0.2479
  127MOL   H35548487   5.887   2.317   7.393  0.4992  0.6406  0.2394
  127MOL   H35648488   5.878   2.118   7.254 -1.3675 -0.0250  0.1170
  127MOL   H35748489   6.153   2.031   7.359 -1.0405 -0.3016  1.5925
  127MOL   H35848490   6.136   2.124   7.207  1.3228 -1.3447  0.1639
  127MOL   H35948491   6.083   1.832   7.430  0.6861  1.0350 -1.7265
  127MOL   H36048492   5.966   1.624   7.502 -0.2731  0.7561  0.7386
  127MOL   H36148493   5.800   1.515   7.348  0.1957 -1.1425 -1.4067
  127MOL   H36248494   5.755   1.608   7.117  0.6760 -0.5952  0.7717
  127MOL   C36348495   5.886   1.855   7.019  1.3786 -0.3241 -0.6222
  127MOL   C36448496   5.946   1.820   6.889 -0.5344 -0.5387 -0.4077
  127MOL   O36548497   5.807   1.794   6.915 -0.4843 -0.5680  0.1522
  127MOL   C36648498   6.021   1.688   6.853 -0.2461  0.0247  0.2450
  127MOL   O36748499   5.988   1.658   6.719  0.4003 -0.6342 -0.2980
  127MOL   C36848500   6.022   1.536   6.655  0.4137 -0.0347 -0.4548
  127MOL   C36948501   6.104   1.432   6.719 -0.7121  0.1356 -0.4080
  127MOL   C37048502   6.129   1.313   6.648 -0.6744  0.3383  0.7577
  127MOL   C37148503   6.070   1.296   6.520  0.2714  0.6983  0.0874
  127MOL   C37248504   5.994   1.401   6.457  0.0378  0.1116  0.5288
  127MOL   C37348505   5.976   1.525   6.525 -0.7174  0.1028 -0.4060
  127MOL   H37448506   5.868   1.961   7.038  1.4386 -0.1480 -1.5201
  127MOL   H37548507   5.967   1.907   6.827 -1.6171  1.0785  1.4294
  127MOL   H37648508   5.979   1.609   6.914  0.5819 -1.0412 -0.5500
  127MOL   H37748509   6.130   1.701   6.851 -0.2229  0.1976  1.6479
  127MOL   H37848510   6.141   1.439   6.820  0.0900  0.5279 -0.7261
  127MOL   H37948511   6.183   1.233   6.695 -1.3647 -0.1509  0.7284
  127MOL   H38048512   6.079   1.203   6.466  3.1139  1.4506 -0.8603
  127MOL   H38148513   5.953   1.382   6.359 -0.3452 -0.0910  0.7278
  127MOL   H38248514   5.914   1.600   6.478 -2.0124 -1.4004 -1.0960
  128MOL     C148515   7.140   6.399   4.210  0.0806  0.4591  0.2894
  128MOL     C248516   7.092   6.461   4.082 -0.1948 -0.2177  0.2695
  128MOL     O348517   7.001   6.441   4.185  0.1256 -0.1488 -0.3874
  128MOL     C448518   7.051   6.373   3.966  0.3195  0.3854 -0.6963
  128MOL     O548519   6.985   6.449   3.866  0.1506  0.1548  0.6623
  128MOL     C648520   7.059   6.549   3.799 -0.6766  0.1629 -0.1036
  128MOL     C748521   7.196   6.533   3.769  0.3761  0.2819 -0.6479
  128MOL     C848522   7.253   6.640   3.706 -0.4989 -0.3010  0.6073
  128MOL     C948523   7.184   6.759   3.679 -0.4893  0.0565 -0.5712
  128MOL    C1048524   7.049   6.776   3.711 -0.0952  0.5533  0.1859
  128MOL    C1148525   6.987   6.667   3.766 -0.0802  0.5765  0.2068
  128MOL    H1248526   7.197   6.458   4.281  1.7620  2.2543 -2.4349
  128MOL    H1348527   7.110   6.566   4.058 -1.4383  0.0333  0.4327
  128MOL    H1448528   6.984   6.296   4.003  4.2713 -2.4485  0.9292
  128MOL    H1548529   7.135   6.314   3.929  0.7251  0.4446  0.1144
  128MOL    H1648530   7.260   6.449   3.791 -1.5557 -1.3978 -1.3129
  128MOL    H1748531   7.355   6.627   3.673 -0.6497 -1.4410  0.5632
  128MOL    H1848532   7.239   6.844   3.641 -1.5322  0.7588 -0.5222
  128MOL    H1948533   7.002   6.872   3.694  1.8197  1.6403  0.8963
  128MOL    H2048534   7.152   6.291   4.211  3.0974  0.7555 -0.4987
  128MOL    C2148535   6.835   6.683   3.803 -0.0738 -0.0895 -0.6023
  128MOL    C2248536   6.797   6.730   3.939 -0.5316 -0.0026  1.1401
  128MOL    O2348537   6.795   6.820   3.828  0.6195 -0.7105 -0.4448
  128MOL    C2448538   6.900   6.764   4.049  0.4038  0.0335 -1.0998
  128MOL    O2548539   6.845   6.840   4.155 -0.0131 -0.0791 -0.5740
  128MOL    C2648540   6.928   6.879   4.256 -0.0739  0.1814  0.4390
  128MOL    C2748541   7.061   6.836   4.271  0.4387  0.2291 -0.6292
  128MOL    C2848542   7.136   6.878   4.387  0.0761  0.5535  0.1206
  128MOL    C2948543   7.087   6.968   4.480  0.0359 -1.0583 -0.1761
  128MOL    C3048544   6.958   7.020   4.460  0.0255  0.5486 -0.0830
  128MOL    C3148545   6.876   6.969   4.351 -0.5405  0.1426 -0.0841
  128MOL    H3248546   6.765   6.626   3.742 -0.1933 -2.4905  1.6717
  128MOL    H3348547   6.697   6.703   3.973 -1.2181 -0.9902 -1.4794
  128MOL    H3448548   6.982   6.814   3.997  0.6189  1.3520  0.4469
  128MOL    H3548549   6.920   6.669   4.097  0.8410 -0.5806 -2.4679
  128MOL    H3648550   7.098   6.758   4.207 -0.0774 -1.0279  0.5789
  128MOL    H3748551   7.230   6.828   4.404 -0.7438 -0.5617  1.4941
  128MOL    H3848552   7.138   7.001   4.570  0.0822 -0.6442 -0.3537
  128MOL    H3948553   6.908   7.081   4.533 -0.6222 -0.4551  0.3100
  128MOL    C4048554   6.735   7.016   4.339  0.4372  0.8990  0.0301
  128MOL    C4148555   6.622   6.928   4.388  0.0897 -0.4628  0.0028
  128MOL    O4248556   6.681   7.027   4.469  0.4191  0.9603 -0.1318
  128MOL    C4348557   6.644   6.785   4.444  0.2502 -1.3194  0.6314
  128MOL    O4448558   6.522   6.717   4.451 -0.5439 -0.3730  0.0873
  128MOL    C4548559   6.455   6.717   4.571  0.6480  0.0934  0.5558
  128MOL    C4648560   6.491   6.799   4.682 -0.3217  0.8993 -0.6206
  128MOL    C4748561   6.421   6.781   4.806  0.2572 -0.6164 -0.6703
  128MOL    C4848562   6.317   6.694   4.820 -0.4198 -0.9068 -0.4674
  128MOL    C4948563   6.275   6.618   4.705 -0.3358 -0.2875 -0.1712
  128MOL    C5048564   6.350   6.625   4.578  0.1727  0.1564  0.1700
  128MOL    H5148565   6.709   7.094   4.268  0.6130  0.0906 -0.9228
  128MOL    H5248566   6.517   6.946   4.366 -0.0334 -2.9420 -1.5481
  128MOL    H5348567   6.707   6.781   4.532  0.5276  0.6821  0.5487
  128MOL    H5448568   6.709   6.738   4.370 -0.5264  2.4447 -2.6076
  128MOL    H5548569   6.572   6.869   4.678  0.6043 -0.1069  0.2466
  128MOL    H5648570   6.460   6.837   4.890  1.4433 -1.1701 -0.8449
  128MOL    H5748571   6.258   6.696   4.910 -0.1063  0.2571 -0.2716
  128MOL    H5848572   6.188   6.554   4.705 -1.8317  1.5754 -3.6318
  128MOL    C5948573   6.305   6.555   4.452  0.1016 -0.1310 -0.6084
  128MOL    C6048574   6.372   6.437   4.394  0.7782  0.4839 -0.3265
  128MOL    O6148575   6.262   6.421   4.483  0.3848 -0.3442 -0.4692
  128MOL    C6248576   6.494   6.377   4.453  0.1054  0.1584  0.2592
  128MOL    O6348577   6.516   6.255   4.388 -1.0743  0.4068  0.0324
  128MOL    C6448578   6.604   6.253   4.283  0.0259  0.0775 -0.3127
  128MOL    C6548579   6.654   6.367   4.219 -0.5510  0.0112 -0.1308
  128MOL    C6648580   6.711   6.355   4.091 -0.1171 -0.8270  0.5727
  128MOL    C6748581   6.713   6.225   4.020 -0.5206 -0.3755  0.3511
  128MOL    C6848582   6.653   6.117   4.079 -0.1048  0.9909  0.4445
  128MOL    C6948583   6.601   6.128   4.213 -0.4717  0.0389 -0.4735
  128MOL    H7048584   6.240   6.613   4.387  1.6295  0.5899 -1.5040
  128MOL    H7148585   6.338   6.419   4.292 -2.5885 -0.1733  0.8520
  128MOL    H7248586   6.470   6.363   4.558  0.2468  3.8219  0.8562
  128MOL    H7348587   6.581   6.444   4.450  0.0610  0.2486  0.9006
  128MOL    H7448588   6.649   6.469   4.254  1.0087  0.1209 -0.1794
  128MOL    H7548589   6.750   6.439   4.035 -1.4390  0.1510  1.1162
  128MOL    H7648590   6.759   6.223   3.922  2.2105  3.5534  1.4182
  128MOL    H7748591   6.654   6.018   4.034  1.5501  0.8701  0.7106
  128MOL    C7848592   6.539   6.012   4.279  0.1333 -0.1190 -0.0507
  128MOL    C7948593   6.411   5.938   4.241  0.1683 -0.1705 -0.5599
  128MOL    O8048594   6.543   5.889   4.200 -0.1159 -0.5558 -0.2459
  128MOL    C8148595   6.326   5.992   4.123  0.0287 -1.0415 -0.2059
  128MOL    O8248596   6.217   5.905   4.100  0.4475 -0.4241  0.1187
  128MOL    C8348597   6.180   5.897   3.965  0.2235 -0.2033 -0.0105
  128MOL    C8448598   6.151   6.015   3.896  0.1817 -0.3796 -0.6975
  128MOL    C8548599   6.121   6.017   3.762 -0.5958 -0.0416 -0.1360
  128MOL    C8648600   6.106   5.894   3.701  0.5782  0.4971  0.6063
  128MOL    C8748601   6.127   5.777   3.767 -0.0094  0.1614 -0.5768
  128MOL    C8848602   6.165   5.776   3.900 -0.2068  0.2062  0.2508
  128MOL    H8948603   6.573   6.007   4.382 -0.3097  0.5167  0.1276
  128MOL    H9048604   6.352   5.883   4.314 -1.0866 -1.2760 -2.3603
  128MOL    H9148605   6.385   6.001   4.032  0.5084 -2.5430 -0.0607
  128MOL    H9248606   6.294   6.094   4.144 -1.1470 -1.9936  2.9424
  128MOL    H9348607   6.157   6.110   3.947  0.9962 -1.9349  2.1744
  128MOL    H9448608   6.096   6.106   3.707 -0.4032 -0.4271 -0.8463
  128MOL    H9548609   6.071   5.883   3.599  0.6944  1.1396  0.4902
  128MOL    H9648610   6.113   5.680   3.721  2.2940 -0.0430 -0.8969
  128MOL    C9748611   6.200   5.658   3.982  0.0705 -0.0076  0.6050
  128MOL    C9848612   6.111   5.602   4.088  0.4250  0.2143 -0.0621
  128MOL    O9948613   6.113   5.548   3.955  0.1984 -0.0088  0.5128
  128MOL   C10048614   5.992   5.687   4.133 -0.8625 -0.7777  0.0586
  128MOL   O10148615   5.892   5.596   4.190 -0.0064 -0.0891  0.5653
  128MOL   C10248616   5.764   5.641   4.210  0.5793  0.0175 -0.3244
  128MOL   C10348617   5.737   5.780   4.206  0.1705  0.6195  0.8344
  128MOL   C10448618   5.609   5.823   4.242 -0.1094 -0.8844 -0.0394
  128MOL   C10548619   5.511   5.728   4.253  0.8599  0.0360  0.9715
  128MOL   C10648620   5.537   5.587   4.265 -0.0037 -0.3091  0.2769
  128MOL   C10748621   5.664   5.544   4.240 -0.2392 -0.6260  0.4067
  128MOL   H10848622   6.305   5.632   3.988  0.0928 -0.7080 -2.2446
  128MOL   H10948623   6.154   5.555   4.176 -0.0472 -0.6805 -0.3022
  128MOL   H11048624   5.956   5.737   4.043 -0.7429 -1.2418 -0.2506
  128MOL   H11148625   6.031   5.756   4.208 -1.1880 -0.6017  0.0682
  128MOL   H11248626   5.812   5.854   4.184 -1.0704  2.1919  1.7620
  128MOL   H11348627   5.580   5.927   4.237 -1.0013 -1.0063  2.0703
  128MOL   H11448628   5.408   5.759   4.266  0.1419 -2.2189  0.8656
  128MOL   H11548629   5.460   5.517   4.293 -0.6073  1.3334  2.8951
  128MOL   C11648630   5.699   5.401   4.238  0.5768  0.4265 -0.0720
  128MOL   C11748631   5.779   5.324   4.344  0.0952  0.5774 -0.2635
  128MOL   O11848632   5.636   5.340   4.352 -0.1252  0.2415  0.7021
  128MOL   C11948633   5.869   5.401   4.443  0.2896  0.5344 -0.7884
  128MOL   O12048634   5.953   5.311   4.516  0.1390  0.1077 -0.0370
  128MOL   C12148635   6.072   5.261   4.472 -0.5745 -0.1377 -0.2019
  128MOL   C12248636   6.146   5.321   4.368  0.0978 -0.3035  0.8619
  128MOL   C12348637   6.263   5.270   4.309  0.1257  0.3248  0.2041
  128MOL   C12448638   6.322   5.160   4.377  0.3253  0.2295  0.6774
  128MOL   C12548639   6.256   5.103   4.491  0.1882  0.0810  0.1781
  128MOL   C12648640   6.126   5.147   4.530 -0.6197  0.1581 -0.2887
  128MOL   H12748641   5.667   5.348   4.149 -0.2030  0.8452 -0.0469
  128MOL   H12848642   5.809   5.228   4.302 -0.5084  1.7956 -3.6276
  128MOL   H12948643   5.801   5.436   4.521 -0.5796 -0.4511 -1.0871
  128MOL   H13048644   5.910   5.499   4.419  1.6777  0.8329  2.4796
  128MOL   H13148645   6.114   5.418   4.334  0.6958 -0.4977 -0.2636
  128MOL   H13248646   6.308   5.316   4.223  0.5131  0.9605  0.7387
  128MOL   H13348647   6.421   5.126   4.350 -0.0327  0.6674 -1.2644
  128MOL   H13448648   6.307   5.027   4.549  0.9480  0.6444  0.2587
  128MOL   C13548649   6.043   5.068   4.631 -0.2501  0.3274 -0.4100
  128MOL   C13648650   5.943   4.956   4.580  0.3831 -0.0281 -0.4484
  128MOL   O13748651   6.072   4.922   4.630 -0.1274 -0.5772 -0.2251
  128MOL   C13848652   5.920   4.915   4.433  0.5595 -0.6345 -0.1201
  128MOL   O13948653   5.829   4.806   4.419  0.2252  0.3035 -0.2122
  128MOL   C14048654   5.793   4.763   4.297  0.5611  0.0815  0.2461
  128MOL   C14148655   5.818   4.834   4.176  0.3628  0.7509 -1.1201
  128MOL   C14248656   5.770   4.781   4.054  0.3461  0.5525 -1.1041
  128MOL   C14348657   5.712   4.655   4.050 -0.2409  0.0924 -0.2562
  128MOL   C14448658   5.682   4.589   4.170  0.0674 -0.7062  1.2524
  128MOL   C14548659   5.723   4.639   4.294  0.3091 -0.7575 -0.2830
  128MOL   H14648660   6.015   5.119   4.722  2.6790  1.5554 -0.1347
  128MOL   H14748661   5.862   4.944   4.652  1.6565  1.0288  1.2324
  128MOL   H14848662   6.018   4.904   4.387  0.3169 -0.5980 -0.6420
  128MOL   H14948663   5.868   4.999   4.388  2.6951  0.2794 -0.9162
  128MOL   H15048664   5.866   4.931   4.181  0.3712  0.7232 -0.6262
  128MOL   H15148665   5.795   4.836   3.964  0.8550  0.6475 -0.9086
  128MOL   H15248666   5.672   4.626   3.954  1.7062  0.4884 -1.2019
  128MOL   H15348667   5.621   4.501   4.164 -1.1523  0.2503 -1.0861
  128MOL   C15448668   5.690   4.576   4.430  0.6096 -0.0313  0.0569
  128MOL   C15548669   5.557   4.588   4.502  0.7574  0.2966 -0.4535
  128MOL   O15648670   5.593   4.471   4.425  0.1563 -0.6566 -0.1007
  128MOL   C15748671   5.432   4.658   4.449  0.3308 -0.1316 -0.2934
  128MOL   O15848672   5.382   4.752   4.540 -0.0506  0.0830  0.1141
  128MOL   C15948673   5.462   4.868   4.563 -0.4448 -0.4053 -0.0962
  128MOL   C16048674   5.542   4.920   4.462 -0.1632  0.0187  0.0223
  128MOL   C16148675   5.615   5.038   4.479 -0.7354 -0.0439  0.1069
  128MOL   C16248676   5.613   5.112   4.601 -0.2757 -0.1395  0.7443
  128MOL   C16348677   5.527   5.065   4.697 -0.3914 -0.1175  0.1435
  128MOL   C16448678   5.447   4.945   4.680 -0.4067  0.2146  0.2992
  128MOL   H16548679   5.782   4.547   4.480 -0.4096  1.6522  2.9893
  128MOL   H16648680   5.567   4.582   4.610 -2.3995  0.9386 -0.0787
  128MOL   H16748681   5.343   4.596   4.450  1.9244 -2.4830  1.9982
  128MOL   H16848682   5.433   4.693   4.346 -0.1830  2.6533  0.6116
  128MOL   H16948683   5.555   4.867   4.369  1.3366  0.1633  0.1430
  128MOL   H17048684   5.671   5.069   4.393 -3.5040  2.5612 -0.8562
  128MOL   H17148685   5.669   5.203   4.616  1.3020 -0.9267 -0.2844
  128MOL   H17248686   5.515   5.124   4.787 -0.4429 -1.3159  0.9433
  128MOL   C17348687   5.371   4.897   4.796  0.1390  0.0598 -0.2060
  128MOL   C17448688   5.420   4.877   4.929 -0.0506 -0.1998 -0.8351
  128MOL   O17548689   5.347   5.000   4.893 -0.0220  0.4917  0.6352
  128MOL   C17648690   5.570   4.889   4.965 -0.5896  0.6664 -0.2706
  128MOL   O17748691   5.573   4.924   5.108 -0.0093  0.1402  0.0875
  128MOL   C17848692   5.698   4.952   5.166  1.2058  0.4567  0.6779
  128MOL   C17948693   5.824   4.924   5.107 -1.0567  0.0941  0.1513
  128MOL   C18048694   5.942   4.954   5.177 -0.5843 -0.1576 -0.1852
  128MOL   C18148695   5.938   5.018   5.303  0.9743 -0.6039 -0.4470
  128MOL   C18248696   5.812   5.036   5.364 -0.2676 -0.4095 -0.0766
  128MOL   C18348697   5.692   5.006   5.297  0.9845 -0.8476  0.3865
  128MOL   H18448698   5.279   4.850   4.764 -0.1825  1.4204 -1.3694
  128MOL   H18548699   5.357   4.812   4.989  1.1542 -0.3216  0.3102
  128MOL   H18648700   5.618   4.967   4.906 -0.3026  0.8801  0.2401
  128MOL   H18748701   5.616   4.792   4.943 -0.7526 -0.0639  2.4941
  128MOL   H18848702   5.846   4.877   5.013 -1.0528  1.6995 -0.6738
  128MOL   H18948703   6.039   4.935   5.133 -0.2635  2.0521 -0.5292
  128MOL   H19048704   6.023   5.064   5.351  0.5357  0.8775 -1.0449
  128MOL   H19148705   5.806   5.087   5.459  1.8687  0.6171 -0.4645
  128MOL   C19248706   5.558   5.032   5.365  0.5537 -0.3013  0.0631
  128MOL   C19348707   5.459   4.916   5.389 -0.9506  0.2517  0.1752
  128MOL   O19448708   5.556   4.965   5.489 -0.2137  0.0190 -0.0508
  128MOL   C19548709   5.460   4.772   5.346 -0.2263  0.0571 -0.2016
  128MOL   O19648710   5.352   4.695   5.408  0.6582  0.1596  0.5174
  128MOL   C19748711   5.231   4.693   5.341  0.1063  0.4278  0.4735
  128MOL   C19848712   5.198   4.782   5.234  0.1690  0.0907  0.0890
  128MOL   C19948713   5.069   4.785   5.179  0.5487 -0.5454 -0.1297
  128MOL   C20048714   4.964   4.706   5.230  0.3433  0.2628  0.2578
  128MOL   C20148715   5.003   4.611   5.335 -0.1931  0.1246  0.3417
  128MOL   C20248716   5.133   4.604   5.385 -1.1241  0.1287  0.1910
  128MOL   H20348717   5.514   5.132   5.360  0.3843 -0.4098 -0.7332
  128MOL   H20448718   5.357   4.952   5.395 -1.4764 -1.0413 -0.8069
  128MOL   H20548719   5.547   4.729   5.397 -0.0646 -0.3094 -0.7826
  128MOL   H20648720   5.466   4.759   5.238 -0.8317  1.0677 -0.3584
  128MOL   H20748721   5.270   4.851   5.192  0.7505 -0.0677  0.8101
  128MOL   H20848722   5.057   4.856   5.098  0.3493  1.6514  1.7591
  128MOL   H20948723   4.869   4.717   5.181  1.1594 -1.2653 -1.7518
  128MOL   H21048724   4.929   4.539   5.367 -0.2254  0.1169  0.2494
  128MOL   C21148725   5.170   4.502   5.484 -0.5988 -0.5672 -0.3236
  128MOL   C21248726   5.189   4.541   5.630  0.3728  0.3997  0.3631
  128MOL   O21348727   5.071   4.475   5.577  0.2036  0.8319 -0.0799
  128MOL   C21448728   5.165   4.673   5.693  0.0464 -0.6281  0.4424
  128MOL   O21548729   5.218   4.673   5.824  0.4515 -0.1074 -0.3726
  128MOL   C21648730   5.230   4.796   5.891 -0.2807 -0.3033  0.4356
  128MOL   C21748731   5.175   4.918   5.835 -0.8473 -0.2787  0.3532
  128MOL   C21848732   5.204   5.036   5.898 -0.4350 -0.2234  0.1853
  128MOL   C21948733   5.288   5.044   6.011 -0.6661  0.0625 -0.0619
  128MOL   C22048734   5.344   4.925   6.065  0.0965 -0.1591 -0.3243
  128MOL   C22148735   5.311   4.798   6.010 -0.2639 -0.5098 -0.0831
  128MOL   H22248736   5.224   4.420   5.436  0.2018 -0.2411  0.0034
  128MOL   H22348737   5.226   4.475   5.709  0.5828 -0.8096 -0.7170
  128MOL   H22448738   5.062   4.706   5.680  0.3024 -0.6643 -2.0139
  128MOL   H22548739   5.223   4.745   5.635 -0.9762  1.1858  1.6397
  128MOL   H22648740   5.105   4.920   5.753  0.1924  0.1507 -0.5399
  128MOL   H22748741   5.159   5.127   5.862  0.0740  0.1768  0.5450
  128MOL   H22848742   5.313   5.141   6.053 -1.5886  0.4438 -0.3823
  128MOL   H22948743   5.401   4.924   6.157  4.8603  3.4897 -2.9729
  128MOL   C23048744   5.368   4.675   6.061 -0.4149 -0.1060 -0.0454
  128MOL   C23148745   5.487   4.605   5.998  0.5028 -0.1457 -0.1809
  128MOL   O23248746   5.504   4.681   6.120 -0.5943 -0.0292 -0.2447
  128MOL   C23348747   5.561   4.661   5.883 -0.5667 -0.1406  0.0873
  128MOL   O23448748   5.654   4.567   5.826  0.3567 -0.0267  0.7395
  128MOL   C23548749   5.659   4.559   5.687 -1.1242 -0.6603 -0.9371
  128MOL   C23648750   5.600   4.448   5.616  0.1389  0.1026 -0.1721
  128MOL   C23748751   5.630   4.435   5.476  0.2192 -0.7751  0.4178
  128MOL   C23848752   5.719   4.518   5.415  0.2826 -0.9837 -0.0746
  128MOL   C23948753   5.776   4.624   5.487 -0.3361  0.6432  0.3808
  128MOL   C24048754   5.743   4.649   5.623 -0.0962  0.3683 -0.2467
  128MOL   H24148755   5.304   4.612   6.123  0.0436  0.8363  1.4111
  128MOL   H24248756   5.502   4.499   6.017 -3.5330 -0.7151  0.2936
  128MOL   H24348757   5.620   4.750   5.905  0.9083 -0.5550 -2.0784
  128MOL   H24448758   5.490   4.693   5.806  0.5768  0.1443 -0.8611
  128MOL   H24548759   5.542   4.380   5.676 -2.0401  0.2968 -1.9808
  128MOL   H24648760   5.591   4.350   5.423  2.2420 -2.2409  1.1904
  128MOL   H24748761   5.759   4.498   5.317  2.1070  1.0621  0.1972
  128MOL   H24848762   5.844   4.693   5.439 -2.0284  2.5278  0.6061
  128MOL   C24948763   5.798   4.768   5.694  0.5495 -0.9616 -0.2662
  128MOL   C25048764   5.923   4.778   5.778  0.1091  0.1454  0.1784
  128MOL   O25148765   5.921   4.816   5.641 -0.5986  0.1403  0.0932
  128MOL   C25248766   5.992   4.652   5.816 -0.8655  0.0270  0.4171
  128MOL   O25348767   6.136   4.672   5.811 -0.0131 -0.1978 -0.4157
  128MOL   C25448768   6.201   4.660   5.689 -0.3416 -0.0242  0.4058
  128MOL   C25548769   6.137   4.620   5.564 -0.6895  0.0420 -0.6545
  128MOL   C25648770   6.205   4.626   5.443  0.1839 -0.1838  0.0480
  128MOL   C25748771   6.342   4.659   5.441 -0.4789  0.8048  0.1012
  128MOL   C25848772   6.409   4.686   5.560  0.9280  0.8094 -0.4123
  128MOL   C25948773   6.340   4.698   5.687 -0.3614 -0.5241  0.0224
  128MOL   H26048774   5.725   4.848   5.690 -1.8748 -3.1101 -0.1947
  128MOL   H26148775   5.925   4.864   5.846 -2.2636 -0.0250  0.5103
  128MOL   H26248776   5.963   4.573   5.746 -0.4408 -0.5557  0.8927
  128MOL   H26348777   5.975   4.608   5.915 -1.2170  1.0472  0.8136
  128MOL   H26448778   6.033   4.593   5.559 -0.3731 -0.9702 -1.8634
  128MOL   H26548779   6.147   4.602   5.356  0.6854 -1.7397  0.1255
  128MOL   H26648780   6.398   4.658   5.348 -1.0586 -1.8389 -0.2569
  128MOL   H26748781   6.515   4.707   5.551  1.4790 -1.6880 -0.0984
  128MOL   C26848782   6.407   4.750   5.808 -0.0449  0.0861 -0.1939
  128MOL   C26948783   6.506   4.664   5.890 -0.4172 -0.3973  0.2261
  128MOL   O27048784   6.553   4.756   5.794 -0.1358  0.7136 -0.1348
  128MOL   C27148785   6.538   4.516   5.863  0.1011  0.0450 -0.1867
  128MOL   O27248786   6.679   4.499   5.845 -0.1055 -0.6266 -0.0017
  128MOL   C27348787   6.769   4.512   5.955  0.1823 -0.3185 -0.4583
  128MOL   C27448788   6.729   4.520   6.091 -0.3205  0.3674  0.2437
  128MOL   C27548789   6.825   4.508   6.190 -0.2786  0.2068 -0.2840
  128MOL   C27648790   6.958   4.506   6.159  0.3163  0.7348  0.0242
  128MOL   C27748791   6.998   4.504   6.031 -0.4356  0.4455 -0.2242
  128MOL   C27848792   6.906   4.504   5.924 -0.0457 -0.7872  0.5388
  128MOL   H27948793   6.367   4.847   5.840 -0.0766  0.0585 -0.1496
  128MOL   H28048794   6.515   4.699   5.993 -0.2571  0.3043 -0.0294
  128MOL   H28148795   6.486   4.486   5.772 -0.2993 -0.7605  0.3095
  128MOL   H28248796   6.494   4.461   5.946 -0.8613  0.8651 -0.1419
  128MOL   H28348797   6.625   4.521   6.123 -0.5901  0.9886 -0.6354
  128MOL   H28448798   6.782   4.505   6.289  1.3990  0.2262  0.4647
  128MOL   H28548799   7.025   4.509   6.244  0.2653 -1.9293  0.1985
  128MOL   H28648800   7.101   4.508   6.000 -0.1770  1.1881  0.7095
  128MOL   C28748801   6.959   4.492   5.786 -0.6246 -0.1435 -0.1641
  128MOL   C28848802   6.939   4.596   5.672  0.4319 -0.1306  0.2699
  128MOL   O28948803   7.051   4.588   5.753 -0.0746 -0.2546  0.0437
  128MOL   C29048804   6.851   4.724   5.677 -0.0218  0.4639 -0.0505
  128MOL   O29148805   6.915   4.830   5.619  0.2232 -0.7745  0.3474
  128MOL   C29248806   6.900   4.858   5.482 -0.6838 -0.3788  0.0096
  128MOL   C29348807   6.822   4.791   5.390  0.2869 -0.6831  0.2709
  128MOL   C29448808   6.828   4.828   5.257 -0.2924  0.2052  0.3917
  128MOL   C29548809   6.910   4.931   5.213 -0.0434 -0.7705  0.8755
  128MOL   C29648810   6.985   5.006   5.305 -0.1895  0.4456 -0.3674
  128MOL   C29748811   6.985   4.965   5.443 -0.5638 -0.4765  0.8766
  128MOL   H29848812   6.975   4.388   5.759  2.1570  0.4631 -1.0261
  128MOL   H29948813   6.962   4.564   5.570  2.7674 -0.8672  1.0088
  128MOL   H30048814   6.819   4.745   5.779  0.0199  0.0515  0.0481
  128MOL   H30148815   6.757   4.706   5.624 -1.4510  0.9221  2.2469
  128MOL   H30248816   6.748   4.716   5.415 -2.3702  1.7950  0.1377
  128MOL   H30348817   6.766   4.782   5.181 -0.8891 -0.7512  1.4554
  128MOL   H30448818   6.904   4.971   5.113  1.5492  0.7490  1.3616
  128MOL   H30548819   7.041   5.094   5.276  1.1296 -0.1674  0.3039
  128MOL   C30648820   7.054   5.044   5.545  0.8516  0.6008  0.1288
  128MOL   C30748821   7.182   5.003   5.615  0.3458  0.3299  0.3710
  128MOL   O30848822   7.183   5.089   5.502 -0.6304  0.2175  0.2947
  128MOL   C30948823   7.251   4.864   5.593 -0.3707  0.0564 -0.1592
  128MOL   O31048824   7.392   4.880   5.594  0.2584 -0.2661 -0.2130
  128MOL   C31148825   7.461   4.879   5.717 -0.6074 -0.1980 -0.7849
  128MOL   C31248826   7.421   4.791   5.821  0.5892  0.2473  0.5145
  128MOL   C31348827   7.483   4.800   5.946 -0.1683  0.4261  0.3326
  128MOL   C31448828   7.584   4.898   5.971 -0.3011  0.0708  0.0904
  128MOL   C31548829   7.617   4.982   5.871  0.1035  0.8773  0.1539
  128MOL   C31648830   7.563   4.969   5.741 -0.8195  1.1579  0.7369
  128MOL   H31748831   6.995   5.130   5.577 -1.3146 -1.5336  2.0663
  128MOL   H31848832   7.202   5.046   5.713  2.4144  2.0232 -0.7321
  128MOL   H31948833   7.217   4.825   5.498  0.9632 -1.2411 -0.1166
  128MOL   H32048834   7.209   4.797   5.668  1.5475  0.7577  1.6037
  128MOL   H32148835   7.335   4.727   5.806  1.2277 -0.5979  0.4055
  128MOL   H32248836   7.442   4.733   6.020  0.9425 -2.0939 -1.2436
  128MOL   H32348837   7.620   4.903   6.073 -2.2156 -0.1647  0.7952
  128MOL   H32448838   7.695   5.051   5.900  0.1432  0.7283  0.4051
  128MOL   C32548839   7.603   5.059   5.627  0.0443  0.1331 -0.0524
  128MOL   C32648840   7.551   5.199   5.600 -0.5051  0.5123 -0.1362
  128MOL   O32748841   7.666   5.172   5.678  0.2942 -0.9881 -0.2288
  128MOL   C32848842   7.450   5.283   5.677 -0.0122 -0.1769 -0.3498
  128MOL   O32948843   7.468   5.417   5.653 -0.3952  0.0650 -0.5687
  128MOL   C33048844   7.417   5.480   5.539  0.8089 -0.4172  0.6010
  128MOL   C33148845   7.344   5.413   5.435  0.4699 -0.6662 -0.7156
  128MOL   C33248846   7.291   5.485   5.328 -0.2762 -0.2665 -0.0245
  128MOL   C33348847   7.323   5.621   5.312 -0.4464 -0.3450  0.0157
  128MOL   C33448848   7.395   5.682   5.416  0.2161 -0.3391 -0.2257
  128MOL   C33548849   7.446   5.616   5.530 -0.0320 -0.5047 -0.3002
  128MOL   H33648850   7.657   5.017   5.543  1.5354  0.5135  0.7152
  128MOL   H33748851   7.545   5.212   5.493 -0.3512 -2.4955 -0.5479
  128MOL   H33848852   7.442   5.256   5.782  3.0483  1.2750  0.2975
  128MOL   H33948853   7.349   5.254   5.649 -0.0270 -0.0326 -0.4483
  128MOL   H34048854   7.323   5.308   5.450 -3.2244  0.7986  6.2734
  128MOL   H34148855   7.240   5.427   5.254 -1.1362  1.4247 -0.7921
  128MOL   H34248856   7.293   5.662   5.217 -1.4123 -1.6767 -0.2639
  128MOL   H34348857   7.401   5.790   5.406  1.8243 -0.5349 -1.6122
  128MOL   C34448858   7.525   5.695   5.635  1.1731 -0.0245  0.4990
  128MOL   C34548859   7.674   5.685   5.661 -0.2079 -0.2929  0.1308
  128MOL   O34648860   7.618   5.781   5.566 -0.0432  0.5082 -0.2837
  128MOL   C34748861   7.759   5.583   5.594 -0.0254 -1.4174 -0.4903
  128MOL   O34848862   7.881   5.645   5.548  0.2037  0.0712 -0.2877
  128MOL   C34948863   7.967   5.561   5.477 -0.4740  0.2494 -0.4671
  128MOL   C35048864   7.938   5.432   5.436 -0.0673  0.3549 -0.0780
  128MOL   C35148865   8.031   5.352   5.366 -0.9635  0.2740  0.5319
  128MOL   C35248866   8.158   5.408   5.336 -0.2983 -0.2014  0.2720
  128MOL   C35348867   0.023   5.533   5.387 -0.1961 -0.0316  0.1811
  128MOL   C35448868   8.104   5.608   5.459 -0.1534  0.0574 -0.0075
  128MOL   H35548869   7.463   5.750   5.706  2.7281  1.8082  0.4702
  128MOL   H35648870   7.708   5.740   5.749  0.1335 -1.8646  0.9873
  128MOL   H35748871   7.702   5.546   5.509 -0.9631 -2.2909  0.5184
  128MOL   H35848872   7.774   5.506   5.669 -0.5768 -1.2297 -0.1921
  128MOL   H35948873   7.845   5.388   5.469  0.5420 -0.8521  0.0715
  128MOL   H36048874   8.000   5.254   5.333 -0.7329  0.1001  0.8340
  128MOL   H36148875   0.065   5.354   5.284  0.0311  1.8643 -1.4803
  128MOL   H36248876   0.118   5.579   5.367 -0.0492 -0.0484  0.8538
  128MOL   C36348877   8.138   5.734   5.529  0.3940 -0.2053  0.3025
  128MOL   C36448878   0.044   5.747   5.659 -0.0783 -0.2157  0.0183
  128MOL   O36548879   0.108   5.755   5.529 -0.1993 -0.2137  0.2629
  128MOL   C36648880   0.091   5.626   5.742  0.4580 -0.7664  0.0189
  128MOL   O36748881   0.002   5.513   5.743  0.5469 -0.0544 -0.3660
  128MOL   C36848882   8.062   5.517   5.826 -0.1513 -0.9057 -0.1582
  128MOL   C36948883   7.985   5.399   5.846  0.4883  0.4667  0.3609
  128MOL   C37048884   7.877   5.391   5.943 -0.6108  0.3793  0.0563
  128MOL   C37148885   7.840   5.504   6.014  0.0626 -0.2993 -0.1305
  128MOL   C37248886   7.916   5.622   5.997 -0.4112  0.6402  0.4650
  128MOL   C37348887   8.021   5.630   5.905  0.3742 -0.4167 -0.2842
  128MOL   H37448888   8.075   5.818   5.502  1.7582 -0.1573 -2.9781
  128MOL   H37548889   0.037   5.839   5.718 -0.0498 -1.2433  1.6513
  128MOL   H37648890   0.117   5.647   5.846  1.2057  0.5738 -0.4284
  128MOL   H37748891   0.190   5.596   5.708  1.2042  0.4768  1.0218
  128MOL   H37848892   8.014   5.315   5.784 -0.3514  1.3072 -1.1865
  128MOL   H37948893   7.827   5.295   5.947 -0.5282  0.3749  1.0836
  128MOL   H38048894   7.768   5.497   6.094  0.0463 -3.4189 -0.3879
  128MOL   H38148895   7.874   5.707   6.049 -3.1590 -0.4226  0.0600
  128MOL   H38248896   8.056   5.730   5.884 -3.6750  0.8614 -1.4890
  129MOL     C148897   0.916   2.314   5.497 -0.2971  0.4869  0.1470
  129MOL     C248898   0.816   2.203   5.465 -0.2517  0.6100 -0.0927
  129MOL     O348899   0.916   2.196   5.567  0.0402 -0.1275  0.5648
  129MOL     C448900   0.843   2.110   5.348  0.1788 -0.6083 -0.0064
  129MOL     O548901   0.821   2.194   5.232 -0.7874  0.2154  0.0859
  129MOL     C648902   0.756   2.132   5.121 -0.5958 -0.4720 -0.1181
  129MOL     C748903   0.764   1.992   5.083 -0.6584 -0.5549 -0.3574
  129MOL     C848904   0.698   1.948   4.968  0.5584 -0.0356 -0.1946
  129MOL     C948905   0.620   2.036   4.890 -0.1603  0.0614 -0.4785
  129MOL    C1048906   0.608   2.173   4.933 -0.0937 -0.0427 -0.8840
  129MOL    C1148907   0.688   2.218   5.040  0.2970  0.4864  0.6914
  129MOL    H1248908   0.884   2.391   5.567  0.3884 -1.7817  3.0484
  129MOL    H1348909   0.712   2.218   5.491  0.0179  0.3034  1.1807
  129MOL    H1448910   0.769   2.031   5.360  2.1301 -2.1096  2.6680
  129MOL    H1548911   0.940   2.061   5.347 -0.0194 -1.0213  0.7771
  129MOL    H1648912   0.810   1.918   5.147 -0.3910 -0.0938 -0.0028
  129MOL    H1748913   0.708   1.842   4.947  0.2297 -0.0048 -0.5067
  129MOL    H1848914   0.579   2.009   4.794 -1.1069 -3.0593  0.7317
  129MOL    H1948915   0.546   2.245   4.882 -0.0756  0.0705 -0.7479
  129MOL    H2048916   0.994   2.325   5.422 -1.4510 -1.7427 -1.4470
  129MOL    C2148917   0.701   2.371   5.062 -0.0217 -0.0130 -0.1595
  129MOL    C2248918   0.767   2.468   4.962 -0.0780  0.0455 -0.4218
  129MOL    O2348919   0.624   2.447   4.972 -0.4954  0.4841 -0.4340
  129MOL    C2448920   0.828   2.430   4.824 -0.4488 -0.1440  0.0937
  129MOL    O2548921   0.940   2.511   4.781  0.1348 -0.0707  0.1094
  129MOL    C2648922   0.928   2.640   4.749 -0.0489 -0.3630  0.0495
  129MOL    C2748923   0.804   2.705   4.735 -0.3870 -0.2851  0.2150
  129MOL    C2848924   0.796   2.831   4.683 -0.1347  0.2790 -0.4660
  129MOL    C2948925   0.909   2.897   4.649  0.8428 -0.5871  0.4185
  129MOL    C3048926   1.037   2.841   4.668  0.0391  0.2223 -0.4598
  129MOL    C3148927   1.048   2.712   4.713 -0.9875  0.4836 -0.5502
  129MOL    H3248928   0.669   2.407   5.160 -1.8219  1.8135 -1.3800
  129MOL    H3348929   0.797   2.568   4.993 -0.9284  0.2725 -0.3208
  129MOL    H3448930   0.752   2.423   4.746  0.4286  1.7436 -0.9662
  129MOL    H3548931   0.860   2.326   4.829  0.6365  0.2382  1.1450
  129MOL    H3648932   0.708   2.656   4.745 -2.3250  2.8394 -2.1031
  129MOL    H3748933   0.699   2.878   4.672  0.0211  0.9280  0.8189
  129MOL    H3848934   0.901   2.990   4.594 -1.6528 -0.6609  0.6217
  129MOL    H3948935   1.128   2.893   4.639  0.3376  0.0117  0.0877
  129MOL    C4048936   1.185   2.642   4.735  0.1414 -0.2118  0.4840
  129MOL    C4148937   1.255   2.566   4.618  0.1405  0.3041 -0.5103
  129MOL    O4248938   1.288   2.700   4.652  0.2262 -0.1623 -0.3804
  129MOL    C4348939   1.185   2.541   4.484  0.2403  0.4880 -0.6216
  129MOL    O4448940   1.248   2.428   4.417 -0.2720  0.5795 -0.3660
  129MOL    C4548941   1.214   2.306   4.458 -0.0286  0.0531 -0.4891
  129MOL    C4648942   1.115   2.280   4.556 -0.3388  0.3161  0.2003
  129MOL    C4748943   1.100   2.157   4.613 -0.0365  0.3989  0.4045
  129MOL    C4848944   1.171   2.041   4.568  0.4160 -0.3609 -0.5068
  129MOL    C4948945   1.273   2.066   4.471 -0.0905  0.1228  0.0023
  129MOL    C5048946   1.297   2.200   4.424  0.5230  0.4555  0.4005
  129MOL    H5148947   1.208   2.610   4.836  0.2175  0.4241  0.6702
  129MOL    H5248948   1.341   2.502   4.636  0.1959  0.0654 -1.5806
  129MOL    H5348949   1.228   2.622   4.424  1.3074  0.1975 -0.2538
  129MOL    H5448950   1.077   2.555   4.485 -0.0066 -1.4280  0.4653
  129MOL    H5548951   1.063   2.371   4.581 -0.4082 -0.2278  2.1675
  129MOL    H5648952   1.021   2.143   4.685  0.5407 -1.0238  0.7720
  129MOL    H5748953   1.146   1.940   4.600 -0.4442 -0.5015 -1.6057
  129MOL    H5848954   1.328   1.989   4.420  1.0178  1.9905 -1.7235
  129MOL    C5948955   1.404   2.219   4.318 -0.3727 -0.0290  0.0165
  129MOL    C6048956   1.549   2.254   4.355 -0.1467 -0.3082 -0.5769
  129MOL    O6148957   1.506   2.125   4.321  0.3353  0.4093 -0.2009
  129MOL    C6248958   1.590   2.269   4.501  0.2628  0.1120  0.0098
  129MOL    O6348959   1.721   2.308   4.513  0.2580  0.6098  0.3004
  129MOL    C6448960   1.822   2.215   4.492  0.0839  0.3957 -0.6663
  129MOL    C6548961   1.796   2.080   4.469 -0.2989 -0.1553 -0.0078
  129MOL    C6648962   1.903   1.984   4.449 -0.1643  0.5620 -0.1946
  129MOL    C6748963   2.028   2.031   4.425  0.5111 -0.0514 -0.2661
  129MOL    C6848964   2.054   2.167   4.446  0.1125  0.4334 -0.8838
  129MOL    C6948965   1.956   2.262   4.479  0.0297  0.2209 -0.5964
  129MOL    H7048966   1.363   2.251   4.222  1.1674 -0.6197 -0.8538
  129MOL    H7148967   1.618   2.301   4.286 -1.4290  0.4784 -1.3442
  129MOL    H7248968   1.569   2.179   4.559  0.2869  0.9254  1.2894
  129MOL    H7348969   1.530   2.349   4.542 -1.1353 -1.4012  0.9899
  129MOL    H7448970   1.697   2.037   4.476 -0.5388  0.5043  0.7082
  129MOL    H7548971   1.870   1.882   4.439  1.0060  0.1624 -0.0435
  129MOL    H7648972   2.107   1.964   4.395 -1.3665 -3.8411  2.7612
  129MOL    H7748973   2.147   2.217   4.420  0.0526  1.0797  0.1040
  129MOL    C7848974   1.984   2.405   4.479 -0.0931 -0.3677  0.4276
  129MOL    C7948975   1.984   2.483   4.599 -0.1035 -0.2826  0.6144
  129MOL    O8048976   2.109   2.437   4.540  0.1957  0.2420  0.1748
  129MOL    C8148977   1.936   2.434   4.736 -0.9385  0.2230  0.9935
  129MOL    O8248978   1.991   2.525   4.828  0.3215 -0.2932 -0.1893
  129MOL    C8348979   1.966   2.504   4.962 -0.3080  0.5653 -0.3098
  129MOL    C8448980   1.902   2.390   5.018 -0.0215 -0.4048 -0.8394
  129MOL    C8548981   1.915   2.371   5.156  0.3415 -0.4683  0.5935
  129MOL    C8648982   1.977   2.467   5.241 -0.9767  0.2514  0.2022
  129MOL    C8748983   2.042   2.579   5.184  0.6600  0.0395  0.3395
  129MOL    C8848984   2.032   2.597   5.040 -0.0099  0.5570  0.2535
  129MOL    H8948985   1.960   2.447   4.381  0.5695  0.2773  0.5351
  129MOL    H9048986   1.982   2.591   4.587 -1.2265 -0.7863 -4.5293
  129MOL    H9148987   1.960   2.328   4.751 -1.4843 -0.4201 -2.2639
  129MOL    H9248988   1.828   2.446   4.743 -1.2700 -1.8397 -0.0223
  129MOL    H9348989   1.850   2.316   4.958 -3.0886  1.4069 -0.5047
  129MOL    H9448990   1.866   2.283   5.194 -0.4020 -0.2453  0.1688
  129MOL    H9548991   1.975   2.450   5.348  3.6318  3.8660  1.0431
  129MOL    H9648992   2.087   2.651   5.251 -0.0247 -0.9077  1.8427
  129MOL    C9748993   2.089   2.725   4.979 -0.0336 -0.0395 -0.4480
  129MOL    C9848994   2.015   2.864   4.985  0.0072  0.4614  0.1884
  129MOL    O9948995   2.114   2.821   5.077 -0.2477  0.0394 -0.1491
  129MOL   C10048996   1.880   2.901   5.051  1.2979 -0.1756  0.8932
  129MOL   O10148997   1.791   2.799   5.068  0.7235 -0.4753 -0.5917
  129MOL   C10248998   1.731   2.785   5.194 -0.2588 -0.0607  0.3838
  129MOL   C10348999   1.806   2.783   5.314 -0.1718 -0.0263  0.2202
  129MOL   C10449000   1.733   2.766   5.437 -0.0570 -0.2218  0.1836
  129MOL   C10549001   1.586   2.764   5.446  0.9013  0.0553  0.1838
  129MOL   C10649002   1.523   2.766   5.319  0.3530  0.1547 -0.2534
  129MOL   C10749003   1.588   2.771   5.196 -0.1276  0.1997 -0.7192
  129MOL   H10849004   2.166   2.708   4.904  0.5862 -0.4977  0.2894
  129MOL   H10949005   2.060   2.948   4.932 -0.0123  0.1802 -0.2736
  129MOL   H11049006   1.829   2.976   4.990 -0.5374  0.1046  2.7198
  129MOL   H11149007   1.919   2.957   5.136  4.1689 -1.1270  0.2795
  129MOL   H11249008   1.913   2.790   5.310 -0.1799  0.1917  0.4007
  129MOL   H11349009   1.792   2.772   5.528  1.9133  3.1209 -1.1965
  129MOL   H11449010   1.530   2.760   5.538  0.9272  0.7884  0.2292
  129MOL   H11549011   1.416   2.756   5.312  0.5155 -2.3873  0.3209
  129MOL   C11649012   1.513   2.770   5.064  0.4573 -0.1407 -0.1658
  129MOL   C11749013   1.511   2.641   4.989 -0.1857  0.8057 -0.2542
  129MOL   O11849014   1.401   2.692   5.063 -0.1257  0.1781 -0.5583
  129MOL   C11949015   1.571   2.505   5.045  0.5418 -0.0099 -0.6520
  129MOL   O12049016   1.524   2.383   4.981 -0.6250 -0.6565  0.0407
  129MOL   C12149017   1.396   2.339   4.997  0.4393 -0.2775 -0.0078
  129MOL   C12249018   1.317   2.389   5.102 -1.0194 -0.2400  0.7233
  129MOL   C12349019   1.187   2.346   5.131 -0.4772 -0.4342 -0.0783
  129MOL   C12449020   1.132   2.242   5.052 -0.4645  0.6136 -0.6036
  129MOL   C12549021   1.205   2.185   4.949  0.6571 -0.4607  0.1897
  129MOL   C12649022   1.340   2.228   4.925 -0.9918  1.2083 -0.3018
  129MOL   H12749023   1.506   2.866   5.013 -3.0286  1.2711  2.7268
  129MOL   H12849024   1.504   2.633   4.881 -1.3454 -3.1960  0.0263
  129MOL   H12949025   1.585   2.495   5.152  2.9056  2.9997 -0.6555
  129MOL   H13049026   1.675   2.504   5.012  0.3928 -0.4727 -1.1236
  129MOL   H13149027   1.361   2.466   5.164 -0.2872 -0.1951  0.1659
  129MOL   H13249028   1.124   2.372   5.215  1.0393 -3.1528  1.9544
  129MOL   H13349029   1.039   2.197   5.084 -0.3593 -0.1415 -1.3587
  129MOL   H13449030   1.159   2.114   4.883  2.7046 -1.7570  0.1002
  129MOL   C13549031   1.413   2.169   4.817 -0.2238  0.2006  0.1794
  129MOL   C13649032   1.518   2.062   4.828  0.2030 -0.7801  1.7055
  129MOL   O13749033   1.382   2.033   4.799 -0.2964 -0.1438 -0.5466
  129MOL   C13849034   1.567   1.996   4.958 -0.0798 -0.0137 -0.0835
  129MOL   O13949035   1.642   1.878   4.935 -0.4921  0.2268 -0.9538
  129MOL   C14049036   1.775   1.881   4.893  0.0361  0.4704  0.2827
  129MOL   C14149037   1.834   2.002   4.853  0.4289  0.2352 -0.1178
  129MOL   C14249038   1.969   2.009   4.808  0.0313 -0.2605  0.1983
  129MOL   C14349039   2.040   1.894   4.787  0.4762  0.1684  0.0358
  129MOL   C14449040   1.988   1.774   4.836  0.2217  0.3511 -0.0330
  129MOL   C14549041   1.856   1.765   4.883  0.1039 -0.6620 -0.4288
  129MOL   H14649042   1.415   2.226   4.724  0.4330  1.2610  0.8321
  129MOL   H14749043   1.582   2.055   4.741 -1.5861 -0.5175  0.3531
  129MOL   H14849044   1.479   1.963   5.014  1.3807 -1.0210  1.6900
  129MOL   H14949045   1.618   2.061   5.030 -0.2705 -0.3273  0.3397
  129MOL   H15049046   1.787   2.099   4.860  0.8304  0.2441  3.4203
  129MOL   H15149047   2.025   2.097   4.779  0.6426 -0.8175 -0.3583
  129MOL   H15249048   2.143   1.903   4.756  1.0538  0.8429  2.1084
  129MOL   H15349049   2.049   1.688   4.813 -0.4320  0.0616 -0.6908
  129MOL   C15449050   1.784   1.640   4.939  0.1437  0.2373 -0.2487
  129MOL   C15549051   1.767   1.508   4.875 -0.0965  1.0819  0.3807
  129MOL   O15649052   1.887   1.542   4.950  0.4895  0.1390 -0.0933
  129MOL   C15749053   1.794   1.476   4.731 -0.0225  0.2938 -0.1661
  129MOL   O15849054   1.687   1.427   4.660 -0.0917 -0.1501  0.3598
  129MOL   C15949055   1.605   1.514   4.589 -0.4473 -0.2576 -0.9579
  129MOL   C16049056   1.639   1.656   4.586  0.3997  0.6257  0.6535
  129MOL   C16149057   1.567   1.743   4.508  0.1313 -0.1756 -0.1333
  129MOL   C16249058   1.461   1.690   4.435 -0.4646 -0.7927 -0.1327
  129MOL   C16349059   1.427   1.556   4.436  0.4951 -0.6765  0.7005
  129MOL   C16449060   1.496   1.466   4.518  0.2645 -0.2402  0.7478
  129MOL   H16549061   1.729   1.647   5.032 -0.3409  0.8000 -0.5755
  129MOL   H16649062   1.710   1.431   4.925 -0.0146  0.6206 -0.2256
  129MOL   H16749063   1.862   1.391   4.730  0.7939  0.9482 -1.3871
  129MOL   H16849064   1.851   1.553   4.680  0.5621 -1.4949 -2.3091
  129MOL   H16949065   1.721   1.700   4.641  2.4356 -2.0914 -0.1341
  129MOL   H17049066   1.592   1.846   4.485 -0.0620  0.1255  0.9788
  129MOL   H17149067   1.418   1.755   4.362 -1.6759 -1.1757  0.2283
  129MOL   H17249068   1.360   1.512   4.365 -0.8211  0.9145  0.9243
  129MOL   C17349069   1.451   1.328   4.528 -0.8166 -0.2140  0.6435
  129MOL   C17449070   1.341   1.272   4.623 -0.0123 -0.5136  0.6199
  129MOL   O17549071   1.318   1.296   4.480 -0.1881  0.9441 -0.3105
  129MOL   C17649072   1.258   1.367   4.716  0.0640  0.4638  0.5111
  129MOL   O17749073   1.138   1.302   4.741  0.2221 -0.9046 -0.1706
  129MOL   C17849074   1.031   1.371   4.810  0.4675 -0.1922  0.4105
  129MOL   C17949075   1.051   1.490   4.883 -0.0891 -0.4610  1.0046
  129MOL   C18049076   0.942   1.562   4.932  0.4203 -0.4930  0.0150
  129MOL   C18149077   0.818   1.522   4.906  0.2967 -0.8496  0.4256
  129MOL   C18249078   0.792   1.398   4.843  0.4450  0.9001  0.7421
  129MOL   C18349079   0.898   1.325   4.794  0.5579 -0.0253  0.3077
  129MOL   H18449080   1.528   1.257   4.498  2.2546  2.4670  1.8675
  129MOL   H18549081   1.333   1.166   4.647 -0.1580 -0.1986  2.0109
  129MOL   H18649082   1.256   1.473   4.691 -1.3268  0.4661  0.5936
  129MOL   H18749083   1.299   1.356   4.817  0.3072 -0.6522  0.2969
  129MOL   H18849084   1.149   1.531   4.899  0.0416 -1.0591  1.7333
  129MOL   H18949085   0.960   1.655   4.985  1.5582 -0.6722 -0.0488
  129MOL   H19049086   0.727   1.576   4.930  1.2323  1.4136 -1.0309
  129MOL   H19149087   0.689   1.372   4.826  0.6855 -0.0782  0.7221
  129MOL   C19249088   0.881   1.201   4.728  0.2312 -0.2377  0.0300
  129MOL   C19349089   0.873   1.067   4.804 -0.8140  0.6883 -0.4962
  129MOL   O19449090   0.759   1.131   4.763  0.2500 -0.6117 -0.5621
  129MOL   C19549091   0.906   1.047   4.949  1.1153 -0.4605 -0.2146
  129MOL   O19649092   0.944   0.911   4.963  0.5216  0.0515  0.2133
  129MOL   C19749093   1.068   0.871   4.922 -0.3863  0.0712 -0.2662
  129MOL   C19849094   1.167   0.953   4.863 -0.6184 -0.1288  0.0833
  129MOL   C19949095   1.289   0.893   4.816 -0.3890 -0.0762  0.0019
  129MOL   C20049096   1.308   0.754   4.828  0.4004 -0.1768  0.1039
  129MOL   C20149097   1.212   0.680   4.896 -0.6879 -0.3696 -0.2135
  129MOL   C20249098   1.093   0.734   4.939 -0.5118 -0.3743  0.5056
  129MOL   H20349099   0.915   1.203   4.625  1.8796 -0.9772  0.5356
  129MOL   H20449100   0.909   0.988   4.739  1.0533  1.0658  0.0362
  129MOL   H20549101   0.821   1.076   5.010  1.4800  1.2915 -0.4936
  129MOL   H20649102   0.974   1.126   4.982  0.3536  0.4842 -0.8590
  129MOL   H20749103   1.145   1.058   4.853 -2.5320 -0.7541 -3.3514
  129MOL   H20849104   1.365   0.945   4.759 -0.2316 -1.0030 -0.6426
  129MOL   H20949105   1.387   0.698   4.781  0.0871 -2.2841  1.9712
  129MOL   H21049106   1.230   0.574   4.897  0.5038 -0.2071 -1.9833
  129MOL   C21149107   0.991   0.644   5.002  0.2072 -0.0639 -0.2011
  129MOL   C21249108   0.910   0.551   4.917  0.7822 -0.7416  0.4016
  129MOL   O21349109   1.018   0.501   4.995  0.2054  0.5362 -0.3693
  129MOL   C21449110   0.918   0.526   4.770 -0.2912 -0.0014 -0.0956
  129MOL   O21549111   0.838   0.615   4.700  0.6590  0.5472 -0.4090
  129MOL   C21649112   0.713   0.574   4.658  0.8492 -0.1844 -0.0092
  129MOL   C21749113   0.655   0.451   4.693 -0.0340  0.3959  0.6437
  129MOL   C21849114   0.525   0.410   4.652 -0.3582  0.0237  0.1519
  129MOL   C21949115   0.443   0.503   4.587 -0.1447 -0.2645  0.8138
  129MOL   C22049116   0.501   0.619   4.546 -0.6040 -0.8855  0.5715
  129MOL   C22149117   0.637   0.659   4.573  0.0623  0.6814  0.1940
  129MOL   H22249118   0.945   0.682   5.093  0.4409 -3.4964  1.4377
  129MOL   H22349119   0.811   0.528   4.953  0.1153 -0.3687 -1.1331
  129MOL   H22449120   0.899   0.423   4.740 -0.3681 -0.4121  1.3079
  129MOL   H22549121   1.018   0.544   4.731  0.0742  1.6038  1.4648
  129MOL   H22649122   0.698   0.372   4.752 -1.0040  0.6592  1.7247
  129MOL   H22749123   0.482   0.313   4.674 -1.2112  0.4426  0.3548
  129MOL   H22849124   0.343   0.475   4.556  0.1435 -0.0454 -0.3106
  129MOL   H22949125   0.448   0.690   4.484  0.1178  0.2830  1.2462
  129MOL   C23049126   0.688   0.790   4.522 -0.2987 -0.8748 -0.6323
  129MOL   C23149127   0.779   0.807   4.415 -0.1292  0.5236  0.3915
  129MOL   O23249128   0.639   0.821   4.396  0.2103  0.2884 -0.2117
  129MOL   C23349129   0.830   0.705   4.320 -0.1023  0.1548 -0.5351
  129MOL   O23449130   0.877   0.774   4.209 -0.1100  0.3424  0.3604
  129MOL   C23549131   0.916   0.704   4.099  0.4735  0.1042 -0.0814
  129MOL   C23649132   0.884   0.568   4.082  0.2981  0.3090 -0.3046
  129MOL   C23749133   0.909   0.493   3.962 -0.3728 -0.8377  0.1475
  129MOL   C23849134   0.983   0.561   3.862  0.9062 -0.1056  0.9373
  129MOL   C23949135   1.020   0.697   3.882 -0.2499  0.6405 -0.3881
  129MOL   C24049136   0.975   0.771   3.991 -0.9406 -0.0267  0.1816
  129MOL   H24149137   0.677   0.868   4.597 -0.0519 -1.9260  0.5230
  129MOL   H24249138   0.832   0.902   4.421 -0.0319  0.5352 -0.5791
  129MOL   H24349139   0.753   0.631   4.297  0.4560  0.0690 -2.1965
  129MOL   H24449140   0.910   0.661   4.380 -0.1190  0.1402 -0.5235
  129MOL   H24549141   0.834   0.507   4.157 -1.3334 -1.2517 -2.5855
  129MOL   H24649142   0.887   0.387   3.960 -1.0130 -0.7074  0.0119
  129MOL   H24749143   1.017   0.521   3.768 -1.1922 -0.7662  0.4204
  129MOL   H24849144   1.069   0.748   3.801 -0.4594  1.0175 -0.2779
  129MOL   C24949145   1.004   0.924   3.991  0.1091  0.0334 -0.2981
  129MOL   C25049146   1.110   0.997   4.075 -0.1074 -0.0083 -0.8267
  129MOL   O25149147   1.136   0.954   3.938 -0.1370  0.2747 -0.5627
  129MOL   C25249148   1.208   0.932   4.169 -0.1438  0.3590  0.1216
  129MOL   O25349149   1.337   0.990   4.152  0.0051  0.3244 -0.2486
  129MOL   C25449150   1.424   0.965   4.256  1.0948 -0.1461  0.0817
  129MOL   C25549151   1.388   0.893   4.372  0.3717  0.3074  0.5138
  129MOL   C25649152   1.488   0.861   4.464 -0.9404  0.3062  0.9933
  129MOL   C25749153   1.625   0.899   4.447  0.1087  0.8494 -0.4285
  129MOL   C25849154   1.660   0.962   4.323  0.2642  0.2007 -0.2938
  129MOL   C25949155   1.560   0.999   4.233 -0.2555 -0.7897 -0.6747
  129MOL   H26049156   0.920   0.980   3.952 -0.2890 -0.8321 -0.7136
  129MOL   H26149157   1.100   1.105   4.084 -0.8417 -0.1479  0.1646
  129MOL   H26249158   1.217   0.825   4.151 -1.5603  0.0175  1.4185
  129MOL   H26349159   1.161   0.943   4.266  1.9652 -1.2267  1.3856
  129MOL   H26449160   1.285   0.867   4.390  0.3550 -0.0663 -0.1144
  129MOL   H26549161   1.452   0.807   4.550 -0.8094  1.1314  1.5815
  129MOL   H26649162   1.704   0.871   4.516  0.3340 -1.8610 -1.7219
  129MOL   H26749163   1.765   0.977   4.303  0.3257 -0.3876 -0.4379
  129MOL   C26849164   1.604   1.058   4.092  0.2547  0.6913 -0.2787
  129MOL   C26949165   1.571   1.192   4.038  0.0106  0.0447  0.4425
  129MOL   O27049166   1.702   1.157   4.098 -0.0194  0.0782 -0.1819
  129MOL   C27149167   1.496   1.302   4.111  0.6661  0.1000  0.2244
  129MOL   O27249168   1.546   1.430   4.081  0.1324  0.0169 -0.1439
  129MOL   C27349169   1.660   1.472   4.132  0.1486  0.0201  0.4449
  129MOL   C27449170   1.725   1.411   4.245  0.0325 -0.0048 -0.4055
  129MOL   C27549171   1.845   1.473   4.291  0.5860 -0.4770 -0.2892
  129MOL   C27649172   1.913   1.574   4.218 -0.1334  0.0673  0.0733
  129MOL   C27749173   1.842   1.628   4.111 -0.8972 -0.6497  0.3688
  129MOL   C27849174   1.716   1.582   4.069 -0.0094 -0.0611  0.3101
  129MOL   H27949175   1.618   0.975   4.022 -0.1010  1.2321 -1.0034
  129MOL   H28049176   1.567   1.198   3.930 -1.8720 -0.0962  0.4939
  129MOL   H28149177   1.491   1.289   4.219  0.4677 -0.1813  0.1812
  129MOL   H28249178   1.395   1.308   4.070 -0.6029  0.1723  3.2353
  129MOL   H28349179   1.683   1.330   4.302  0.8021  2.6950  4.1817
  129MOL   H28449180   1.891   1.456   4.387  0.5215 -1.1254 -0.3651
  129MOL   H28549181   2.004   1.622   4.252  0.0082 -0.2150  0.0955
  129MOL   H28649182   1.885   1.708   4.054  0.7633  0.2263  2.7856
  129MOL   C28749183   1.653   1.642   3.945 -0.1171  0.3788 -0.7288
  129MOL   C28849184   1.521   1.716   3.953  0.4334  0.2364 -0.3375
  129MOL   O28949185   1.638   1.786   3.951  0.5574 -0.1459 -0.1964
  129MOL   C29049186   1.443   1.744   4.079 -0.4835  0.0456 -0.0598
  129MOL   O29149187   1.319   1.810   4.066 -0.0294 -0.0500  0.9736
  129MOL   C29249188   1.319   1.947   4.034  0.1915  0.4256  0.2760
  129MOL   C29349189   1.441   2.014   4.027  0.0140 -0.6883  0.1400
  129MOL   C29449190   1.437   2.149   3.984 -0.4553  0.0779  0.0854
  129MOL   C29549191   1.321   2.216   3.955 -0.7033  0.6972 -0.4163
  129MOL   C29649192   1.197   2.151   3.972  0.0321  0.3645  0.5062
  129MOL   C29749193   1.196   2.011   4.000  0.6178 -0.1506 -0.5475
  129MOL   H29849194   1.697   1.603   3.854  0.6127 -0.3494 -0.0636
  129MOL   H29949195   1.467   1.735   3.861  1.6789 -0.1596 -1.1686
  129MOL   H30049196   1.499   1.793   4.159  0.2426 -2.1387  0.8094
  129MOL   H30149197   1.425   1.649   4.130 -0.0355  0.6704  1.2965
  129MOL   H30249198   1.540   1.975   4.044  0.7667  1.1922  0.1854
  129MOL   H30349199   1.529   2.205   3.977  0.0729 -0.8640 -0.6876
  129MOL   H30449200   1.327   2.314   3.909  0.7775 -0.9297 -3.9399
  129MOL   H30549201   1.106   2.205   3.948 -0.4869 -1.2768 -1.3266
  129MOL   C30649202   1.067   1.928   4.009 -0.2422  0.1032  0.0781
  129MOL   C30749203   0.993   1.910   4.135  0.3278 -0.5364 -0.4057
  129MOL   O30849204   0.952   2.013   4.045 -0.0449 -0.0187 -0.6178
  129MOL   C30949205   1.056   1.951   4.272 -0.2727  0.0450  0.3402
  129MOL   O31049206   0.955   1.935   4.375 -0.6210 -0.3157  0.3748
  129MOL   C31149207   0.941   1.813   4.435 -0.1917  0.4920  0.2665
  129MOL   C31249208   1.021   1.698   4.413 -0.4183 -0.8072 -0.2033
  129MOL   C31349209   0.992   1.574   4.464 -0.0087 -0.2013  0.4853
  129MOL   C31449210   0.888   1.561   4.554 -0.1069  0.0255 -0.0866
  129MOL   C31549211   0.803   1.671   4.580 -0.0629 -0.0951  0.0818
  129MOL   C31649212   0.834   1.795   4.520 -0.2889 -0.6502 -1.4601
  129MOL   H31749213   1.036   1.856   3.934  0.6321 -2.4842  2.1067
  129MOL   H31849214   0.930   1.822   4.141  1.4904 -1.2988  0.8909
  129MOL   H31949215   1.071   2.058   4.263 -3.2210  0.5151  0.4435
  129MOL   H32049216   1.147   1.898   4.298 -1.1449 -0.5116  2.4319
  129MOL   H32149217   1.107   1.702   4.348  0.1560  1.4035  0.6519
  129MOL   H32249218   1.050   1.490   4.430 -1.0680  0.1787 -2.3620
  129MOL   H32349219   0.877   1.463   4.597 -0.1944 -0.9846 -2.3292
  129MOL   H32449220   0.716   1.660   4.643 -1.1144  1.7441 -0.9977
  129MOL   C32549221   0.758   1.920   4.554  0.2932  0.4749 -0.0424
  129MOL   C32649222   0.645   1.968   4.459  1.0974  0.0265 -0.3829
  129MOL   O32749223   0.621   1.894   4.579 -0.6252 -0.3793 -0.3209
  129MOL   C32849224   0.633   1.905   4.319  0.3913 -0.2859  0.0672
  129MOL   O32949225   0.521   1.957   4.256  0.1324 -0.9492  0.4314
  129MOL   C33049226   0.398   1.907   4.274  0.5795 -0.3416 -0.1468
  129MOL   C33149227   0.378   1.769   4.302 -0.2542 -0.0599  0.4611
  129MOL   C33249228   0.244   1.719   4.318 -0.1682 -0.3905  0.0752
  129MOL   C33349229   0.134   1.803   4.292  0.6585  0.6001  0.7421
  129MOL   C33449230   0.156   1.941   4.262  0.3401  0.0464 -0.1082
  129MOL   C33549231   0.285   1.992   4.253 -0.3790  0.3831  0.3986
  129MOL   H33649232   0.811   1.995   4.612 -0.3088  1.0829 -0.2631
  129MOL   H33749233   0.612   2.072   4.468  0.6410  0.0136 -1.7824
  129MOL   H33849234   0.660   1.800   4.320 -1.7339 -0.9127  4.8556
  129MOL   H33949235   0.710   1.946   4.254  0.6266  1.8077  1.6163
  129MOL   H34049236   0.462   1.706   4.327 -0.5001  0.2611  2.1704
  129MOL   H34149237   0.235   1.615   4.347 -0.1889 -0.4475 -0.1297
  129MOL   H34249238   0.037   1.759   4.305  2.6412 -3.2659  3.3530
  129MOL   H34349239   0.079   2.016   4.254  1.1808  1.0925  1.5103
  129MOL   C34449240   0.303   2.135   4.232 -0.6572 -0.3869  0.3334
  129MOL   C34549241   0.257   2.259   4.306  0.0647 -0.3470 -0.2163
  129MOL   O34649242   0.362   2.190   4.347  0.1448  0.2052  0.0179
  129MOL   C34749243   0.149   2.264   4.405  0.4965 -0.3721  1.0538
  129MOL   O34849244   0.132   2.400   4.456  0.7903 -0.0839 -0.0197
  129MOL   C34949245   0.224   2.450   4.547 -0.6530  0.0563 -0.0971
  129MOL   C35049246   0.344   2.379   4.584 -0.7108  0.1826  0.0479
  129MOL   C35149247   0.430   2.434   4.680  0.3295 -0.4914 -0.0233
  129MOL   C35249248   0.399   2.560   4.730 -0.2515  0.3235 -0.1510
  129MOL   C35349249   0.286   2.629   4.690  0.8360  0.3558 -0.2763
  129MOL   C35449250   0.192   2.572   4.602 -0.4145  0.2748  0.6076
  129MOL   H35549251   0.348   2.142   4.133 -0.0239 -0.9906  0.5761
  129MOL   H35649252   0.282   2.357   4.265 -1.1317 -0.0861 -0.3416
  129MOL   H35749253   0.168   2.190   4.482  1.8227 -1.5083 -0.3376
  129MOL   H35849254   0.057   2.235   4.354 -0.1297  1.3422  1.1459
  129MOL   H35949255   0.374   2.281   4.550  4.1861  1.4922  0.2733
  129MOL   H36049256   0.523   2.383   4.704 -0.1775 -2.3019 -1.7676
  129MOL   H36149257   0.474   2.606   4.793  2.1633  1.0038 -3.3863
  129MOL   H36249258   0.263   2.722   4.740 -0.3302 -0.1463  0.1404
  129MOL   C36349259   0.063   2.647   4.560 -0.1910  0.6683 -0.4648
  129MOL   C36449260   8.102   2.619   4.623  0.9440  0.1589 -0.4361
  129MOL   O36549261   0.008   2.738   4.657  0.0702 -0.2438  0.2390
  129MOL   C36649262   8.093   2.513   4.732 -0.1590 -0.2642  0.7332
  129MOL   O36749263   7.964   2.498   4.796  0.4806  0.0849  0.8459
  129MOL   C36849264   7.932   2.570   4.912  0.4639  0.5729 -0.6615
  129MOL   C36949265   8.000   2.690   4.949  0.3174 -0.5677 -0.4261
  129MOL   C37049266   7.974   2.750   5.072  0.5153  0.0598 -0.1906
  129MOL   C37149267   7.889   2.692   5.165  0.5383 -0.0199 -0.0750
  129MOL   C37249268   7.810   2.580   5.119  0.4165 -0.9131  0.7618
  129MOL   C37349269   7.829   2.521   4.992 -0.4844  0.0795  0.4993
  129MOL   H37449270   0.060   2.678   4.456 -0.0430 -0.3008 -0.7611
  129MOL   H37549271   8.017   2.648   4.563 -1.3762 -0.6414  2.3293
  129MOL   H37649272   0.003   2.534   4.803  0.3935  2.1672 -0.5473
  129MOL   H37749273   8.106   2.415   4.687  0.3178 -0.2241  0.7904
  129MOL   H37849274   8.079   2.729   4.887 -0.6938 -0.6295 -1.7956
  129MOL   H37949275   8.036   2.834   5.101 -1.8029  2.1397 -1.1063
  129MOL   H38049276   7.882   2.735   5.264  0.3727  1.5109 -0.7359
  129MOL   H38149277   7.747   2.531   5.192  0.5613  0.0573  1.5327
  129MOL   H38249278   7.777   2.428   4.977  1.4927 -1.0214  0.3367
  130MOL     C149279   1.592   0.675   7.943  0.5563  0.1107  0.1169
  130MOL     C249280   1.628   0.665   7.804  0.8595 -0.3486 -0.4545
  130MOL     O349281   1.518   0.582   7.863 -0.4274 -0.2792 -0.1909
  130MOL     C449282   1.742   0.587   7.760  0.3291 -0.1703  0.8503
  130MOL     O549283   1.839   0.579   7.871 -0.2381 -0.2316 -0.4362
  130MOL     C649284   1.947   0.489   7.869  0.5557  0.0332  0.3609
  130MOL     C749285   1.987   0.425   7.749  0.1471 -0.0100  0.3428
  130MOL     C849286   2.098   0.332   7.750  0.0944 -0.5052 -0.1888
  130MOL     C949287   2.167   0.308   7.868  0.1866 -0.0089 -0.1738
  130MOL    C1049288   2.127   0.379   7.982  0.2460  0.0954 -0.4077
  130MOL    C1149289   2.010   0.454   7.990 -0.3459  0.3798 -0.1828
  130MOL    H1249290   1.536   0.764   7.972 -3.2514 -2.1418 -0.1436
  130MOL    H1349291   1.585   0.734   7.732  0.8910  1.6779  1.4329
  130MOL    H1449292   1.793   0.641   7.681  0.1137  0.0957  0.8947
  130MOL    H1549293   1.721   0.486   7.723  0.4282  0.2570 -0.3940
  130MOL    H1649294   1.942   0.445   7.652  3.0855 -0.1452 -1.0948
  130MOL    H1749295   2.121   0.288   7.653 -2.0465  3.0780 -2.4409
  130MOL    H1849296   2.243   0.231   7.869 -1.1349 -1.3161  1.7668
  130MOL    H1949297   2.184   0.359   8.072  0.1265  1.0590 -0.1076
  130MOL    H2049298   1.656   0.638   8.023  0.9983  1.5726  0.4600
  130MOL    C2149299   1.959   0.510   8.115 -0.0078 -0.0709  0.5367
  130MOL    C2249300   1.851   0.449   0.037 -0.0322  0.2335 -0.5176
  130MOL    O2349301   1.988   0.420   0.062 -0.7322  0.3157 -0.1099
  130MOL    C2449302   1.771   0.342   8.143  0.1020  0.5081 -0.9325
  130MOL    O2549303   1.699   0.271   0.074 -0.0468  0.5144  0.2715
  130MOL    C2649304   1.567   0.306   0.090 -0.3033 -0.0644 -0.1190
  130MOL    C2749305   1.504   0.416   0.031  1.1750 -0.9786 -0.1898
  130MOL    C2849306   1.367   0.441   0.046 -0.7136 -0.6442 -0.1105
  130MOL    C2949307   1.292   0.358   0.133  0.0268  0.1251 -0.0569
  130MOL    C3049308   1.354   0.258   0.202 -0.8595 -0.1345 -0.2382
  130MOL    C3149309   1.491   0.234   0.182 -0.6564  0.0162  0.0626
  130MOL    H3249310   1.998   0.607   8.145 -1.3844  0.7412 -0.2320
  130MOL    H3349311   1.803   0.509   0.113 -0.2790 -2.3997  1.4562
  130MOL    H3449312   1.847   0.271   8.111 -0.3269 -0.3193 -0.1402
  130MOL    H3549313   1.706   0.383   8.066 -0.5169 -0.0805 -0.7269
  130MOL    H3649314   1.552   0.489   8.138 -1.9431  0.9716 -0.3864
  130MOL    H3749315   1.320   0.526   8.169 -1.6141  0.1795  2.1987
  130MOL    H3849316   1.186   0.373   0.147 -0.0380  0.6945 -1.0900
  130MOL    H3949317   1.281   0.200   0.256 -0.0028 -1.0956 -0.0945
  130MOL    C4049318   1.556   0.105   0.242  0.4706 -0.6855  0.4124
  130MOL    C4149319   1.586   0.086   0.392  0.8182 -0.4472  0.6041
  130MOL    O4249320   1.466   0.036   0.327  0.1286  0.0557  0.0833
  130MOL    C4349321   1.557   0.198   0.490  0.8405  0.4679 -0.1991
  130MOL    O4449322   1.579   0.163   0.625 -0.3887 -0.0304 -0.3748
  130MOL    C4549323   1.487   0.111   0.709 -0.3709 -0.4451  0.1852
  130MOL    C4649324   1.382   0.036   0.662  0.1226 -0.1628 -0.1406
  130MOL    C4749325   1.288   8.151   0.751  0.0113  0.8406 -0.1869
  130MOL    C4849326   1.301   0.002   0.887 -0.4529  0.8665  0.1054
  130MOL    C4949327   1.406   0.078   0.942 -0.1667  0.3858  0.4128
  130MOL    C5049328   1.493   0.135   0.850 -0.6184  0.4581 -0.1391
  130MOL    H5149329   1.602   0.050   0.161 -0.9939  0.6761 -1.3864
  130MOL    H5249330   1.657   0.009   0.421 -0.6706 -1.4401  1.6992
  130MOL    H5349331   1.457   0.240   0.481  0.5565 -0.0859  0.3104
  130MOL    H5449332   1.628   0.272   0.452  0.7051 -0.0994 -1.5947
  130MOL    H5549333   1.379   0.011   0.557  1.0168 -2.0892  0.2782
  130MOL    H5649334   1.199   8.100   0.717  0.3873  0.5308 -0.7105
  130MOL    H5749335   1.245   8.109   0.955 -0.2523 -1.2883 -1.6926
  130MOL    H5849336   1.410   0.095   1.048 -2.4433 -1.7013  0.8857
  130MOL    C5949337   1.608   0.218   0.901 -0.1823  0.0456 -0.3753
  130MOL    C6049338   1.623   0.366   0.880  0.0399  0.1079 -0.2795
  130MOL    O6149339   1.569   0.313   1.003 -0.0401 -0.1263  0.0492
  130MOL    C6249340   1.529   0.447   0.790  0.2458  0.4599 -0.0286
  130MOL    O6349341   1.589   0.535   0.700  0.1794 -0.1599 -0.5168
  130MOL    C6449342   1.526   0.578   0.586 -0.4806  0.0108 -0.8251
  130MOL    C6549343   1.395   0.556   0.555 -0.2425 -0.1130  0.3020
  130MOL    C6649344   1.337   0.609   0.435 -0.4011 -0.0142 -0.8662
  130MOL    C6749345   1.424   0.681   0.349 -0.5005  0.0514 -0.7150
  130MOL    C6849346   1.557   0.707   0.387  0.0974  0.0378  0.2791
  130MOL    C6949347   1.605   0.655   0.508  0.0801  0.0584  0.5824
  130MOL    H7049348   1.687   0.154   0.939  0.2478  0.6057 -0.3078
  130MOL    H7149349   1.728   0.395   0.883  0.2894 -0.3246 -3.1320
  130MOL    H7249350   1.468   0.501   0.864 -0.9614  1.1571 -1.4977
  130MOL    H7349351   1.447   0.391   0.745  0.6019 -1.8050  2.0788
  130MOL    H7449352   1.324   0.513   0.624  1.1596  1.4919  2.7828
  130MOL    H7549353   1.233   0.602   0.408 -0.4039 -2.7717 -0.3196
  130MOL    H7649354   1.397   0.731   0.257  1.3543  3.3285  0.4516
  130MOL    H7749355   1.625   0.760   0.321 -0.9617  0.1879 -0.6958
  130MOL    C7849356   1.746   0.686   0.562  0.9631  0.2350  0.2572
  130MOL    C7949357   1.875   0.612   0.516  0.3577 -0.1073 -0.0515
  130MOL    O8049358   1.829   0.727   0.452 -0.0235 -0.1144 -0.1510
  130MOL    C8149359   1.871   0.484   0.439  0.2789 -0.1558  0.0564
  130MOL    O8249360   1.983   0.408   0.489 -0.2429  0.9645  0.2659
  130MOL    C8349361   2.005   0.284   0.434 -0.1382  0.1869  0.3422
  130MOL    C8449362   1.941   0.233   0.318 -0.1774 -0.7444 -0.6127
  130MOL    C8549363   1.954   0.092   0.284 -0.2027 -1.3012  0.5973
  130MOL    C8649364   2.046   0.014   0.351  0.2885 -0.1013 -0.0504
  130MOL    C8749365   2.109   0.070   0.469  0.1801 -0.9150  0.4212
  130MOL    C8849366   2.083   0.202   0.515 -0.0119  0.0942  0.2435
  130MOL    H8949367   1.750   0.753   0.647  2.3541  1.5114 -0.7815
  130MOL    H9049368   1.959   0.622   0.584  0.0645 -1.3356  0.5098
  130MOL    H9149369   1.871   0.512   0.334 -0.6165  0.7360  0.2904
  130MOL    H9249370   1.783   0.432   0.477 -0.6297  0.8277 -0.6774
  130MOL    H9349371   1.866   0.297   0.274 -0.3023 -0.2154  0.3554
  130MOL    H9449372   1.897   0.040   0.209 -1.6250  0.8062  0.1568
  130MOL    H9549373   2.082   8.089   0.315  0.9552  0.8365 -1.9349
  130MOL    H9649374   2.196   0.030   0.519 -1.1675 -1.5772  2.3100
  130MOL    C9749375   2.163   0.258   0.632 -0.1318  0.8608 -0.1329
  130MOL    C9849376   2.110   0.236   0.775  0.0560 -0.1469 -0.1983
  130MOL    O9949377   2.207   0.151   0.720  0.1883  0.3123  0.8015
  130MOL   C10049378   1.975   0.158   0.804 -0.0375  0.3084 -0.4708
  130MOL   O10149379   1.929   0.171   0.939  0.4095 -0.1868 -0.1784
  130MOL   C10249380   2.003   0.120   1.046 -0.0589  0.6128  0.5323
  130MOL   C10349381   2.122   0.042   1.030  0.0652 -0.0771 -0.1716
  130MOL   C10449382   2.177   8.144   1.140  0.1190  0.1396 -0.3860
  130MOL   C10549383   2.140   0.012   1.272 -0.2477  0.2644  0.3150
  130MOL   C10649384   2.030   0.100   1.284 -0.5449 -0.4013 -0.1469
  130MOL   C10749385   1.962   0.151   1.171  0.0815 -0.9342 -0.6007
  130MOL   H10849386   2.236   0.337   0.614 -1.1510  1.4099 -1.8628
  130MOL   H10949387   2.137   0.313   0.847 -1.3296  2.2345 -2.1659
  130MOL   H11049388   1.989   0.056   0.768 -1.8361  0.2951 -1.1991
  130MOL   H11149389   1.901   0.208   0.742 -1.5278 -2.1063 -0.6733
  130MOL   H11249390   2.166   0.025   0.933 -2.6063 -0.7275 -1.2938
  130MOL   H11349391   2.269   8.088   1.135  0.9604  1.3360  1.2767
  130MOL   H11449392   2.184   8.146   1.363 -1.7466  2.6777  2.0436
  130MOL   H11549393   1.997   0.127   1.383 -0.8154  0.0628 -0.3633
  130MOL   C11649394   1.843   0.238   1.188  0.3419  0.3655 -0.5484
  130MOL   C11749395   1.716   0.195   1.255 -0.0590 -0.3412 -0.4240
  130MOL   O11849396   1.814   0.275   1.322 -0.0742  0.1869 -0.0384
  130MOL   C11949397   1.680   0.056   1.308 -0.2907 -0.4824 -0.6130
  130MOL   O12049398   1.656   8.136   1.196 -0.5334  0.0530 -0.0062
  130MOL   C12149399   1.610   8.013   1.230 -0.5847 -0.1805  0.1242
  130MOL   C12249400   1.594   7.973   1.364  0.5916  0.6128  0.8193
  130MOL   C12349401   1.532   7.849   1.381 -0.1398  0.1521 -0.4711
  130MOL   C12449402   1.501   7.767   1.272  0.0643  0.0346 -0.2460
  130MOL   C12549403   1.519   7.807   1.140 -0.6407 -0.0374  0.4659
  130MOL   C12649404   1.584   7.924   1.122 -0.7473 -0.5441 -0.3927
  130MOL   H12749405   1.847   0.321   1.117  0.2923  0.0767 -0.8916
  130MOL   H12849406   1.632   0.258   1.225 -0.1659  0.3591  1.2655
  130MOL   H12949407   1.585   0.064   1.360  1.0955 -0.6043  1.9851
  130MOL   H13049408   1.765   0.016   1.364 -0.1380 -0.5278 -0.8761
  130MOL   H13149409   1.626   8.031   1.449  1.5035  2.5593 -0.7936
  130MOL   H13249410   1.523   7.808   1.480  0.7328  1.5464  0.1911
  130MOL   H13349411   1.467   7.666   1.291 -0.7839  0.2411 -0.6482
  130MOL   H13449412   1.493   7.741   1.058  1.0856  0.8658 -0.8563
  130MOL   C13549413   1.611   7.957   0.986  0.9788 -0.1048  0.3681
  130MOL   C13649414   1.745   7.957   0.934 -1.3372  0.1081  0.3547
  130MOL   O13749415   1.657   7.847   0.905 -0.2397 -0.1364 -0.0486
  130MOL   C13849416   1.868   7.917   1.021 -0.0200 -0.1212 -0.4836
  130MOL   O13949417   1.971   7.856   0.935  0.0132  0.0501 -0.6126
  130MOL   C14049418   2.077   7.789   0.983  0.7440 -0.0816 -0.8216
  130MOL   C14149419   2.117   7.806   1.119 -0.2696 -0.0382 -0.3852
  130MOL   C14249420   2.228   7.728   1.161  0.8258 -0.5516  0.4257
  130MOL   C14349421   2.296   7.645   1.073 -0.5720 -0.2155  0.3568
  130MOL   C14449422   2.266   7.640   0.937  0.4179 -0.2880 -0.1216
  130MOL   C14549423   2.147   7.699   0.893  0.0110 -0.5253 -0.5200
  130MOL   H14649424   1.545   8.022   0.930 -1.9484 -2.8403  0.4835
  130MOL   H14749425   1.764   8.006   0.839  0.2074  0.9202  1.0725
  130MOL   H14849426   1.830   7.858   1.104 -1.1559  0.9752 -0.2024
  130MOL   H14949427   1.902   8.011   1.067  2.1548 -0.7363 -0.7697
  130MOL   H15049428   2.066   7.868   1.191 -0.8625 -1.8570  0.8039
  130MOL   H15149429   2.263   7.730   1.263  1.7452 -0.0969  0.1101
  130MOL   H15249430   2.381   7.586   1.105  0.4811  1.4176  0.5814
  130MOL   H15349431   2.318   7.573   0.869  2.6288  1.2888 -0.0414
  130MOL   C15449432   2.101   7.675   0.752  0.4214  0.2382  0.1776
  130MOL   C15549433   2.143   7.778   0.644  0.0217  0.4190 -0.2260
  130MOL   O15649434   2.213   7.659   0.662  0.5652  0.0542 -0.8275
  130MOL   C15749435   2.215   7.906   0.672  0.3597  0.0377  0.7034
  130MOL   O15849436   2.307   7.939   0.563  0.7734  0.2347 -0.1058
  130MOL   C15949437   2.441   7.905   0.585  0.4408 -0.2806 -0.0417
  130MOL   C16049438   2.482   7.768   0.570  0.3821 -0.5282  0.0418
  130MOL   C16149439   2.608   7.727   0.613  0.6596  0.6091 -0.2153
  130MOL   C16249440   2.693   7.820   0.675  0.2853 -0.3386  0.3429
  130MOL   C16349441   2.656   7.958   0.671  0.0703 -0.2787  0.1847
  130MOL   C16449442   2.526   8.005   0.639  0.2205  0.3455 -0.0813
  130MOL   H16549443   2.036   7.589   0.743  2.2260 -1.2666  1.1262
  130MOL   H16649444   2.074   7.776   0.560  3.7383  0.8243 -3.4017
  130MOL   H16749445   2.259   7.899   0.771  2.7069  2.7249 -0.1052
  130MOL   H16849446   2.142   7.987   0.666  2.2192  1.8112  1.3916
  130MOL   H16949447   2.409   7.698   0.530  1.2470 -1.7733  0.6163
  130MOL   H17049448   2.647   7.627   0.594 -1.1006 -0.1762  0.2589
  130MOL   H17149449   2.789   7.780   0.704  0.1292 -1.1943 -0.2883
  130MOL   H17249450   2.724   8.023   0.725  1.2826  0.3461 -2.0409
  130MOL   C17349451   2.478   8.146   0.674 -0.3225  0.8146 -0.6445
  130MOL   C17449452   2.484   0.034   0.806  0.7923  0.4121  0.2955
  130MOL   O17549453   2.588   0.066   0.711  0.4150 -0.8009 -0.0756
  130MOL   C17649454   2.530   8.126   0.932  0.4773 -0.1362  0.9468
  130MOL   O17749455   2.571   0.045   1.037 -0.3425 -0.3536 -0.0573
  130MOL   C17849456   2.562   0.011   1.170 -0.5995  0.1658 -0.1405
  130MOL   C17949457   2.504   8.055   1.216  0.6299  0.4221  0.6967
  130MOL   C18049458   2.520   8.009   1.345  0.4707 -0.1300  0.5310
  130MOL   C18149459   2.591   8.085   1.438 -0.4582  0.2431 -0.2833
  130MOL   C18249460   2.636   0.042   1.403  0.3462 -0.4163 -0.4851
  130MOL   C18349461   2.621   0.093   1.273  1.0851  0.6798  0.1253
  130MOL   H18449462   2.420   0.017   0.591  0.6320 -2.1066 -2.8484
  130MOL   H18549463   2.423   0.121   0.825 -0.8985 -0.7406  0.2749
  130MOL   H18649464   2.613   8.058   0.912  0.4263 -0.0510  0.4254
  130MOL   H18749465   2.439   8.079   0.969 -0.1502  0.0292 -0.3623
  130MOL   H18849466   2.454   7.986   1.149  1.2256  3.5245 -3.1390
  130MOL   H18949467   2.471   7.916   1.371 -4.1608  2.0014 -0.0544
  130MOL   H19049468   2.602   8.047   1.538 -1.3421  0.6368 -0.0374
  130MOL   H19149469   2.685   0.090   1.486 -2.3750  1.3082  0.1842
  130MOL   C19249470   2.708   0.209   1.235  1.3076 -0.1594  0.2750
  130MOL   C19349471   2.661   0.339   1.172 -0.1680 -0.9726  0.0374
  130MOL   O19449472   2.681   0.327   1.314 -0.2933 -0.6520 -0.1785
  130MOL   C19549473   2.516   0.362   1.130  0.1497 -0.1472 -0.2061
  130MOL   O19649474   2.479   0.499   1.143 -0.3354  0.1411 -0.1371
  130MOL   C19749475   2.345   0.527   1.140  0.5459 -0.4825 -0.3036
  130MOL   C19849476   2.245   0.450   1.084  0.8101  0.1567 -0.4064
  130MOL   C19949477   2.111   0.491   1.079 -0.4892  0.1659  0.1359
  130MOL   C20049478   2.069   0.603   1.148 -0.3812 -0.0137 -0.1977
  130MOL   C20149479   2.167   0.685   1.211  0.8159  0.2475 -0.1053
  130MOL   C20249480   2.307   0.657   1.199 -0.2942 -0.0041  0.0940
  130MOL   H20349481   2.812   0.178   1.229  1.6009  0.8109  0.0925
  130MOL   H20449482   2.731   0.411   1.129 -1.1009  0.1437  0.3505
  130MOL   H20549483   2.460   0.294   1.194 -2.8645  2.6641  0.2607
  130MOL   H20649484   2.505   0.344   1.023 -2.6198 -0.8811  0.1469
  130MOL   H20749485   2.272   0.360   1.031 -0.5510 -0.8218  0.5333
  130MOL   H20849486   2.038   0.429   1.030  0.6458 -1.5134  0.5501
  130MOL   H20949487   1.966   0.637   1.150 -0.5157 -0.3975 -0.5928
  130MOL   H21049488   2.139   0.781   1.251  0.9568 -0.0218  0.6378
  130MOL   C21149489   2.409   0.755   1.262  0.3853 -0.3557  0.2398
  130MOL   C21249490   2.458   0.877   1.193 -0.0363  0.0044  0.9648
  130MOL   O21349491   2.355   0.886   1.293 -0.4706 -0.1133  0.4686
  130MOL   C21449492   2.423   0.913   1.046  0.5923 -0.6559  0.1102
  130MOL   O21549493   2.458   1.048   1.019 -0.0836  0.0872 -0.1222
  130MOL   C21649494   2.413   1.108   0.904  0.1614  0.3915  0.3572
  130MOL   C21749495   2.342   1.043   0.795 -0.0028  0.8839  0.0729
  130MOL   C21849496   2.298   1.113   0.679 -0.3296 -0.0273  0.4890
  130MOL   C21949497   2.329   1.252   0.676  0.0276  0.3631 -0.0281
  130MOL   C22049498   2.399   1.319   0.781  0.4637 -0.2126 -0.2278
  130MOL   C22149499   2.440   1.248   0.893  0.3147 -0.7727 -0.6224
  130MOL   H22249500   2.463   0.703   1.341  0.3694 -0.3972  0.2237
  130MOL   H22349501   2.560   0.893   1.228  0.2566 -2.5126  1.4068
  130MOL   H22449502   2.320   0.890   1.019 -0.2068  1.0253  1.5795
  130MOL   H22549503   2.488   0.850   0.986  0.5511  1.0053 -1.7189
  130MOL   H22649504   2.335   0.936   0.796  1.4103  0.7839 -0.4423
  130MOL   H22749505   2.243   1.080   0.592 -0.9314 -0.8507  1.1740
  130MOL   H22849506   2.290   1.314   0.597 -0.8320  1.1620  0.9985
  130MOL   H22949507   2.420   1.424   0.768 -1.5627  0.3603  0.8252
  130MOL   C23049508   2.510   1.316   1.007 -0.6329  0.5532 -1.1549
  130MOL   C23149509   2.653   1.376   1.004 -0.3552 -0.7142  0.2129
  130MOL   O23249510   2.535   1.457   0.988 -0.0352  0.0227 -0.4780
  130MOL   C23349511   2.746   1.366   0.885 -0.1614 -0.8722  0.2161
  130MOL   O23449512   2.774   1.231   0.851  0.2137 -0.7960 -0.2400
  130MOL   C23549513   2.882   1.202   0.771  0.0769 -0.4238  1.4147
  130MOL   C23649514   2.947   1.295   0.686 -0.3502 -0.2808 -0.7652
  130MOL   C23749515   3.052   1.255   0.601 -0.2495 -0.5081 -0.7171
  130MOL   C23849516   3.110   1.131   0.614 -0.5790  0.2518  0.2526
  130MOL   C23949517   3.056   1.038   0.706  0.2589  0.2732 -0.6566
  130MOL   C24049518   2.942   1.077   0.782  0.5056  0.2971  0.4042
  130MOL   H24149519   2.466   1.290   1.104  0.1117 -0.7138 -1.1561
  130MOL   H24249520   2.700   1.378   1.102  0.6764  1.0826 -0.2995
  130MOL   H24349521   2.835   1.418   0.920 -0.6259  0.3806 -0.4464
  130MOL   H24449522   2.703   1.436   0.813  0.5718  0.3016  0.9094
  130MOL   H24549523   2.915   1.398   0.692 -3.2354 -1.1726 -0.1950
  130MOL   H24649524   3.094   1.328   0.534 -0.1768  1.3964  1.3394
  130MOL   H24749525   3.203   1.106   0.564 -1.1671 -0.4710 -0.4882
  130MOL   H24849526   3.098   0.939   0.713 -2.1356 -0.6467  1.6332
  130MOL   C24949527   2.890   0.979   0.884 -0.9969  0.0054  0.2054
  130MOL   C25049528   2.775   0.888   0.870  0.1386  0.3180 -0.1218
  130MOL   O25149529   2.904   0.842   0.842 -0.1063  0.0262  0.3439
  130MOL   C25249530   2.687   0.880   0.746  0.2409  0.5560 -0.4135
  130MOL   O25349531   2.576   0.803   0.756 -0.5902  0.1450 -0.6362
  130MOL   C25449532   2.585   0.663   0.764  0.1985 -0.0904 -0.9496
  130MOL   C25549533   2.707   0.594   0.746  0.1736  0.3834  0.4385
  130MOL   C25649534   2.713   0.455   0.754 -0.5115 -0.2382  0.0335
  130MOL   C25749535   2.590   0.387   0.782 -0.4046  0.3185  0.0922
  130MOL   C25849536   2.467   0.455   0.789 -0.6956  0.0067  0.4200
  130MOL   C25949537   2.461   0.595   0.775 -0.0023  0.4508 -0.2679
  130MOL   H26049538   2.935   0.993   0.982 -0.2801 -1.2642  0.0810
  130MOL   H26149539   2.732   0.843   0.960 -0.7814  1.4452  0.0153
  130MOL   H26249540   2.745   0.836   0.664  2.1469 -1.1087  1.7657
  130MOL   H26349541   2.659   0.982   0.722 -0.8408  0.6425  1.1980
  130MOL   H26449542   2.805   0.639   0.740 -0.8464  3.0208  2.8233
  130MOL   H26549543   2.807   0.403   0.750  0.2244  1.1604 -1.7416
  130MOL   H26649544   2.589   0.279   0.792  1.6898  0.1780 -0.8026
  130MOL   H26749545   2.390   0.384   0.816  0.5189 -2.6522 -2.7264
  130MOL   C26849546   2.330   0.659   0.773 -0.5508 -1.0126 -0.2578
  130MOL   C26949547   2.278   0.729   0.648  0.1029  0.0620 -0.8175
  130MOL   O27049548   2.252   0.588   0.676 -0.4955  0.5023 -0.1956
  130MOL   C27149549   2.368   0.765   0.530  0.1296 -0.0851 -0.8529
  130MOL   O27249550   2.282   0.759   0.426 -0.0254 -0.4265  0.1122
  130MOL   C27349551   2.330   0.762   0.300 -0.0478 -0.3893  0.0473
  130MOL   C27449552   2.470   0.764   0.268 -0.1107 -0.7808 -0.2226
  130MOL   C27549553   2.515   0.761   0.136  0.9541  0.2526 -0.0307
  130MOL   C27649554   2.415   0.765   0.037  0.2678  0.7220  0.2333
  130MOL   C27749555   2.278   0.754   0.059  0.2688  1.1071 -0.2557
  130MOL   C27849556   2.231   0.757   0.195  0.0966 -0.7036  0.1234
  130MOL   H27949557   2.277   0.682   0.865  2.3201  1.4029  0.8499
  130MOL   H28049558   2.188   0.790   0.658 -0.4606 -0.4294 -2.7279
  130MOL   H28149559   2.446   0.690   0.516 -0.6013 -1.2432  1.0116
  130MOL   H28249560   2.415   0.863   0.534  1.1183 -0.5667 -0.4804
  130MOL   H28349561   2.546   0.751   0.343  0.5425 -1.8059 -1.0646
  130MOL   H28449562   2.620   0.770   0.112  0.7014  1.8590 -0.6256
  130MOL   H28549563   2.452   0.769   8.105  0.2095 -1.8243  0.0809
  130MOL   H28649564   2.201   0.767   8.154 -0.7898 -1.0345  0.4487
  130MOL   C28749565   2.085   0.779   0.229 -0.2340  0.7269 -0.2251
  130MOL   C28849566   2.026   0.915   0.229 -0.4769  0.2931  0.1179
  130MOL   O28949567   2.016   0.827   0.119 -0.2789  0.4818 -0.2091
  130MOL   C29049568   2.120   1.036   0.210  0.1892 -0.1405 -0.5237
  130MOL   O29149569   2.059   1.166   0.167 -0.0676 -0.2472  0.4571
  130MOL   C29249570   2.127   1.286   0.188  0.1222 -0.8305  0.2641
  130MOL   C29349571   2.217   1.310   0.296 -0.5968  0.1447  1.5456
  130MOL   C29449572   2.293   1.432   0.298  0.3163 -0.2579  0.3284
  130MOL   C29549573   2.283   1.524   0.191  0.8572 -0.6882 -0.4445
  130MOL   C29649574   2.196   1.493   0.087  0.4538  0.4089  0.0419
  130MOL   C29749575   2.113   1.385   0.087  0.2749  0.0304  0.0964
  130MOL   H29849576   2.042   0.684   0.259 -1.1736  1.1363 -0.2633
  130MOL   H29949577   1.931   0.931   0.279 -0.6722  0.3835 -0.2718
  130MOL   H30049578   2.195   1.028   0.132  0.0100 -1.5755 -0.5578
  130MOL   H30149579   2.188   1.052   0.294  1.5953 -0.6396 -1.5629
  130MOL   H30249580   2.226   1.246   0.383  1.6626  0.3307  1.4751
  130MOL   H30349581   2.350   1.459   0.386  0.7668  0.4739 -0.1814
  130MOL   H30449582   2.336   1.618   0.189 -2.5068  1.2830 -1.2072
  130MOL   H30549583   2.185   1.562   0.005  0.8557  1.4399  0.8420
  130MOL   C30649584   2.032   1.353   8.131  0.0564  0.8509 -0.1932
  130MOL   C30749585   1.877   1.334   8.131 -0.4907 -0.9144  0.4665
  130MOL   O30849586   1.941   1.461   8.097  0.3183  0.1585  0.5567
  130MOL   C30949587   1.796   1.337   0.086 -0.6422  0.7717  0.3383
  130MOL   O31049588   1.660   1.305   0.061 -0.0006 -0.0249 -0.4661
  130MOL   C31149589   1.625   1.175   0.055 -0.5309 -0.4134 -0.3554
  130MOL   C31249590   1.720   1.067   0.071 -0.4120 -0.1196  0.4115
  130MOL   C31349591   1.670   0.936   0.074  0.1108  1.0006 -0.5445
  130MOL   C31449592   1.533   0.905   0.070  0.0285 -0.5892  0.1120
  130MOL   C31549593   1.445   1.013   0.058  0.2766  0.4866  0.2572
  130MOL   C31649594   1.488   1.144   0.056  0.1734  0.5256  0.6511
  130MOL   H31749595   2.090   1.320   8.045 -1.1722  1.3363 -1.2205
  130MOL   H31849596   1.814   1.308   8.047  0.8381  2.0740 -1.5393
  130MOL   H31949597   1.791   1.438   0.128  0.1090  1.0465 -0.2135
  130MOL   H32049598   1.839   1.280   0.168 -0.0529  0.7745  0.0350
  130MOL   H32149599   1.822   1.095   0.093 -0.8051  0.2724  1.8544
  130MOL   H32249600   1.733   0.848   0.078 -0.5710  0.5779  1.0941
  130MOL   H32349601   1.496   0.804   0.075 -0.5590 -0.4965 -1.9809
  130MOL   H32449602   1.338   1.002   0.066  0.3024  1.1697  1.6926
  130MOL   C32549603   1.392   1.265   0.034 -0.3604  0.0192 -0.4180
  130MOL   C32649604   1.356   1.313   8.062  0.3379 -0.0295  0.0584
  130MOL   O32749605   1.280   1.216   8.131  0.2897  0.7854 -0.0451
  130MOL   C32849606   1.440   1.263   7.947 -0.4229 -0.1150  0.0452
  130MOL   O32949607   1.402   1.342   7.829 -0.2096 -0.3255  0.2066
  130MOL   C33049608   1.478   1.454   7.798 -0.9299 -0.5249 -0.3571
  130MOL   C33149609   1.577   1.525   7.879 -0.1448  0.7855  0.5780
  130MOL   C33249610   1.654   1.637   7.827 -0.7200  0.0296 -0.1174
  130MOL   C33349611   1.637   1.689   7.699  0.5536 -0.5061 -0.2167
  130MOL   C33449612   1.548   1.619   7.618  0.9480 -0.1663 -0.8100
  130MOL   C33549613   1.470   1.511   7.671  0.2919  0.3322 -0.8125
  130MOL   H33649614   1.379   1.334   0.118 -1.5983 -0.2184 -0.4103
  130MOL   H33749615   1.317   1.414   8.062  1.8120  0.5633 -1.0165
  130MOL   H33849616   1.433   1.156   7.929  0.1764 -0.3170  1.0332
  130MOL   H33949617   1.542   1.291   7.974 -0.8089  3.6107 -1.9648
  130MOL   H34049618   1.601   1.486   7.977 -2.4171  0.2614  0.9530
  130MOL   H34149619   1.736   1.688   7.875 -0.3239 -1.4728  0.8285
  130MOL   H34249620   1.684   1.779   7.662  0.3722  0.1652  1.1483
  130MOL   H34349621   1.540   1.654   7.516  0.0760  0.0325 -0.6734
  130MOL   C34449622   1.372   1.452   7.574  0.9289  0.6676  0.5822
  130MOL   C34549623   1.220   1.444   7.589 -0.1805 -0.6187  0.3233
  130MOL   O34649624   1.293   1.549   7.511  0.1817  0.3495 -0.2233
  130MOL   C34749625   1.135   1.493   7.709 -0.3352 -0.4320  0.3559
  130MOL   O34849626   0.994   1.470   7.691 -0.2666  0.5606  0.7250
  130MOL   C34949627   0.927   1.555   7.606  0.0780 -0.1528  0.3228
  130MOL   C35049628   0.995   1.654   7.527 -0.0032  0.0070 -1.0208
  130MOL   C35149629   0.925   1.724   7.436  0.0655  0.1844 -0.0045
  130MOL   C35249630   0.785   1.712   7.430  0.1139  0.6128  0.2871
  130MOL   C35349631   0.710   1.624   7.510 -0.6952  0.1265 -0.3733
  130MOL   C35449632   0.784   1.543   7.600  0.2373  0.4390  0.2777
  130MOL   H35549633   1.419   1.382   7.506 -2.2866 -0.9208 -0.0780
  130MOL   H35649634   1.164   1.382   7.519  2.0475 -1.2683 -0.9425
  130MOL   H35749635   1.162   1.597   7.729 -1.1924 -0.3758  1.2577
  130MOL   H35849636   1.159   1.438   7.800  1.3336  0.7892  0.7028
  130MOL   H35949637   1.097   1.687   7.522 -0.0899  0.4427 -0.0903
  130MOL   H36049638   0.966   1.786   7.357  1.0025 -0.1089  0.2415
  130MOL   H36149639   0.737   1.779   7.360  0.7171  0.6285 -0.1138
  130MOL   H36249640   0.603   1.638   7.510 -0.6718  0.3030  0.9348
  130MOL   C36349641   0.713   1.449   7.698  0.0340 -0.2287  0.1539
  130MOL   C36449642   0.664   1.487   7.836 -0.1276  0.4138 -0.1200
  130MOL   O36549643   0.580   1.493   7.719  0.0168  0.1078 -0.5088
  130MOL   C36649644   0.716   1.613   7.902 -1.2152  0.0630  0.2048
  130MOL   O36749645   0.614   1.656   7.992  0.0975  0.0945  0.9466
  130MOL   C36849646   0.532   1.765   7.967  0.5852 -0.0449 -0.6249
  130MOL   C36949647   0.493   1.808   7.841 -0.4784  0.3979  0.1806
  130MOL   C37049648   0.401   1.909   7.830  0.3104 -0.7843  0.2333
  130MOL   C37149649   0.357   1.978   7.941 -1.3468 -0.7491  0.2059
  130MOL   C37249650   0.388   1.934   8.067  0.2205  0.6299 -0.5711
  130MOL   C37349651   0.475   1.823   8.082 -0.1682  0.5601 -0.1709
  130MOL   H37449652   0.723   1.345   7.668  0.6021 -0.6302  1.6956
  130MOL   H37549653   0.664   1.400   7.901  1.5496  2.3732  2.5556
  130MOL   H37649654   0.748   1.685   7.826 -0.9229  0.6786  0.9083
  130MOL   H37749655   0.813   1.599   7.949 -0.9030  1.1084 -0.1228
  130MOL   H37849656   0.527   1.762   7.749 -1.5222  0.8084 -0.4251
  130MOL   H37949657   0.371   1.937   7.730 -1.0245 -4.6108 -0.5230
  130MOL   H38049658   0.293   2.064   7.925 -0.3517  0.0339  0.3197
  130MOL   H38149659   0.342   1.989   8.148 -3.5456  0.8415 -2.7760
  130MOL   H38249660   0.504   1.783   0.008  0.9993 -1.1865 -1.2133
   8.16986   8.16986   8.16986
