Control file title. For DL_FIELD 4.10
49956
    1MOL     C1    1   2.865   0.374   0.804 -0.0100 -0.1679  0.0300
    1MOL     C2    2   2.946   0.273   0.887  0.1197  0.4310 -0.5190
    1MOL     C3    3   3.046   0.348   0.977 -0.4572 -0.7554  0.0535
    1MOL     C4    4   3.000   0.410   1.111 -0.4611 -0.0108  0.4098
    1MOL     C5    5   3.109   0.486   1.183 -0.4064  0.5969 -0.7696
    1MOL     C6    6   2.934   0.305   1.204  1.1477  0.9817 -0.4376
    1MOL     H7    7   2.819   0.443   0.875 -0.6768 -1.7125  1.1216
    1MOL     H8    8   2.921   0.425   0.725 -1.1327  0.0412 -0.6297
    1MOL     H9    9   2.879   0.218   0.952 -2.2945  1.6647 -1.9006
    1MOL    H10   10   3.128   0.282   1.008  0.2704 -1.1292 -2.5395
    1MOL    H11   11   3.090   0.432   0.923  0.7778 -0.5052  1.4237
    1MOL    H12   12   2.925   0.488   1.099  0.8297  1.0032 -1.2082
    1MOL    H13   13   3.189   0.428   1.229 -1.0159  0.1318 -0.2906
    1MOL    H14   14   3.156   0.546   1.105  0.2836  0.4402 -0.4775
    1MOL    H15   15   3.069   0.547   1.264 -0.4010 -1.8839  1.1506
    1MOL    H16   16   2.832   0.292   1.167  2.1162 -2.4930 -2.1540
    1MOL    H17   17   2.936   0.330   1.310  2.0156 -0.6967 -0.0255
    1MOL    H18   18   2.972   0.203   1.192  1.9041  1.4734 -2.4499
    1MOL    H19   19   2.788   0.323   0.747 -1.8420  0.9414  1.4523
    1MOL    C20   20   3.010   0.157   0.793 -0.3706  0.3038 -0.1653
    1MOL    C21   21   2.921   0.030   0.776 -0.3212  0.3961  0.6435
    1MOL    C22   22   2.931   7.717   0.632 -0.3574 -0.2755 -0.0125
    1MOL    C23   23   2.884   0.060   0.521  0.3443  0.3310 -0.1575
    1MOL    C24   24   2.923   0.001   0.384 -0.7759 -0.2852 -0.1967
    1MOL    C25   25   2.723   0.077   0.523 -0.2333  0.0941 -0.9175
    1MOL    H26   26   3.036   0.202   0.697  0.3081 -1.3198 -0.7539
    1MOL    H27   27   3.111   0.129   0.823 -1.1055 -0.5327  1.6202
    1MOL    H28   28   2.820   0.071   0.787  0.2999  1.6455  1.9563
    1MOL    H29   29   2.877   7.622   0.638  1.9533 -1.8408 -2.8100
    1MOL    H30   30   3.037   7.694   0.624  0.0680  1.6373 -0.0873
    1MOL    H31   31   2.931   0.159   0.523  0.0858  0.4615  3.4615
    1MOL    H32   32   2.915   7.645   0.379  2.4132 -0.5862  0.1786
    1MOL    H33   33   3.024   0.029   0.354  0.1232 -2.6243  0.5358
    1MOL    H34   34   2.864   0.049   0.306  2.4531  2.5538 -1.0115
    1MOL    H35   35   2.675   7.733   0.506 -0.1831 -0.5155  2.1724
    1MOL    H36   36   2.685   0.131   0.609 -0.9085 -1.2679 -0.3522
    1MOL    H37   37   2.695   0.149   0.445 -2.1139  1.2938  0.8113
    1MOL    C38   38   2.955   7.685   0.889  0.0991 -0.0177  0.1904
    1MOL    C39   39   2.844   7.576   0.915 -0.8503 -0.4724  0.0324
    1MOL    C40   40   2.769   7.592   1.056  0.5607 -0.1452 -0.7599
    1MOL    C41   41   2.692   7.720   1.073  0.4803 -0.2059 -0.1632
    1MOL    C42   42   2.643   7.747   1.209  0.5040  0.1434 -1.0228
    1MOL    C43   43   2.570   7.723   0.976  0.0914 -0.2666  0.2071
    1MOL    H44   44   2.988   7.733   0.981  2.2854 -1.4481  0.1868
    1MOL    H45   45   3.049   7.637   0.863 -0.5824  0.0741 -2.6163
    1MOL    H46   46   2.766   7.578   0.839  0.4958 -0.8133 -1.3834
    1MOL    H47   47   2.842   7.573   1.135  0.3697 -1.3120 -0.8443
    1MOL    H48   48   2.692   7.516   1.073  1.0019 -0.2024  1.0224
    1MOL    H49   49   2.755   0.053   1.044 -1.2123  0.3820 -2.2768
    1MOL    H50   50   2.572   7.669   1.234 -1.6218  2.0602 -0.8682
    1MOL    H51   51   2.729   7.745   1.277 -1.3424 -1.0065  1.3582
    1MOL    H52   52   2.590   0.090   1.217  1.5683  0.8916 -2.6914
    1MOL    H53   53   2.519   7.627   0.974  0.4248 -0.4927  1.9174
    1MOL    H54   54   2.616   7.738   0.878  1.8876 -0.6909  0.9589
    1MOL    H55   55   2.504   0.056   0.989  1.3611  0.6691  0.6271
    1MOL    C56   56   2.903   7.443   0.924 -0.4177  0.8286  0.7570
    1MOL    C57   57   2.950   7.374   0.796  0.4851  0.2298  0.6904
    1MOL    C58   58   2.837   7.310   0.722 -0.6721  0.4251  0.7294
    1MOL    C59   59   2.869   7.259   0.580 -0.0024  0.4565 -0.1792
    1MOL    C60   60   2.896   7.380   0.486  0.0404 -0.3666  0.2102
    1MOL    C61   61   2.746   7.170   0.542 -0.2247  0.3878 -0.2957
    1MOL    H62   62   2.825   7.380   0.967 -1.9229  1.8310 -0.4320
    1MOL    H63   63   2.991   7.453   0.987 -0.6442 -0.7706  1.3467
    1MOL    H64   64   2.989   7.444   0.722  0.4721  1.0228  1.4249
    1MOL    H65   65   2.785   7.234   0.781 -2.5277 -0.1893 -1.6338
    1MOL    H66   66   2.761   7.387   0.711 -2.2159 -1.0498  0.8150
    1MOL    H67   67   2.957   7.195   0.581  0.4712  1.0773 -1.3672
    1MOL    H68   68   2.998   7.418   0.485 -0.4041  0.8702  1.0929
    1MOL    H69   69   2.829   7.460   0.515 -0.0029 -1.2604  2.6537
    1MOL    H70   70   2.876   7.351   0.382  0.4103  0.0960  0.0122
    1MOL    H71   71   2.753   7.130   0.441 -0.9835  0.3941 -0.3495
    1MOL    H72   72   2.654   7.228   0.548  0.7677  1.9404  0.1580
    1MOL    H73   73   2.742   7.078   0.601  0.5246  0.6523  0.1895
    1MOL    C74   74   3.063   7.272   0.830  0.0611 -0.3906  0.1730
    1MOL    C75   75   3.196   7.285   0.745 -0.2200  0.7024 -0.2165
    1MOL    C76   76   3.289   7.161   0.777  0.3354  0.7687 -0.3282
    1MOL    C77   77   3.264   7.040   0.686  0.0354 -0.1947 -0.3126
    1MOL    C78   78   3.288   6.906   0.751  0.2189  0.2011 -0.0347
    1MOL    C79   79   3.358   7.042   0.568 -0.2429 -0.6421  0.5070
    1MOL    H80   80   3.037   7.169   0.805 -0.2477  0.1491 -1.8503
    1MOL    H81   81   3.099   7.273   0.933 -1.3368 -1.1301  0.6747
    1MOL    H82   82   3.180   7.281   0.637  0.9800 -1.9692 -0.3341
    1MOL    H83   83   3.393   7.191   0.784  0.3916  0.5711 -0.3207
    1MOL    H84   84   3.273   7.122   0.878 -0.7517 -1.0600 -1.1860
    1MOL    H85   85   3.158   7.031   0.661  0.3147  0.5906 -1.7885
    1MOL    H86   86   3.286   6.815   0.691 -2.1747  1.8576 -2.5526
    1MOL    H87   87   3.231   6.892   0.843 -1.0713 -4.3291 -1.3868
    1MOL    H88   88   3.390   6.912   0.791  1.1576 -0.8976 -2.1858
    1MOL    H89   89   3.348   6.954   0.505  0.2947  0.0570 -0.5706
    1MOL    H90   90   3.329   7.127   0.505  0.8264 -0.6915 -0.0562
    1MOL    H91   91   3.462   7.059   0.595  0.2195  0.3648 -1.7820
    1MOL    C92   92   3.279   7.410   0.764 -0.0285  0.0952  0.6350
    1MOL    C93   93   3.387   7.447   0.655  0.1869 -0.3558  0.5267
    1MOL    C94   94   3.339   7.484   0.507 -0.1619 -0.1614  0.1002
    1MOL    C95   95   3.448   7.490   0.398  0.3782  0.0635 -0.2848
    1MOL    C96   96   3.492   7.351   0.367 -0.7511 -0.2515  0.2071
    1MOL    C97   97   3.408   7.563   0.268  0.4644 -0.3743 -0.1363
    1MOL    H98   98   3.203   7.489   0.767 -0.0640  0.0646  0.5287
    1MOL    H99   99   3.329   7.415   0.861  3.4149  2.7423 -1.1948
    1MOL   H100  100   3.448   7.357   0.650  0.9165  0.2089 -1.0571
    1MOL   H101  101   3.299   7.585   0.517  2.0929  0.6706  0.9227
    1MOL   H102  102   3.258   7.422   0.468 -1.3018  1.9304 -0.9396
    1MOL   H103  103   3.532   7.538   0.450 -0.6405  1.2975  0.2482
    1MOL   H104  104   3.411   7.294   0.323 -0.7244  1.9773 -2.9464
    1MOL   H105  105   3.534   7.302   0.455  0.0703 -1.5147 -0.8790
    1MOL   H106  106   3.572   7.355   0.293  1.6802  1.3539  2.8046
    1MOL   H107  107   3.386   7.667   0.293  2.5346  0.1363 -0.2860
    1MOL   H108  108   3.317   7.523   0.224  0.4233 -0.8946  0.4140
    1MOL   H109  109   3.489   7.560   0.195 -1.0957  2.9020 -2.1114
    1MOL   C110  110   3.469   7.563   0.711 -0.2192  0.3525 -0.0397
    1MOL   C111  111   3.623   7.536   0.729 -0.2939  0.2620  0.2984
    1MOL   C112  112   3.701   7.665   0.766 -0.1340 -0.2913 -0.2943
    1MOL   C113  113   3.851   7.667   0.755 -0.1523  0.1849 -0.0939
    1MOL   C114  114   3.906   0.051   0.792 -0.3203 -0.5557  0.2898
    1MOL   C115  115   3.906   7.632   0.613 -0.7643 -0.4073 -0.5644
    1MOL   H116  116   3.427   7.587   0.809  2.0550 -0.6794  1.2207
    1MOL   H117  117   3.457   7.656   0.655 -0.1079  0.4157  0.0404
    1MOL   H118  118   3.672   7.503   0.637 -1.2010 -0.8153  0.1808
    1MOL   H119  119   3.676   7.700   0.867 -1.2312 -3.3478  0.5687
    1MOL   H120  120   3.669   7.737   0.691 -0.1072 -0.9248 -0.9101
    1MOL   H121  121   3.883   7.583   0.817 -2.0035  0.1811  0.8924
    1MOL   H122  122   3.866   0.065   0.892 -1.3107 -0.8748 -0.0607
    1MOL   H123  123   3.879   0.127   0.719  2.4652 -0.7738 -1.0417
    1MOL   H124  124   4.015   0.049   0.802 -0.2037  1.5404 -0.3988
    1MOL   H125  125   3.887   7.529   0.585  0.2737 -1.4618  2.4169
    1MOL   H126  126   4.013   7.645   0.627 -0.8801  0.0104 -0.0289
    1MOL   H127  127   3.870   7.706   0.541 -0.1353  0.5440  0.0808
    1MOL   C128  128   3.638   7.416   0.833 -0.5831 -0.3162  0.0799
    1MOL   C129  129   3.758   7.310   0.824  0.5501 -0.3627 -0.7700
    1MOL   C130  130   3.735   7.212   0.706 -0.1759 -0.5610  0.3314
    1MOL   C131  131   3.860   7.124   0.679  0.4168 -0.3066 -0.3034
    1MOL   C132  132   3.824   7.006   0.587  0.2451 -0.0738 -0.0097
    1MOL   C133  133   3.986   7.193   0.629 -0.1965 -0.1029 -0.8289
    1MOL   H134  134   3.550   7.351   0.833 -1.3307  0.6638 -1.2970
    1MOL   H135  135   3.631   7.464   0.931 -1.1740  0.5775 -0.3853
    1MOL   H136  136   3.852   7.363   0.809  2.3939 -2.8791  1.5588
    1MOL   H137  137   3.647   7.148   0.710 -0.1720 -0.7278 -1.8330
    1MOL   H138  138   3.719   7.260   0.609 -0.9653 -1.0182  0.2338
    1MOL   H139  139   3.893   7.071   0.769 -0.1521 -3.1030 -1.6958
    1MOL   H140  140   3.754   6.940   0.638 -1.0894  1.5642  0.3098
    1MOL   H141  141   3.906   6.942   0.556 -1.1364 -2.1384  0.5214
    1MOL   H142  142   3.773   7.018   0.492  1.6341  0.1010 -0.7511
    1MOL   H143  143   4.070   7.122   0.636  0.5958  0.9649  0.9283
    1MOL   H144  144   3.990   7.219   0.523 -1.1729 -2.6021 -1.5104
    1MOL   H145  145   4.028   7.269   0.695 -2.3046 -1.4900  2.2130
    1MOL   C146  146   3.764   7.227   0.956 -0.0222  0.1562  0.1040
    1MOL   C147  147   3.899   7.233   1.035 -0.4477  0.2994  0.9985
    1MOL   C148  148   3.893   7.142   1.161 -0.4021 -0.1891  0.1596
    1MOL   C149  149   3.944   6.998   1.125 -0.2519  0.6081  0.6440
    1MOL   C150  150   4.095   7.000   1.099  0.2853 -0.2699  0.4857
    1MOL   C151  151   3.906   6.890   1.232 -0.5556 -0.1622  0.1497
    1MOL   H152  152   3.738   7.125   0.930  1.2476 -0.6288  1.8284
    1MOL   H153  153   3.684   7.252   1.025 -2.5985 -5.7363 -0.4786
    1MOL   H154  154   3.982   7.206   0.969 -1.0240  0.9392  0.0014
    1MOL   H155  155   3.956   7.183   1.240 -1.8953  0.4601  1.0446
    1MOL   H156  156   3.786   7.133   1.184 -0.4356 -3.0835 -0.8981
    1MOL   H157  157   3.902   6.976   1.027 -0.8594 -1.2207  1.2979
    1MOL   H158  158   4.135   6.902   1.076 -1.7764 -0.8636 -0.7516
    1MOL   H159  159   4.150   7.043   1.183  0.9839  0.8865 -0.5497
    1MOL   H160  160   4.137   7.062   1.020  2.0965  0.6546  2.1286
    1MOL   H161  161   3.936   6.788   1.211  1.2535  0.3824  0.0324
    1MOL   H162  162   3.799   6.871   1.242 -0.5367 -0.2167  0.2458
    1MOL   H163  163   3.955   6.920   1.325  0.1967  1.2413 -0.6801
    1MOL   C164  164   3.927   7.375   1.077 -0.3336 -0.3647  0.1825
    1MOL   C165  165   4.078   7.418   1.089 -0.7809  0.0632  0.3805
    1MOL   C166  166   4.141   7.453   0.948  0.1071  0.1832 -0.3591
    1MOL   C167  167   4.295   7.443   0.937  0.5007 -0.5836  0.3181
    1MOL   C168  168   4.357   7.298   0.952  0.9162  0.3293 -0.2905
    1MOL   C169  169   4.334   7.509   0.802 -0.3957 -0.1337  0.0162
    1MOL   H170  170   3.878   7.455   1.021  0.2938  1.3381  2.0036
    1MOL   H171  171   3.883   7.391   1.175  0.4714  1.1512  0.3062
    1MOL   H172  172   4.128   7.333   1.133  0.1721  0.3128 -0.2016
    1MOL   H173  173   4.088   7.407   0.865  2.2108 -1.0034 -1.0812
    1MOL   H174  174   4.122   7.560   0.939 -1.3935  0.0365  0.7274
    1MOL   H175  175   4.329   7.509   1.016 -0.2247  0.2934 -0.0906
    1MOL   H176  176   4.312   7.252   1.040 -0.8932  0.0667 -1.3134
    1MOL   H177  177   4.466   7.295   0.949  0.9762  0.6551  1.3141
    1MOL   H178  178   4.316   7.235   0.873  1.3372 -0.7457  0.3459
    1MOL   H179  179   4.331   7.436   0.720 -0.6147  0.2874 -0.3516
    1MOL   H180  180   4.435   7.548   0.814 -0.9575  1.5866 -0.7425
    1MOL   H181  181   4.276   7.598   0.779  0.3890  0.5034  0.4853
    1MOL   C182  182   4.092   7.543   1.179 -0.1089  1.1155 -0.1287
    1MOL   C183  183   4.107   7.517   1.331  0.0001 -0.0354 -0.3232
    1MOL   C184  184   4.253   7.526   1.381  1.0310 -0.5148  0.0934
    1MOL   C185  185   4.339   7.408   1.326  0.5791  0.2951 -0.6076
    1MOL   C186  186   4.489   7.443   1.346 -0.1067 -0.2880  0.3668
    1MOL   C187  187   4.297   7.272   1.389  0.4130 -0.6233  0.0591
    1MOL   H188  188   4.006   7.609   1.169  0.0621  1.5057  0.9053
    1MOL   H189  189   4.178   7.605   1.155  0.3614  0.8153  0.7623
    1MOL   H190  190   4.068   7.418   1.355 -3.1550  0.8139 -1.6599
    1MOL   H191  191   4.253   7.529   1.489 -2.8173 -0.3480  0.1496
    1MOL   H192  192   4.291   7.617   1.335 -0.3918  0.0920  0.0816
    1MOL   H193  193   4.324   7.405   1.218 -0.7144  0.6313 -0.4560
    1MOL   H194  194   4.516   7.541   1.306  0.6346 -1.0152 -0.9307
    1MOL   H195  195   4.552   7.365   1.304 -1.8869 -0.0130 -2.9984
    1MOL   H196  196   4.505   7.447   1.454 -0.2544 -0.5315  0.3972
    1MOL   H197  197   4.270   7.273   1.495  0.0122 -0.6021 -0.0418
    1MOL   H198  198   4.389   7.214   1.383  2.3414  2.1493  1.6840
    1MOL   H199  199   4.229   7.220   1.322 -1.0533  0.3045  0.7853
    1MOL   C200  200   4.028   7.629   1.414 -0.3092 -0.1578  0.6286
    1MOL   C201  201   3.879   7.598   1.418  0.6534  0.2827  0.4271
    1MOL   C202  202   3.808   7.731   1.447  0.2174 -0.2084 -0.5726
    1MOL   C203  203   3.789   0.069   1.323  0.1053 -0.5655 -0.5515
    1MOL   C204  204   3.671   0.011   1.243  0.0774  0.3429  0.1882
    1MOL   C205  205   3.748   0.211   1.367  0.5909 -0.4726  0.2945
    1MOL   H206  206   4.053   7.721   1.362  1.4196 -1.3324 -0.6990
    1MOL   H207  207   4.059   7.634   1.518  2.1407 -0.0205 -0.0763
    1MOL   H208  208   3.846   7.562   1.321 -2.9813  0.1795  1.6266
    1MOL   H209  209   3.714   7.700   1.494  0.1644  2.4276  1.2095
    1MOL   H210  210   3.869   0.032   1.520  0.9539  0.3197 -1.5749
    1MOL   H211  211   3.879   0.082   1.264  0.2627 -0.3107 -0.2617
    1MOL   H212  212   3.569   0.028   1.278 -0.1191  2.9869 -1.5749
    1MOL   H213  213   3.687   7.659   1.216 -2.2745 -0.2006  0.7951
    1MOL   H214  214   3.671   0.062   1.147 -0.9259  0.3599  0.1895
    1MOL   H215  215   3.661   0.209   1.434 -0.7251  0.5845 -1.3444
    1MOL   H216  216   3.724   0.271   1.279 -0.5763 -0.3847  0.6543
    1MOL   H217  217   3.833   0.257   1.417 -0.8965  1.0935  1.4631
    1MOL   C218  218   3.842   7.493   1.533 -0.4305 -0.2096  1.0088
    1MOL   C219  219   3.697   7.437   1.537  0.7552  0.4210 -0.3393
    1MOL   C220  220   3.660   7.411   1.691 -0.5972 -0.0214  0.0413
    1MOL   C221  221   3.617   7.532   1.772 -1.1862  0.3492 -0.6289
    1MOL   C222  222   3.475   7.586   1.728  0.3675  0.4514 -0.0730
    1MOL   C223  223   3.623   7.492   1.920 -0.5188  0.4699 -0.3595
    1MOL   H224  224   3.913   7.411   1.527  1.1940  1.3310 -2.1607
    1MOL   H225  225   3.871   7.543   1.626  2.3227 -0.9234  0.5827
    1MOL   H226  226   3.632   7.512   1.492  0.4518 -0.2750 -1.0757
    1MOL   H227  227   3.580   7.337   1.693 -0.0988 -0.6244 -1.4319
    1MOL   H228  228   3.741   7.355   1.739  0.4223 -0.7288 -2.4042
    1MOL   H229  229   3.685   7.615   1.752 -1.6246  0.8141 -0.1742
    1MOL   H230  230   3.447   7.682   1.771 -0.2800  1.0562 -1.8283
    1MOL   H231  231   3.470   7.597   1.620 -1.8815 -0.9339 -0.1332
    1MOL   H232  232   3.400   7.511   1.751 -1.0691  1.5392 -1.1815
    1MOL   H233  233   3.600   7.568   1.994  1.3688  0.4954  0.2466
    1MOL   H234  234   3.568   7.400   1.939  1.2625 -0.7505 -0.9027
    1MOL   H235  235   3.729   7.472   1.937 -0.5678 -0.6823 -1.3296
    1MOL   C236  236   3.694   7.305   1.459  0.6568  0.6404  0.3520
    1MOL   C237  237   3.555   7.255   1.429 -0.1790  0.1472 -0.4706
    1MOL   C238  238   3.554   7.102   1.424  1.0551  0.2576 -0.0947
    1MOL   C239  239   3.563   7.030   1.560  0.5938 -1.2620  0.0689
    1MOL   C240  240   3.428   7.030   1.639  0.8037  0.3944 -0.0585
    1MOL   C241  241   3.606   6.886   1.538 -0.1617  0.3852 -0.6131
    1MOL   H242  242   3.758   7.239   1.517  0.4532 -0.2638 -0.4493
    1MOL   H243  243   3.747   7.327   1.367 -1.5737  0.8096 -0.9196
    1MOL   H244  244   3.485   7.295   1.504  1.1140 -1.5029  1.6852
    1MOL   H245  245   3.647   7.070   1.376  1.0250 -0.0573  0.0581
    1MOL   H246  246   3.474   7.061   1.363  0.8445  2.5070 -1.3623
    1MOL   H247  247   3.637   7.078   1.625  1.1254 -1.0716 -0.6744
    1MOL   H248  248   3.427   7.118   1.703  1.9239 -1.3331  2.3982
    1MOL   H249  249   3.404   6.941   1.698  1.5629  1.4716  1.9190
    1MOL   H250  250   3.342   7.039   1.572  0.8754 -1.3840 -0.4180
    1MOL   H251  251   3.704   6.865   1.495  0.0143 -0.6677  0.2773
    1MOL   H252  252   3.542   6.837   1.464 -0.1411 -1.8646  0.8075
    1MOL   H253  253   3.613   6.826   1.628  0.0177  0.6695 -0.4364
    1MOL   C254  254   3.514   7.310   1.288  0.0949 -0.1982 -0.4420
    1MOL   C255  255   3.360   7.311   1.256 -0.4053  0.4786 -0.0778
    1MOL   C256  256   3.320   7.444   1.184 -0.3766  0.2912  0.1088
    1MOL   C257  257   3.316   7.571   1.274  0.4402  0.2083 -0.1565
    1MOL   C258  258   3.231   7.562   1.403  0.7467  0.1112  0.3351
    1MOL   C259  259   3.278   7.693   1.194 -0.6317 -0.2040 -0.7071
    1MOL   H260  260   3.550   7.413   1.279  1.0845 -0.6296 -1.6363
    1MOL   H261  261   3.572   7.261   1.209  1.7347  1.3844 -0.2545
    1MOL   H262  262   3.317   7.304   1.355 -1.5806  0.0792 -0.6106
    1MOL   H263  263   3.226   7.438   1.128  1.7170  0.9402 -3.6827
    1MOL   H264  264   3.397   7.455   1.107  0.5720 -0.2027  0.9765
    1MOL   H265  265   3.413   7.589   1.320  0.1634  1.7293 -0.1417
    1MOL   H266  266   3.127   7.537   1.387  1.3247 -2.4028  0.3454
    1MOL   H267  267   3.221   7.656   1.458  0.1091  0.2329  0.0175
    1MOL   H268  268   3.272   7.492   1.475 -1.5761  1.1404  2.7165
    1MOL   H269  269   3.288   0.038   1.243 -1.6147  0.2837 -1.4506
    1MOL   H270  270   3.325   7.701   1.096  5.0009 -0.3318  1.7603
    1MOL   H271  271   3.170   7.689   1.182 -0.8884 -0.7610  1.6863
    1MOL   C272  272   3.313   7.184   1.182 -0.5257 -0.9100  0.3814
    1MOL   C273  273   3.198   7.109   1.244  0.5820 -0.1859  0.0590
    1MOL   C274  274   3.075   7.207   1.246  0.1311  0.2228  0.5371
    1MOL   C275  275   2.960   7.180   1.349 -0.3840  0.3770 -0.4285
    1MOL   C276  276   2.845   7.282   1.319 -0.3557  0.8867  0.7329
    1MOL   C277  277   3.007   7.191   1.493  0.9139 -0.3163  0.0811
    1MOL   H278  278   3.310   7.202   1.074  1.6119  1.6289  0.7221
    1MOL   H279  279   3.393   7.110   1.177  0.6854  0.3765  0.7435
    1MOL   H280  280   3.223   7.092   1.348 -2.5740  1.3863  1.1150
    1MOL   H281  281   3.033   7.206   1.145  0.7020  0.3788  0.2961
    1MOL   H282  282   3.112   7.306   1.272 -2.4588  0.9203  1.8126
    1MOL   H283  283   2.931   7.079   1.319  0.5829  0.5926 -2.1058
    1MOL   H284  284   2.878   7.383   1.341  1.5209  0.5475 -0.3893
    1MOL   H285  285   2.825   7.279   1.212 -0.0988  0.9625  0.6837
    1MOL   H286  286   2.757   7.240   1.369  0.0182  0.3157  0.9226
    1MOL   H287  287   3.070   7.278   1.514  1.1926 -0.8506  1.4976
    1MOL   H288  288   2.926   7.188   1.566  2.3960 -1.1993  1.7196
    1MOL   H289  289   3.073   7.108   1.516  0.7457 -0.7444 -0.9345
    1MOL   C290  290   3.160   6.969   1.171 -0.7866 -0.4782 -0.6860
    1MOL   C291  291   3.220   6.835   1.212  0.8748  0.3684 -0.0697
    1MOL   C292  292   3.359   6.821   1.165  0.1203  0.3266  0.0576
    1MOL   C293  293   3.418   6.680   1.166  0.4927  0.9506  0.1996
    1MOL   C294  294   3.374   6.594   1.043 -0.6713 -0.5623 -0.2390
    1MOL   C295  295   3.566   6.684   1.163 -0.0377  0.6752  0.2904
    1MOL   H296  296   3.056   6.966   1.203 -1.2105  3.0485 -1.4998
    1MOL   H297  297   3.162   6.974   1.062 -0.1186  1.7111 -0.5953
    1MOL   H298  298   3.161   6.768   1.149 -0.4792 -0.2937  1.8517
    1MOL   H299  299   3.418   6.880   1.235 -0.9514 -0.5927  1.7634
    1MOL   H300  300   3.374   6.874   1.071  0.1474  1.9905  0.9668
    1MOL   H301  301   3.389   6.630   1.258  1.6219 -1.6030 -0.7720
    1MOL   H302  302   3.423   6.497   1.044  0.4827  0.0241  0.1274
    1MOL   H303  303   3.406   6.648   0.954 -3.4490 -2.4976 -2.4873
    1MOL   H304  304   3.269   6.565   1.044 -0.5183 -1.1171 -0.3227
    1MOL   H305  305   3.613   6.587   1.145 -1.5862 -0.1409  0.5313
    1MOL   H306  306   3.601   6.720   1.260 -1.0343 -0.0497  0.9295
    1MOL   H307  307   3.597   6.756   1.088  1.8166 -1.2015 -0.7943
    1MOL   C308  308   3.198   6.821   1.363 -0.2809 -0.3515  0.1733
    1MOL   C309  309   3.119   6.691   1.407  0.6912 -0.1947  0.5847
    1MOL   C310  310   3.148   6.677   1.561  0.2800  0.1217  0.9069
    1MOL   C311  311   3.285   6.612   1.592  0.1325 -0.6370 -0.6703
    1MOL   C312  312   3.316   6.619   1.752 -0.1949 -0.5971  0.1138
    1MOL   C313  313   3.280   6.468   1.555  0.5033  0.4890  0.3430
    1MOL   H314  314   3.295   6.827   1.412  0.3432 -1.0126 -0.9643
    1MOL   H315  315   3.132   6.900   1.400 -1.7984 -1.1291 -0.8579
    1MOL   H316  316   3.165   6.608   1.353 -2.8602 -1.2299 -0.9734
    1MOL   H317  317   3.058   6.627   1.595 -0.0510 -1.2299 -1.7697
    1MOL   H318  318   3.147   6.776   1.606 -0.4770  0.1487  0.8465
    1MOL   H319  319   3.366   6.657   1.534 -0.3632  1.8900  0.5214
    1MOL   H320  320   3.253   6.562   1.820 -2.1657  1.4522  0.0553
    1MOL   H321  321   3.294   6.713   1.803 -0.1268 -1.3299  1.5243
    1MOL   H322  322   3.414   6.573   1.762  1.0126  1.4779 -1.6537
    1MOL   H323  323   3.338   6.407   1.624  0.8489  0.1027 -0.2938
    1MOL   H324  324   3.181   6.430   1.582  0.6995 -1.6783 -1.8832
    1MOL   H325  325   3.312   6.440   1.455 -0.1769  1.6817 -0.2346
    1MOL   C326  326   2.971   6.695   1.369 -0.2194 -0.7772  0.3465
    1MOL   C327  327   2.882   6.569   1.384 -0.2503 -0.0508  0.0878
    1MOL   C328  328   2.929   6.446   1.298 -0.3499 -0.3955  0.0762
    1MOL   C329  329   2.868   6.307   1.316 -1.0004 -0.3613  0.2487
    1MOL   C330  330   2.930   6.202   1.223 -0.1367 -0.3269 -0.3920
    1MOL   C331  331   2.863   6.264   1.462 -0.5682  0.0118  0.1371
    1MOL   H332  332   2.965   6.733   1.267  1.8809 -2.2092 -0.3331
    1MOL   H333  333   2.936   6.781   1.425  0.7319  0.5584 -1.0864
    1MOL   H334  334   2.905   6.538   1.486  2.0632  0.2136 -0.3215
    1MOL   H335  335   2.926   6.471   1.192 -0.4795  0.3359  0.2491
    1MOL   H336  336   3.035   6.441   1.324  0.5558  2.7254 -2.7065
    1MOL   H337  337   2.766   6.326   1.282 -0.0280  2.0414 -1.4891
    1MOL   H338  338   3.025   6.168   1.265 -1.3687 -2.7680  0.5479
    1MOL   H339  339   2.936   6.241   1.122 -0.8256  0.7597 -0.0141
    1MOL   H340  340   2.867   6.113   1.212 -0.3073 -0.2163 -0.3080
    1MOL   H341  341   2.805   6.329   1.528 -2.2035 -2.3495  1.0602
    1MOL   H342  342   2.816   6.166   1.458 -1.5959  0.5131 -0.6560
    1MOL   H343  343   2.966   6.254   1.497 -0.4675 -1.3540 -0.5447
    1MOL   C344  344   2.728   6.604   1.379 -0.0388 -0.0141  0.0791
    1MOL   C345  345   2.686   6.655   1.237 -0.3432  0.4071 -0.0396
    1MOL   C346  346   2.679   6.808   1.220 -0.3945  0.1642 -0.2473
    1MOL   C347  347   2.619   6.850   1.087  0.5659  0.1060  0.3211
    1MOL   C348  348   2.652   7.003   1.066  0.3578 -0.6921  0.2633
    1MOL   C349  349   2.469   6.822   1.064 -0.1634 -0.1211  0.2527
    1MOL   H350  350   2.704   6.679   1.455 -0.7450 -0.7337  0.5768
    1MOL   H351  351   2.670   6.513   1.397 -2.3819  1.7394  1.6609
    1MOL   H352  352   2.582   6.624   1.231  0.0651 -1.7945  2.8081
    1MOL   H353  353   2.633   6.856   1.306 -0.9907  0.6236 -0.8247
    1MOL   H354  354   2.781   6.847   1.221 -0.6489  0.8117  0.1456
    1MOL   H355  355   2.673   6.804   1.004 -1.6246  0.5668 -1.4061
    1MOL   H356  356   2.593   7.027   0.977 -0.3961  0.2289  1.0047
    1MOL   H357  357   2.593   7.064   1.135 -1.8064 -1.1697 -1.1184
    1MOL   H358  358   2.758   7.029   1.068  0.2244  0.4179 -3.1391
    1MOL   H359  359   2.417   6.854   1.154  0.1741 -0.0972  0.4406
    1MOL   H360  360   2.460   6.714   1.051  2.4025 -0.3797  0.4162
    1MOL   H361  361   2.435   6.880   0.978  2.1646 -0.7639 -1.1238
    1MOL   H362  362   2.738   6.593   1.164 -0.4392 -0.9747  1.0364
    2MOL     C1  363   0.426   7.061   0.050  0.3431  0.1592  0.3709
    2MOL     C2  364   0.464   6.913   0.068  0.6548  0.2679  1.2199
    2MOL     C3  365   0.603   6.886   0.010 -0.3355  0.1808 -0.2849
    2MOL     C4  366   0.715   6.979   0.051  0.4282 -0.2250 -0.1009
    2MOL     C5  367   0.849   6.956   7.744 -0.4361  0.0470  0.0506
    2MOL     C6  368   0.723   6.974   0.203  0.5319 -0.0678 -0.7854
    2MOL     H7  369   0.451   7.081   7.698 -0.5122 -0.7069 -0.0172
    2MOL     H8  370   0.318   7.059   0.064  0.2048  2.3252 -0.2495
    2MOL     H9  371   0.473   6.894   0.175 -0.4421  2.0885  1.6508
    2MOL    H10  372   0.625   6.783   0.035 -0.6877  0.5311  1.5291
    2MOL    H11  373   0.591   6.882   7.654 -0.8951 -3.2495 -0.1519
    2MOL    H12  374   0.684   7.081   0.027  1.4864  0.4228  1.1876
    2MOL    H13  375   0.871   6.995   7.644  0.1359 -1.9397 -0.6195
    2MOL    H14  376   0.917   7.014   0.055 -3.0712  0.3569  2.6758
    2MOL    H15  377   0.863   6.848   7.750  1.3025  0.3477  2.0617
    2MOL    H16  378   0.631   6.997   0.257  0.9169  0.5414 -0.3920
    2MOL    H17  379   0.802   7.041   0.235  0.1765  0.4613 -1.0087
    2MOL    H18  380   0.740   6.870   0.230 -1.0102 -0.3226 -0.7347
    2MOL    H19  381   0.475   7.127   0.121  0.0806 -0.6813  1.3319
    2MOL    C20  382   0.361   6.816   0.007 -0.0653  0.4166  0.4764
    2MOL    C21  383   0.257   6.767   0.106 -1.0536  0.0065  0.6478
    2MOL    C22  384   0.121   6.730   0.046  0.5185  0.4093 -0.1473
    2MOL    C23  385   0.025   6.856   0.038  0.4442  1.4561 -0.0054
    2MOL    C24  386   7.690   6.830   7.662 -0.4294  0.1640 -0.3500
    2MOL    C25  387   7.687   6.885   0.162 -0.9187  1.0465 -0.3045
    2MOL    H26  388   0.307   6.862   7.676  1.3780  1.8879  0.3080
    2MOL    H27  389   0.415   6.733   7.714 -1.2236 -1.6211  2.7214
    2MOL    H28  390   0.239   6.861   0.158  3.3298  1.9518 -1.1478
    2MOL    H29  391   0.078   6.661   0.119  0.6033  1.3894  0.8390
    2MOL    H30  392   0.137   6.680   7.703  1.6277  3.3139 -1.5338
    2MOL    H31  393   0.064   6.955   0.011  0.3737  1.5126  0.1007
    2MOL    H32  394   7.628   6.913   7.628  0.6872  0.6891 -1.1246
    2MOL    H33  395   7.620   6.751   7.692 -0.5379  0.1621 -0.6119
    2MOL    H34  396   7.746   6.789   7.579 -1.6835 -1.1166 -0.5952
    2MOL    H35  397   7.735   6.920   0.253 -3.0921  0.1774  1.2130
    2MOL    H36  398   7.608   6.951   0.127 -0.4627  1.0919 -1.2722
    2MOL    H37  399   7.621   6.804   0.193  0.3163  0.6911  1.5291
    2MOL    C38  400   0.312   6.661   0.203 -0.0315  0.2675  0.3646
    2MOL    C39  401   0.220   6.656   0.333 -0.4884 -0.1219  0.0039
    2MOL    C40  402   0.319   6.674   0.460  0.1381  0.2884 -0.3388
    2MOL    C41  403   0.364   6.820   0.490  0.8351  0.1167  0.1392
    2MOL    C42  404   0.499   6.823   0.562  0.1209 -0.1817 -1.2593
    2MOL    C43  405   0.250   6.880   0.571  0.2082 -0.1571  0.6748
    2MOL    H44  406   0.412   6.700   0.224  0.2532  0.4593 -1.2570
    2MOL    H45  407   0.331   6.567   0.152  1.2247  0.8963 -0.3741
    2MOL    H46  408   0.136   6.726   0.338  0.6152  1.0859  2.6826
    2MOL    H47  409   0.411   6.618   0.442  0.9782  1.3628  0.6081
    2MOL    H48  410   0.281   6.628   0.551  1.5179  1.3646  0.8044
    2MOL    H49  411   0.368   6.871   0.394 -2.0826 -0.1665 -0.1722
    2MOL    H50  412   0.572   6.791   0.488 -0.0380 -1.4198 -0.8973
    2MOL    H51  413   0.525   6.924   0.595  0.9110 -1.1431  1.1845
    2MOL    H52  414   0.506   6.761   0.651 -0.2912  2.3391  0.5896
    2MOL    H53  415   0.260   6.985   0.599  0.6965 -0.4382  1.5450
    2MOL    H54  416   0.239   6.820   0.661  1.2126  0.0919  0.9627
    2MOL    H55  417   0.154   6.878   0.519  0.4005  0.6098  0.2770
    2MOL    C56  418   0.162   6.513   0.324 -0.2590 -0.0627 -0.8022
    2MOL    C57  419   0.027   6.474   0.397  0.3702  0.0880 -0.5635
    2MOL    C58  420   0.018   6.515   0.549  0.0758 -0.6177  0.6296
    2MOL    C59  421   7.626   6.505   0.606  0.3708 -0.5979  0.1690
    2MOL    C60  422   7.516   6.566   0.516 -0.1794 -0.1695  0.3938
    2MOL    C61  423   7.613   6.574   0.742 -0.6200  0.0293  0.3530
    2MOL    H62  424   0.244   6.446   0.350  0.6554  1.4162  0.1416
    2MOL    H63  425   0.150   6.500   0.216  0.4903 -3.6926 -0.5285
    2MOL    H64  426   7.714   6.544   0.345  1.9150  2.4632  0.6544
    2MOL    H65  427   0.077   6.450   0.614  1.5858 -0.1700 -0.2604
    2MOL    H66  428   0.062   6.614   0.555  2.1796 -1.4607 -0.1760
    2MOL    H67  429   7.594   6.401   0.617  0.1903 -0.6598 -0.8386
    2MOL    H68  430   7.511   6.514   0.421  0.6462  1.3266 -0.4855
    2MOL    H69  431   7.545   6.670   0.501 -1.7432  0.2092 -0.0525
    2MOL    H70  432   7.427   6.563   0.580  0.6739  0.7859  1.6417
    2MOL    H71  433   7.598   6.681   0.734  2.0587  0.4278  0.2028
    2MOL    H72  434   7.703   6.562   0.803  0.8885  2.4243 -1.3055
    2MOL    H73  435   7.531   6.537   0.803 -2.0131  0.8187 -1.0036
    2MOL    C74  436   7.736   6.324   0.373  0.6747  0.1998 -0.5587
    2MOL    C75  437   7.729   6.271   0.224 -1.1927  0.2227  0.7493
    2MOL    C76  438   7.606   6.331   0.147 -0.2584 -0.0578  0.3043
    2MOL    C77  439   7.612   6.298   7.748  0.7526  0.2610  0.3282
    2MOL    C78  440   7.612   6.421   7.660  0.6069  0.2705  0.5118
    2MOL    C79  441   7.500   6.206   7.692 -0.2038 -0.6724  0.0022
    2MOL    H80  442   7.645   6.293   0.424  0.6564  1.2856  0.0781
    2MOL    H81  443   0.037   6.260   0.443  0.8180  2.6262  1.6345
    2MOL    H82  444   0.059   6.304   0.161 -0.9803  0.3313  1.0851
    2MOL    H83  445   7.515   6.288   0.188 -1.0180 -0.0544 -1.3249
    2MOL    H84  446   7.583   6.436   0.168  1.6283  0.1866  1.2879
    2MOL    H85  447   7.707   6.253   7.719  0.1915 -1.5675  1.2847
    2MOL    H86  448   7.624   6.406   7.553  0.9552 -2.7128  0.9265
    2MOL    H87  449   7.690   6.494   7.683 -0.0499  1.1979 -0.1607
    2MOL    H88  450   7.515   6.472   7.668  0.0169 -0.2644 -2.6338
    2MOL    H89  451   7.531   6.171   7.593  2.1570  0.6547  0.2354
    2MOL    H90  452   7.485   6.125   0.010 -1.4665 -0.4487  0.0045
    2MOL    H91  453   7.405   6.258   7.679 -1.3379 -2.7652 -0.3396
    2MOL    C92  454   7.732   6.115   0.218  0.0980 -0.1446  0.2896
    2MOL    C93  455   0.113   6.046   0.238 -0.6904 -0.6653  0.6451
    2MOL    C94  456   0.110   5.891   0.246 -0.2467  0.0921  0.0059
    2MOL    C95  457   0.047   5.831   0.373  1.1017 -0.2460  0.5484
    2MOL    C96  458   7.742   5.686   0.356 -0.4974 -0.1657  0.3101
    2MOL    C97  459   0.143   5.823   0.487  0.7769  0.2326 -0.6748
    2MOL    H98  460   7.664   6.073   0.292  1.1020 -1.4876  0.4606
    2MOL    H99  461   7.697   6.083   0.119  1.1956 -0.8447  0.1214
    2MOL   H100  462   0.148   6.086   0.333 -0.5754  0.6240  0.0739
    2MOL   H101  463   0.214   5.859   0.237 -0.1129  0.0914  1.3827
    2MOL   H102  464   0.050   5.876   0.156 -0.3790 -0.1021  0.1263
    2MOL   H103  465   7.718   5.891   0.414 -0.0979 -1.2385 -0.3273
    2MOL   H104  466   0.061   5.618   0.308 -0.4287  1.0241 -1.2960
    2MOL   H105  467   7.653   5.693   0.294 -0.1280 -0.1660 -0.2227
    2MOL   H106  468   7.715   5.646   0.454  0.6057  0.9676  1.0842
    2MOL   H107  469   0.213   5.906   0.473  0.4073  0.6281 -0.2238
    2MOL   H108  470   0.199   5.729   0.492  0.2586 -0.0130  1.0347
    2MOL   H109  471   0.095   5.830   0.585  2.2937  2.3325 -0.0233
    2MOL   C110  472   0.210   6.086   0.121  0.6879  0.2741 -0.2473
    2MOL   C111  473   0.355   6.038   0.122 -0.4139 -0.2892  0.3639
    2MOL   C112  474   0.430   6.086   7.750  0.2024 -0.7112 -0.1636
    2MOL   C113  475   0.396   6.021   7.620 -0.4169 -0.6528 -0.5897
    2MOL   C114  476   0.349   5.877   7.622 -0.1304 -0.3615  1.0112
    2MOL   C115  477   0.496   6.054   7.505 -0.6703  0.6690 -0.1194
    2MOL   H116  478   0.222   6.194   0.113 -0.8960  0.4246 -0.8312
    2MOL   H117  479   0.151   6.068   0.031  0.7533 -0.0464 -0.2243
    2MOL   H118  480   0.358   5.930   0.128  0.6855 -0.3217 -0.7384
    2MOL   H119  481   0.536   6.068   0.017  0.6558 -0.7388 -2.5191
    2MOL   H120  482   0.417   6.192   7.731 -1.8969 -0.9154  0.0067
    2MOL   H121  483   0.299   6.059   7.587 -0.2920  0.2907  0.1382
    2MOL   H122  484   0.329   5.835   7.524  1.5779 -0.3180  0.6157
    2MOL   H123  485   0.256   5.868   7.678 -0.3980 -1.6480  0.3814
    2MOL   H124  486   0.429   5.820   7.670  0.2263 -0.9948 -0.3309
    2MOL   H125  487   0.458   6.010   7.413 -1.0829 -0.9884  0.8152
    2MOL   H126  488   0.580   5.997   7.544 -2.8418 -1.6585  1.3181
    2MOL   H127  489   0.512   6.162   7.499 -0.8542  0.9263  3.0002
    2MOL   C128  490   0.426   6.065   0.258 -0.5917  0.0923  0.4773
    2MOL   C129  491   0.572   6.018   0.275 -0.5928  0.0237  0.0263
    2MOL   C130  492   0.595   5.866   0.248  0.6032 -0.2250  0.4249
    2MOL   C131  493   0.735   5.829   0.206  0.4637 -0.0357  0.6330
    2MOL   C132  494   0.747   5.672   0.181  0.2910  0.7703 -0.5925
    2MOL   C133  495   0.798   5.913   0.083 -0.2512  0.0180 -0.0405
    2MOL   H134  496   0.370   6.019   0.338  0.1050 -0.3237  0.7331
    2MOL   H135  497   0.426   6.173   0.268 -1.7854  0.0774  0.6580
    2MOL   H136  498   0.620   6.071   0.192 -1.8936  0.3542 -0.5262
    2MOL   H137  499   0.563   5.820   0.341 -2.0396  1.5019  0.4123
    2MOL   H138  500   0.518   5.837   0.176  0.7884 -0.2788  0.2475
    2MOL   H139  501   0.806   5.863   0.282 -0.8354  0.3718  1.6862
    2MOL   H140  502   0.842   5.653   0.132  0.3156 -3.0149  0.7082
    2MOL   H141  503   0.674   5.645   0.104 -1.1418  3.6548 -0.3054
    2MOL   H142  504   0.742   5.625   0.279 -0.1160 -1.3117 -1.5676
    2MOL   H143  505   0.810   6.020   0.094  1.6349  0.0097 -1.6066
    2MOL   H144  506   0.896   5.871   0.059 -0.0083  0.4248  0.2427
    2MOL   H145  507   0.737   5.905   7.746 -1.3791  0.7810  0.6562
    2MOL   C146  508   0.627   6.063   0.418  0.0976  0.4958 -0.2462
    2MOL   C147  509   0.630   6.220   0.447 -0.6135  0.5328 -0.0671
    2MOL   C148  510   0.731   6.281   0.346  0.9380  0.0748  0.7423
    2MOL   C149  511   0.736   6.434   0.334  0.1840 -0.3869 -0.6067
    2MOL   C150  512   0.870   6.488   0.279 -0.3812  0.3301  0.7855
    2MOL   C151  513   0.618   6.493   0.259 -0.2962  0.3197 -0.3794
    2MOL   H152  514   0.729   6.025   0.424 -0.7398 -1.7897 -0.2061
    2MOL   H153  515   0.575   6.011   0.498  0.0231  2.2733  0.8819
    2MOL   H154  516   0.528   6.257   0.434 -0.3679  1.3929  0.4249
    2MOL   H155  517   0.829   6.234   0.332  1.4456  1.7098 -1.4832
    2MOL   H156  518   0.692   6.252   0.248 -0.4150  1.0486  0.9879
    2MOL   H157  519   0.730   6.486   0.429 -0.9752  0.6685 -1.2406
    2MOL   H158  520   0.886   6.459   0.175 -1.2493  1.9236  0.1732
    2MOL   H159  521   0.957   6.445   0.329 -1.8700 -1.5308  1.8463
    2MOL   H160  522   0.878   6.596   0.291 -0.0225  0.3653  0.2409
    2MOL   H161  523   0.527   6.437   0.280 -0.4964  0.7430 -0.1160
    2MOL   H162  524   0.642   6.492   0.152 -0.5899  1.2101 -0.4598
    2MOL   H163  525   0.600   6.600   0.271  0.4340  0.5879 -1.5462
    2MOL   C164  526   0.669   6.253   0.594  0.1375  0.3557 -0.4215
    2MOL   C165  527   0.571   6.226   0.710 -0.6728  0.0823 -0.5044
    2MOL   C166  528   0.640   6.204   0.848  0.5462 -0.3652 -0.6393
    2MOL   C167  529   0.623   6.059   0.905  0.0664  0.0609 -0.1164
    2MOL   C168  530   0.707   5.951   0.833 -0.0182  0.1090  0.9195
    2MOL   C169  531   0.657   6.046   1.047 -0.2512 -1.0280 -0.0687
    2MOL   H170  532   0.760   6.198   0.619 -0.3397  0.9379  2.7090
    2MOL   H171  533   0.695   6.359   0.600 -2.5005  1.0180 -0.4325
    2MOL   H172  534   0.527   6.130   0.682 -1.3082  0.1260  0.3269
    2MOL   H173  535   0.748   6.213   0.833  0.4942  0.0878 -0.7180
    2MOL   H174  536   0.619   6.277   0.926 -0.4140  0.4614 -1.6651
    2MOL   H175  537   0.517   6.043   0.886 -0.2591  1.6161  0.3072
    2MOL   H176  538   0.683   5.949   0.727  1.1103  3.2196  0.5511
    2MOL   H177  539   0.704   5.855   0.884 -1.2161  1.2232  2.9990
    2MOL   H178  540   0.810   5.988   0.833 -0.0356  0.2100 -1.1303
    2MOL   H179  541   0.746   6.097   1.081 -1.2064  0.8152 -0.2903
    2MOL   H180  542   0.668   5.946   1.090  0.0438 -0.6421  0.7670
    2MOL   H181  543   0.575   6.096   1.098 -0.6223  0.2995 -1.9151
    2MOL   C182  544   0.454   6.327   0.710 -0.0506 -0.0143 -0.2963
    2MOL   C183  545   0.335   6.302   0.807  0.4714  0.1731  0.0549
    2MOL   C184  546   0.263   6.438   0.834 -0.3188  0.1523  0.2335
    2MOL   C185  547   0.335   6.532   0.930  0.3048  0.0560  0.5094
    2MOL   C186  548   0.254   6.662   0.977  0.4974 -0.3268 -0.9391
    2MOL   C187  549   0.361   6.460   1.063  0.2080 -0.5114 -0.5835
    2MOL   H188  550   0.420   6.353   0.610 -1.5909  0.7475  0.4161
    2MOL   H189  551   0.507   6.417   0.742  0.2058 -0.3534  0.2339
    2MOL   H190  552   0.373   6.269   0.903  0.6051  1.2296  0.3732
    2MOL   H191  553   0.165   6.414   0.874  0.1091 -1.1030  0.5422
    2MOL   H192  554   0.245   6.502   0.747 -0.3809 -0.3579 -0.1370
    2MOL   H193  555   0.432   6.558   0.887 -0.3412 -1.8271 -2.2283
    2MOL   H194  556   0.167   6.624   1.031  0.7049 -0.8247 -0.9554
    2MOL   H195  557   0.199   6.719   0.902 -0.3615  0.2969  0.1548
    2MOL   H196  558   0.311   6.732   1.039 -0.8965 -2.4602  2.9288
    2MOL   H197  559   0.437   6.382   1.068 -1.2700 -2.0708 -1.7130
    2MOL   H198  560   0.272   6.407   1.099  0.5567 -0.8834 -0.2517
    2MOL   H199  561   0.395   6.526   1.143 -2.5530  0.3881 -0.0942
    2MOL   C200  562   0.239   6.204   0.737 -0.0587 -0.1468  0.0603
    2MOL   C201  563   0.122   6.144   0.815  0.0461  0.5874  0.5805
    2MOL   C202  564   0.175   6.013   0.883  0.1025  0.0669  0.7125
    2MOL   C203  565   0.136   5.989   1.027  0.3793  0.1576 -0.2889
    2MOL   C204  566   0.135   5.836   1.058  0.0674  0.1466 -0.4433
    2MOL   C205  567   0.231   6.070   1.120 -0.3866  0.6359  0.4076
    2MOL   H206  568   0.308   6.130   0.698  0.5475  0.7735 -0.6393
    2MOL   H207  569   0.198   6.252   0.648 -0.8564 -0.6160  0.1735
    2MOL   H208  570   0.083   6.215   0.888  0.3587  1.1828  0.1752
    2MOL   H209  571   0.136   5.935   0.818 -0.9780  0.0668  1.3454
    2MOL   H210  572   0.282   5.993   0.869 -0.1352 -1.2521  0.6905
    2MOL   H211  573   0.038   6.033   1.048  0.3594 -0.5904  1.2703
    2MOL   H212  574   0.074   5.783   0.984 -0.2554  1.2494 -0.9783
    2MOL   H213  575   0.111   5.826   1.164 -0.8815  3.2775 -0.3016
    2MOL   H214  576   0.236   5.798   1.045 -0.6962 -2.0977 -0.0724
    2MOL   H215  577   0.224   6.040   1.224 -0.3540  0.3986  0.3426
    2MOL   H216  578   0.226   6.178   1.111 -0.1523  0.7528  1.6920
    2MOL   H217  579   0.333   6.038   1.094 -0.9887 -0.4236 -0.7521
    2MOL   C218  580   0.002   6.122   0.721 -0.5718  0.6056  0.2026
    2MOL   C219  581   7.635   6.056   0.780  0.2432 -0.5710  0.3077
    2MOL   C220  582   7.561   5.963   0.678  0.1161  0.1107 -0.1028
    2MOL   C221  583   7.524   6.017   0.540 -0.3733 -0.1590  0.4502
    2MOL   C222  584   7.457   5.911   0.450 -0.3974 -0.4477  0.2470
    2MOL   C223  585   7.439   6.147   0.533 -0.3508  0.0781 -0.8950
    2MOL   H224  586   7.728   6.213   0.669  3.2011  0.8611 -1.3920
    2MOL   H225  587   0.048   6.056   0.648  2.7095  3.2243 -0.1973
    2MOL   H226  588   7.659   6.001   0.871 -0.4667 -0.4323  0.5873
    2MOL   H227  589   7.624   5.877   0.656  0.4145  0.5055 -0.8082
    2MOL   H228  590   7.475   5.919   0.730 -0.3017 -0.6887 -1.4435
    2MOL   H229  591   7.619   6.042   0.495 -0.0339  0.3732  1.4428
    2MOL   H230  592   7.351   5.899   0.470 -0.4878  1.1981  0.8507
    2MOL   H231  593   7.466   5.933   0.344 -0.1702  0.1690  0.3875
    2MOL   H232  594   7.507   5.814   0.451 -0.2821 -0.4099 -1.2384
    2MOL   H233  595   7.342   6.134   0.582 -0.5887  0.2715 -1.3127
    2MOL   H234  596   7.495   6.226   0.582 -0.3645  0.4883 -1.5387
    2MOL   H235  597   7.430   6.182   0.430 -2.1167 -2.3328 -1.6156
    2MOL   C236  598   7.528   6.161   0.841 -0.9138  0.3004 -0.4018
    2MOL   C237  599   7.491   6.157   0.989  0.2017  0.5759 -0.2847
    2MOL   C238  600   7.417   6.018   1.017 -0.0625 -0.8002  0.4423
    2MOL   C239  601   7.393   5.977   1.164  0.7174  0.8007  0.0697
    2MOL   C240  602   7.309   5.845   1.171 -0.3475 -0.6398  0.0847
    2MOL   C241  603   7.521   5.959   1.254 -0.6129 -0.0489 -0.0756
    2MOL   H242  604   7.431   6.153   0.792  0.1463 -1.4250 -2.2944
    2MOL   H243  605   7.571   6.259   0.817 -0.1642  0.1776  0.4338
    2MOL   H244  606   7.581   6.161   1.050 -0.1194 -2.5874  0.4816
    2MOL   H245  607   7.487   5.941   0.986 -1.0820 -1.2755 -0.7228
    2MOL   H246  608   7.325   6.006   0.960 -1.1616  0.7609  1.8329
    2MOL   H247  609   7.336   6.058   1.210 -1.0187  0.1362 -0.8457
    2MOL   H248  610   7.294   5.818   1.275  0.9501  1.4393  0.8376
    2MOL   H249  611   7.346   5.762   1.110 -0.5520 -0.0451 -0.8682
    2MOL   H250  612   7.204   5.858   1.146  0.0285  3.3759  0.3489
    2MOL   H251  613   7.487   5.926   1.352 -1.2431 -1.0752 -0.6248
    2MOL   H252  614   7.591   6.042   1.264  0.5202 -0.6122 -2.7781
    2MOL   H253  615   7.591   5.883   1.216 -0.5723  0.0615 -0.2219
    2MOL   C254  616   7.389   6.270   1.017 -0.2629 -0.3436 -0.4701
    2MOL   C255  617   7.407   6.344   1.154 -0.3387 -0.5389 -0.7395
    2MOL   C256  618   7.537   6.430   1.152  0.2463  0.4019 -0.5708
    2MOL   C257  619   7.596   6.473   1.284  0.1022  0.2999 -0.1733
    2MOL   C258  620   7.717   6.570   1.254 -0.6127  0.6506  0.6544
    2MOL   C259  621   7.636   6.347   1.370  0.6902 -0.2764 -0.1001
    2MOL   H260  622   7.408   6.353   0.948 -2.9650  0.8791  0.1566
    2MOL   H261  623   7.287   6.237   0.996 -0.4254  1.8048 -3.3097
    2MOL   H262  624   7.425   6.269   1.230 -0.0357 -0.3242 -0.5965
    2MOL   H263  625   7.512   6.512   1.085 -2.9651 -0.0878 -0.0505
    2MOL   H264  626   7.621   6.374   1.109  1.2791  2.1475 -0.8900
    2MOL   H265  627   7.532   6.549   1.329  0.3221 -0.0356  0.7023
    2MOL   H266  628   0.051   6.514   1.220  1.3909  3.8688  0.2260
    2MOL   H267  629   7.747   6.631   1.339  1.2021  1.7476 -0.7349
    2MOL   H268  630   7.687   6.635   1.171 -1.1780  0.4561  0.7047
    2MOL   H269  631   7.544   6.319   1.423  1.1765 -3.1700 -0.6727
    2MOL   H270  632   7.669   6.270   1.300  1.5653 -0.6998  0.7652
    2MOL   H271  633   7.716   6.373   1.439 -0.4453 -0.7026  1.4290
    2MOL   C272  634   7.290   6.440   1.182 -0.2689  0.1760  0.2490
    2MOL   C273  635   7.157   6.367   1.228 -0.3275 -0.2692 -0.2310
    2MOL   C274  636   7.171   6.320   1.369 -0.1536 -0.0845  0.0842
    2MOL   C275  637   7.054   6.239   1.421  0.1395 -0.4433 -0.7392
    2MOL   C276  638   7.021   6.272   1.571  0.1736 -0.6103  0.4835
    2MOL   C277  639   7.095   6.093   1.410  0.1911 -0.3211  0.5939
    2MOL   H278  640   7.305   6.520   1.254  0.2641 -0.1177  0.4627
    2MOL   H279  641   7.282   6.498   1.090 -0.5284 -0.6427 -0.2434
    2MOL   H280  642   7.141   6.275   1.171 -3.5347  0.7611 -1.0732
    2MOL   H281  643   7.169   6.416   1.421  0.0493  0.1510 -0.3427
    2MOL   H282  644   7.269   6.280   1.394 -0.8079 -2.6376 -1.3292
    2MOL   H283  645   6.967   6.250   1.356  0.7070 -2.4409 -1.8789
    2MOL   H284  646   7.100   6.241   1.639 -0.1439 -2.1325  0.1905
    2MOL   H285  647   7.017   6.380   1.577  0.4979 -0.5141 -0.8139
    2MOL   H286  648   6.923   6.240   1.606 -0.8708 -0.6098 -2.2852
    2MOL   H287  649   7.105   6.055   1.308  1.9664 -0.5817  0.8445
    2MOL   H288  650   7.189   6.071   1.460  0.1876  0.2396  0.8459
    2MOL   H289  651   7.020   6.034   1.464 -0.7919  0.5832  0.2431
    2MOL   C290  652   7.037   6.464   1.204  0.3648 -0.3693 -0.9663
    2MOL   C291  653   6.953   6.419   1.090 -0.2891 -0.6935  0.2324
    2MOL   C292  654   6.810   6.485   1.103  0.5967  0.4267 -0.2399
    2MOL   C293  655   6.708   6.409   1.184  0.7669  0.6526 -0.4037
    2MOL   C294  656   6.604   6.512   1.244  0.2560 -0.0918 -1.1699
    2MOL   C295  657   6.641   6.291   1.105  0.2804  0.2698 -0.5657
    2MOL   H296  658   6.977   6.477   1.294  1.2601 -2.3933 -0.0406
    2MOL   H297  659   7.076   6.564   1.182 -0.2155 -0.0292 -0.4570
    2MOL   H298  660   6.944   6.311   1.099 -0.0687 -0.9711 -2.4832
    2MOL   H299  661   6.759   6.500   1.008  0.6501  0.1776 -0.3088
    2MOL   H300  662   6.824   6.586   1.139 -1.9339  0.8723 -0.4215
    2MOL   H301  663   6.760   6.373   1.272 -0.3099 -0.0326 -0.0364
    2MOL   H302  664   6.532   6.544   1.169 -0.1997 -2.0842 -1.6166
    2MOL   H303  665   6.650   6.596   1.295  2.4849 -2.0600  0.2135
    2MOL   H304  666   6.553   6.447   1.317 -0.2962  0.3240 -1.1818
    2MOL   H305  667   6.710   6.226   1.052 -0.2096  0.4369 -1.4224
    2MOL   H306  668   6.577   6.343   1.033  0.7387  0.7850 -0.6038
    2MOL   H307  669   6.575   6.232   1.168 -0.6415  1.0984 -0.7302
    2MOL   C308  670   7.020   6.462   0.957 -0.0561  0.2439 -0.6456
    2MOL   C309  671   6.983   6.387   0.833  0.1656  0.7743  0.0221
    2MOL   C310  672   7.031   6.450   0.697  0.4021 -0.2368 -0.4674
    2MOL   C311  673   6.964   6.579   0.644 -0.2648 -0.1326 -0.1229
    2MOL   C312  674   7.061   6.665   0.552  0.0131 -0.3379 -0.4374
    2MOL   C313  675   6.836   6.537   0.564  0.7827 -0.2901 -0.3553
    2MOL   H314  676   6.995   6.567   0.942  1.4876  0.8529  0.9076
    2MOL   H315  677   7.129   6.458   0.962 -0.1820 -1.3500  2.2174
    2MOL   H316  678   6.874   6.398   0.831  0.1974  0.9848 -0.9910
    2MOL   H317  679   7.040   6.377   0.616  4.5925 -2.1716  1.5727
    2MOL   H318  680   7.138   6.472   0.701 -0.2693  3.4475 -1.3393
    2MOL   H319  681   6.939   6.638   0.733 -0.1285  1.0700 -0.8757
    2MOL   H320  682   7.138   6.710   0.615  0.1979  0.1290 -1.0011
    2MOL   H321  683   6.999   6.749   0.518  0.4908 -0.1614 -0.8749
    2MOL   H322  684   7.103   6.615   0.466  1.3767 -0.2819  0.1892
    2MOL   H323  685   6.754   6.488   0.616  1.2880  1.1303  1.8494
    2MOL   H324  686   6.783   6.621   0.519 -2.3083 -1.7864  0.3700
    2MOL   H325  687   6.866   6.468   0.485 -0.4901 -0.7218 -0.4740
    2MOL   C326  688   7.030   6.239   0.826 -0.7099 -0.2930 -0.1184
    2MOL   C327  689   6.944   6.142   0.738 -0.0628 -0.2394 -0.7170
    2MOL   C328  690   6.808   6.107   0.803  1.4318 -0.2439 -0.6409
    2MOL   C329  691   6.725   6.017   0.708  0.2741  0.3404 -0.1652
    2MOL   C330  692   6.591   5.983   0.780 -0.7165 -0.1660 -0.4135
    2MOL   C331  693   6.692   6.072   0.567  1.0635 -0.1793  0.7684
    2MOL   H332  694   7.023   6.191   0.924 -0.6337  0.6325  0.3443
    2MOL   H333  695   7.136   6.238   0.800 -0.9484  0.3939 -1.1188
    2MOL   H334  696   6.915   6.202   0.652 -0.1834 -0.6785 -0.9880
    2MOL   H335  697   6.811   6.071   0.906 -0.6518 -0.6973 -0.7199
    2MOL   H336  698   6.752   6.199   0.817 -0.3848 -1.0513 -2.4090
    2MOL   H337  699   6.772   5.920   0.693 -0.1815  0.4134 -2.2611
    2MOL   H338  700   6.522   5.916   0.728 -2.1469 -1.1107  2.6172
    2MOL   H339  701   6.537   6.071   0.814  2.5117  1.1957  1.3476
    2MOL   H340  702   6.617   5.937   0.875 -1.0216  1.4691  0.4875
    2MOL   H341  703   6.663   6.177   0.569 -1.1780 -0.7430 -0.8420
    2MOL   H342  704   6.766   6.074   0.487  0.4118  3.1370  0.1730
    2MOL   H343  705   6.606   6.022   0.523  1.1256 -0.4001  0.8972
    2MOL   C344  706   7.028   6.018   0.696 -0.2452  0.4434  0.4084
    2MOL   C345  707   7.044   5.919   0.814  0.1492 -1.1772 -0.4279
    2MOL   C346  708   7.146   5.807   0.789  0.3320 -0.1851 -0.1359
    2MOL   C347  709   7.151   5.734   0.655 -0.0527 -0.4153  0.1593
    2MOL   C348  710   7.024   5.654   0.633 -0.3226  0.1005  0.0983
    2MOL   C349  711   7.279   5.640   0.653  0.3865  0.1977 -0.3618
    2MOL   H350  712   7.131   6.038   0.665  0.2858 -2.2318  0.2823
    2MOL   H351  713   6.983   5.965   0.612  1.6040 -3.6941  1.9223
    2MOL   H352  714   6.948   5.868   0.825 -0.9237  0.8739 -0.0738
    2MOL   H353  715   7.247   5.846   0.800  0.9452 -1.9578  0.6918
    2MOL   H354  716   7.147   5.735   0.871  0.9329  0.4755  0.4540
    2MOL   H355  717   7.157   5.807   0.574  0.0735 -0.7546 -0.1324
    2MOL   H356  718   7.028   5.612   0.533  1.6599 -1.5434  0.8329
    2MOL   H357  719   7.005   5.574   0.705 -2.2675 -0.9966 -1.5839
    2MOL   H358  720   6.933   5.715   0.629 -0.0257  0.5964  0.7538
    2MOL   H359  721   7.376   5.687   0.638  1.4796 -1.1589  2.1991
    2MOL   H360  722   7.264   5.566   0.575  0.4305 -1.9412  1.6194
    2MOL   H361  723   7.292   5.574   0.739 -0.9034 -0.3992 -0.6193
    2MOL   H362  724   7.069   5.980   0.901 -1.5818 -1.2736  0.1601
    3MOL     C1  725   6.696   7.727   3.431  0.2898 -0.8244  0.0961
    3MOL     C2  726   6.840   7.704   3.477 -0.2231 -0.6786 -0.3837
    3MOL     C3  727   6.891   7.566   3.433 -0.5099  0.3574  0.5275
    3MOL     C4  728   6.917   7.548   3.277  0.1675  0.5805 -0.2783
    3MOL     C5  729   6.909   7.399   3.231  0.0272 -0.3292 -0.4133
    3MOL     C6  730   7.048   7.612   3.219 -0.1975  0.5968  0.1873
    3MOL     H7  731   6.675   7.723   3.324  1.1332 -1.2799 -0.0491
    3MOL     H8  732   6.633   7.652   3.478 -2.7185 -0.3350 -2.9598
    3MOL     H9  733   6.902   0.022   3.421 -1.7088 -0.2790 -1.5574
    3MOL    H10  734   6.984   7.540   3.483 -0.7406 -1.5709 -0.0086
    3MOL    H11  735   6.815   7.491   3.457 -0.2090 -0.5017 -1.1192
    3MOL    H12  736   6.840   7.608   3.227  0.7844  0.1321 -1.8071
    3MOL    H13  737   6.804   7.369   3.228 -0.9669  2.7516  0.8624
    3MOL    H14  738   6.942   7.388   3.128  0.2403  1.2756 -0.5323
    3MOL    H15  739   6.955   7.326   3.297  0.2135  0.5129  0.4012
    3MOL    H16  740   7.129   7.545   3.251 -0.3694  0.3553  0.1128
    3MOL    H17  741   7.062   7.714   3.252 -0.2960  0.9023 -0.7108
    3MOL    H18  742   7.043   7.615   3.110  1.2170  0.0403  0.0896
    3MOL    H19  743   6.659   0.073   3.462  0.1150 -0.3308 -1.6449
    3MOL    C20  744   6.840   7.734   3.635  0.0512  0.3670  0.6064
    3MOL    C21  745   6.827   0.127   3.678 -0.1974  0.1739  0.1191
    3MOL    C22  746   6.798   0.144   3.828  0.8588  0.4689 -0.5031
    3MOL    C23  747   6.645   0.138   3.856 -0.3832 -0.0877 -0.0453
    3MOL    C24  748   6.615   0.135   4.005  0.0536 -0.2265 -0.7592
    3MOL    C25  749   6.565   0.252   3.797 -0.3113  0.1442 -0.2255
    3MOL    H26  750   6.764   7.678   3.689  0.5005  0.6293  1.5309
    3MOL    H27  751   6.937   7.707   3.677  0.8207  0.2992 -1.1828
    3MOL    H28  752   6.742   0.169   3.625  0.2272  0.1414 -0.5978
    3MOL    H29  753   6.826   0.242   3.865  0.1269  0.9393 -1.1785
    3MOL    H30  754   6.860   0.075   3.884  2.6529  1.9526 -0.6390
    3MOL    H31  755   6.615   0.038   3.824 -3.7639  0.9647 -0.3309
    3MOL    H32  756   6.647   0.232   4.045 -1.2161 -0.6874  1.4890
    3MOL    H33  757   6.648   0.050   4.065  0.7184 -0.1986 -1.0820
    3MOL    H34  758   6.508   0.140   4.027  0.3627 -0.4804  0.9079
    3MOL    H35  759   6.556   0.264   3.689  0.0575  0.6058 -0.2041
    3MOL    H36  760   6.463   0.228   3.829 -0.1821  0.2264  0.2640
    3MOL    H37  761   6.604   0.347   3.833 -0.5351 -0.2855  1.1852
    3MOL    C38  762   6.956   0.209   3.643  0.3472  0.9154  0.2673
    3MOL    C39  763   6.959   0.360   3.650 -0.6905 -0.2617  0.0465
    3MOL    C40  764   6.846   0.420   3.573 -0.0147 -0.1721 -0.3839
    3MOL    C41  765   6.798   0.569   3.599  0.4118 -0.4579  0.6387
    3MOL    C42  766   6.711   0.593   3.726 -0.4802 -0.3102  0.8002
    3MOL    C43  767   6.719   0.625   3.475 -0.7071 -0.3828 -0.3337
    3MOL    H44  768   6.986   0.184   3.542  1.1550 -0.3398  0.8022
    3MOL    H45  769   7.040   0.173   3.702 -0.3967  1.1500  1.4884
    3MOL    H46  770   6.944   0.383   3.756 -2.7070  0.9536 -0.4819
    3MOL    H47  771   6.753   0.366   3.592 -0.0565  0.5152  1.4320
    3MOL    H48  772   6.856   0.417   3.465  0.0350  2.4522 -0.4825
    3MOL    H49  773   6.887   0.632   3.606  0.9320 -1.0941 -0.1465
    3MOL    H50  774   6.769   0.582   3.818 -0.4665 -0.0707  0.8212
    3MOL    H51  775   6.670   0.694   3.728 -0.4546 -0.1390 -3.0021
    3MOL    H52  776   6.621   0.532   3.725 -0.0287 -1.0000  1.8181
    3MOL    H53  777   6.616   0.590   3.474 -0.8167 -0.0588 -2.2011
    3MOL    H54  778   6.772   0.600   3.383 -1.4302 -1.8959 -0.3663
    3MOL    H55  779   6.720   0.733   3.465  0.4999 -0.3401  0.2221
    3MOL    C56  780   7.097   0.421   3.607 -0.3316  0.3535 -0.1019
    3MOL    C57  781   7.232   0.363   3.669  0.8907 -0.3921  0.4958
    3MOL    C58  782   7.220   0.381   3.822  0.2049  0.9422  0.1843
    3MOL    C59  783   7.348   0.338   3.899 -0.4129 -0.0423  0.6937
    3MOL    C60  784   7.388   0.194   3.863  0.3605 -0.2964  0.1463
    3MOL    C61  785   7.330   0.352   4.049  0.0096  0.4534 -0.3678
    3MOL    H62  786   7.093   0.530   3.611  2.8860  0.4895  0.3202
    3MOL    H63  787   7.104   0.401   3.500 -2.6188  0.4572 -0.3002
    3MOL    H64  788   7.232   0.256   3.650  0.0374 -0.8035  2.6873
    3MOL    H65  789   7.199   0.487   3.840 -1.9847  0.7355 -0.9731
    3MOL    H66  790   7.140   0.314   3.853  0.1242 -0.6355 -3.1867
    3MOL    H67  791   7.428   0.406   3.871 -2.4054  1.7257 -0.8445
    3MOL    H68  792   7.304   0.128   3.883 -0.3827  0.3583 -0.8197
    3MOL    H69  793   7.473   0.164   3.925  0.3565 -0.4600  0.0742
    3MOL    H70  794   7.417   0.169   3.761  2.2164 -1.2448  0.8726
    3MOL    H71  795   7.407   0.307   4.112 -0.8642 -0.6588 -0.0668
    3MOL    H72  796   7.246   0.306   4.102  1.0314 -2.1749 -0.9493
    3MOL    H73  797   7.336   0.456   4.080  1.3691  1.5320 -3.9701
    3MOL    C74  798   7.362   0.419   3.596 -0.5275  0.1253  0.0890
    3MOL    C75  799   7.380   0.396   3.440  0.0840 -0.1377 -0.2354
    3MOL    C76  800   7.525   0.386   3.397 -0.3204  0.0428  0.1988
    3MOL    C77  801   7.590   0.249   3.422 -0.0090  0.3621  0.0255
    3MOL    C78  802   7.744   0.259   3.452  0.0021 -0.1850 -0.5655
    3MOL    C79  803   7.574   0.159   3.305 -0.4289 -0.1277  0.1359
    3MOL    H80  804   7.445   0.364   3.640 -1.2418  0.0736  1.4163
    3MOL    H81  805   7.370   0.520   3.634 -1.1504 -0.8299  2.8930
    3MOL    H82  806   7.335   0.303   3.405  0.0890 -0.3153  0.2273
    3MOL    H83  807   7.530   0.412   3.291 -1.4751 -3.3826 -0.7700
    3MOL    H84  808   7.583   0.465   3.445 -2.4005  0.7575  1.5734
    3MOL    H85  809   7.539   0.199   3.504  1.8002 -0.3415  0.7449
    3MOL    H86  810   0.070   0.270   3.377 -0.6100  0.0851 -1.1571
    3MOL    H87  811   0.022   0.166   3.501  1.5621  1.4970  1.7866
    3MOL    H88  812   0.006   0.331   3.532 -0.4491 -2.0209  1.2240
    3MOL    H89  813   7.472   0.123   3.292  0.0324 -0.6681 -2.2512
    3MOL    H90  814   7.597   0.210   3.211  1.9435 -0.9433  0.2402
    3MOL    H91  815   7.625   0.063   3.309 -0.1409 -0.0600 -1.4055
    3MOL    C92  816   7.318   0.510   3.354  0.2094 -0.6560 -0.1785
    3MOL    C93  817   7.267   0.472   3.219 -0.0593 -0.0047  0.4391
    3MOL    C94  818   7.133   0.385   3.220 -0.3931 -0.4909 -0.5832
    3MOL    C95  819   7.088   0.315   3.097 -0.0281  0.5268 -0.0946
    3MOL    C96  820   7.183   0.204   3.044 -0.1693 -0.3000 -0.0520
    3MOL    C97  821   6.935   0.282   3.096 -0.1352  0.1458 -0.0528
    3MOL    H98  822   7.239   0.559   3.410  1.5220 -0.3734  1.4481
    3MOL    H99  823   7.386   0.594   3.358  0.4729 -0.9498  2.2116
    3MOL   H100  824   7.345   0.426   3.159  1.2508  1.8850  0.6418
    3MOL   H101  825   7.045   0.437   3.258 -0.3665 -0.5975 -0.3751
    3MOL   H102  826   7.141   0.311   3.300 -2.3318 -1.0538 -0.8712
    3MOL   H103  827   7.108   0.385   3.015  3.3862 -0.6372 -0.3322
    3MOL   H104  828   7.277   0.248   3.011 -0.6223  0.6252 -0.1006
    3MOL   H105  829   7.130   0.146   2.968  1.5393 -0.0104 -1.4999
    3MOL   H106  830   7.210   0.146   3.132 -1.3755  0.4924  0.8498
    3MOL   H107  831   6.873   0.369   3.114 -1.5440 -0.9781  0.6069
    3MOL   H108  832   6.900   0.198   3.156  0.4611  1.8681  2.7930
    3MOL   H109  833   6.922   0.257   2.991  1.4345  0.5365 -0.3487
    3MOL   C110  834   7.245   0.611   3.142 -0.1038 -1.0514 -0.2531
    3MOL   C111  835   7.317   0.608   2.999  0.6390 -0.6282 -0.2612
    3MOL   C112  836   7.254   0.692   2.882 -0.0075  0.4449 -0.0098
    3MOL   C113  837   7.133   0.620   2.813  0.0100 -0.2161 -1.1896
    3MOL   C114  838   7.156   0.491   2.734 -0.1757 -0.5220 -0.2470
    3MOL   C115  839   7.075   0.728   2.723 -0.8635  0.7936 -0.3883
    3MOL   H116  840   7.283   0.697   3.198 -0.6160  0.7600 -2.5976
    3MOL   H117  841   7.137   0.623   3.135  0.0008  0.7308  0.6771
    3MOL   H118  842   7.324   0.505   2.962 -1.3785 -1.4291  1.4703
    3MOL   H119  843   7.334   0.698   2.810  0.7881  0.3478  0.8563
    3MOL   H120  844   7.237   0.792   2.920  1.0872  0.4293  0.5163
    3MOL   H121  845   7.050   0.587   2.876 -1.1656  1.6026 -1.7540
    3MOL   H122  846   7.067   0.475   2.673  0.3168 -2.0839 -0.5718
    3MOL   H123  847   7.160   0.399   2.792  1.3531 -0.3281 -0.0065
    3MOL   H124  848   7.254   0.499   2.687  1.4568 -2.2812  2.6296
    3MOL   H125  849   7.042   0.808   2.789 -0.2697  0.9130 -0.2369
    3MOL   H126  850   7.007   0.690   2.647  2.2915 -1.0821 -2.3804
    3MOL   H127  851   7.162   0.767   2.672 -0.3342 -1.0553 -0.9608
    3MOL   C128  852   7.460   0.656   3.023 -0.1415 -0.5795 -0.1402
    3MOL   C129  853   7.563   0.579   2.928  0.4546  0.1318 -0.6956
    3MOL   C130  854   7.576   0.435   2.973 -0.0264 -0.7251 -0.1809
    3MOL   C131  855   7.633   0.335   2.860 -0.2176 -0.2045 -0.1413
    3MOL   C132  856   7.663   0.199   2.930  0.7650  0.2385 -0.4971
    3MOL   C133  857   7.548   0.317   2.739  0.0951 -0.6265  0.0824
    3MOL   H134  858   7.496   0.647   3.125  1.6198 -0.3156 -0.7133
    3MOL   H135  859   7.455   0.760   2.992  0.8976 -1.1175 -2.2306
    3MOL   H136  860   7.519   0.588   2.828  0.0895  0.0271 -0.5428
    3MOL   H137  861   7.644   0.438   3.058  0.8990 -1.7570 -0.8692
    3MOL   H138  862   7.486   0.389   3.014  0.5194 -0.6388  1.1525
    3MOL   H139  863   7.730   0.377   2.834 -0.2305 -0.2653 -0.2934
    3MOL   H140  864   7.698   0.132   2.852  1.2556  2.1201 -1.9148
    3MOL   H141  865   7.575   0.152   2.975  1.1259 -0.8900 -0.9372
    3MOL   H142  866   7.738   0.200   3.010  0.0756  0.7162  0.1546
    3MOL   H143  867   7.440   0.327   2.755 -0.2905 -0.6839 -2.2248
    3MOL   H144  868   7.578   0.389   2.662  1.5632 -1.8299 -0.4906
    3MOL   H145  869   7.573   0.219   2.697 -0.3846 -0.0094 -1.7121
    3MOL   C146  870   7.700   0.649   2.912 -0.5288  0.1297  0.3065
    3MOL   C147  871   7.704   0.790   2.854  0.1551  0.3985  0.4276
    3MOL   C148  872   7.647   0.810   2.712 -0.1094  0.0134  0.1677
    3MOL   C149  873   7.591   0.945   2.677  0.2352 -0.2338 -0.2409
    3MOL   C150  874   7.574   0.950   2.523  0.1804 -0.4230 -0.0829
    3MOL   C151  875   7.463   0.989   2.753  0.3400 -0.7705  0.6453
    3MOL   H152  876   0.014   0.593   2.846  0.3921  1.3240  0.2134
    3MOL   H153  877   0.002   0.653   3.006  0.2379  2.9090 -0.2183
    3MOL   H154  878   7.643   0.837   2.931 -0.4390  0.2230  0.0616
    3MOL   H155  879   7.712   0.761   2.641  0.6323  0.7587  0.3173
    3MOL   H156  880   7.558   0.747   2.710  1.2467 -1.8810 -1.8193
    3MOL   H157  881   7.671   1.017   2.688 -1.7353  1.9224  0.4599
    3MOL   H158  882   7.538   0.851   2.496  0.5803 -0.5153 -0.2861
    3MOL   H159  883   7.670   0.964   2.474 -0.4176 -0.6944 -1.3336
    3MOL   H160  884   7.490   1.015   2.499  0.8928 -0.7581 -3.7456
    3MOL   H161  885   7.425   1.090   2.737  0.8575 -0.5711  0.6676
    3MOL   H162  886   7.484   0.983   2.860  0.3039  0.8427  0.7630
    3MOL   H163  887   7.372   0.930   2.743 -0.5023  0.2506  2.0029
    3MOL   C164  888   0.097   0.843   2.859 -0.2680  0.0627 -0.0602
    3MOL   C165  889   0.135   0.882   3.013 -0.2612  0.7383 -0.5345
    3MOL   C166  890   0.286   0.860   3.043 -0.0519 -0.1340 -0.3476
    3MOL   C167  891   0.341   0.713   3.035  0.4892 -0.1213 -0.4399
    3MOL   C168  892   0.491   0.697   3.039 -0.3515  0.4514  0.1626
    3MOL   C169  893   0.288   0.630   3.158  0.4055  0.4978  0.5951
    3MOL   H170  894   0.171   0.775   2.817 -0.6876  0.0639 -0.8134
    3MOL   H171  895   0.109   0.929   2.794  3.5163  0.0894  0.5870
    3MOL   H172  896   0.087   0.816   3.086  4.4798 -1.9589  0.3725
    3MOL   H173  897   0.344   0.924   2.977  0.1634  0.6569  0.5843
    3MOL   H174  898   0.305   0.898   3.144  2.6169 -0.6881 -0.6235
    3MOL   H175  899   0.303   0.657   2.950  0.1388 -0.3515 -0.1366
    3MOL   H176  900   0.507   0.590   3.022  2.2958  0.9347 -0.5899
    3MOL   H177  901   0.528   0.727   3.137 -2.9396 -0.2118  1.3801
    3MOL   H178  902   0.542   0.756   2.963 -0.5311  1.0803  0.5322
    3MOL   H179  903   0.328   0.666   3.252  0.1127  1.3718  0.3837
    3MOL   H180  904   0.307   0.522   3.151 -1.0734  0.2825 -0.2186
    3MOL   H181  905   0.180   0.635   3.168  0.3209 -1.7339  1.0188
    3MOL   C182  906   0.090   1.030   3.042 -0.3363 -0.2973 -0.5181
    3MOL   C183  907   0.031   1.053   3.182  0.5815  0.5148  0.5815
    3MOL   C184  908   0.027   1.202   3.203  0.0376 -0.7291 -0.2155
    3MOL   C185  909   0.167   1.272   3.237 -0.9825  0.0113 -0.7333
    3MOL   C186  910   0.155   1.426   3.217  0.6365 -0.5398 -0.3082
    3MOL   C187  911   0.210   1.241   3.381 -0.6152 -0.0686  0.2591
    3MOL   H188  912   0.008   1.043   2.971  0.2535 -2.0439 -1.5538
    3MOL   H189  913   0.174   1.097   3.022  0.3115 -0.8140  0.4579
    3MOL   H190  914   0.094   1.007   3.258 -0.9120 -0.4056  1.2806
    3MOL   H191  915   7.721   1.223   3.293  0.5534  0.2398 -0.1001
    3MOL   H192  916   7.727   1.250   3.120 -0.8884  0.8228  1.2179
    3MOL   H193  917   0.252   1.237   3.178  0.3550 -0.2963  1.3416
    3MOL   H194  918   0.087   1.484   3.279  0.3847  1.0771 -2.0656
    3MOL   H195  919   0.118   1.436   3.115  1.8390  3.1956 -0.4692
    3MOL   H196  920   0.252   1.477   3.220  0.6056 -0.4229 -1.1568
    3MOL   H197  921   0.315   1.262   3.400 -0.2960 -0.1152 -1.4026
    3MOL   H198  922   0.194   1.138   3.412  1.7141 -0.6556 -0.3631
    3MOL   H199  923   0.153   1.303   3.451  1.7582  0.4637  1.7768
    3MOL   C200  924   7.634   1.001   3.188 -0.0907  0.0857 -0.5140
    3MOL   C201  925   7.568   1.006   3.337 -0.0951 -0.1770  0.6925
    3MOL   C202  926   7.628   0.878   3.400 -0.6512  0.1936 -0.8413
    3MOL   C203  927   7.613   0.867   3.548  0.5168 -0.3555 -0.2972
    3MOL   C204  928   7.581   0.728   3.600  0.1155 -0.2205  0.1903
    3MOL   C205  929   7.737   0.926   3.623 -0.9243  0.2329  0.6593
    3MOL   H206  930   7.627   0.902   3.144  0.1345  0.2862 -1.0094
    3MOL   H207  931   7.572   1.056   3.117 -0.8154 -0.7058 -0.5041
    3MOL   H208  932   7.597   1.094   3.394  1.9443  0.5439 -1.3822
    3MOL   H209  933   7.577   0.796   3.350 -0.1806 -0.2798 -0.5518
    3MOL   H210  934   7.734   0.878   3.372 -0.7945  0.0526 -1.3777
    3MOL   H211  935   7.521   0.918   3.575 -0.6082 -0.9766 -2.8225
    3MOL   H212  936   7.589   0.706   3.707 -1.5065  2.5603  0.9354
    3MOL   H213  937   7.638   0.652   3.547 -1.8316 -0.6044 -1.4038
    3MOL   H214  938   7.474   0.723   3.582 -0.3356 -0.0132  2.6657
    3MOL   H215  939   7.730   0.898   3.729 -1.8218  2.4845  1.2052
    3MOL   H216  940   7.736   1.033   3.608 -0.5927  0.1815  0.2686
    3MOL   H217  941   0.076   0.883   3.581 -2.1296 -1.6437 -0.1003
    3MOL   C218  942   7.414   1.010   3.330 -0.5245 -0.6361  0.1013
    3MOL   C219  943   7.345   1.131   3.256 -0.5875 -0.1551 -0.1008
    3MOL   C220  944   7.393   1.267   3.312 -0.6569  0.4788  0.1905
    3MOL   C221  945   7.346   1.383   3.223  0.3392  0.6114  0.0925
    3MOL   C222  946   7.386   1.520   3.293 -0.3903  0.3526 -0.3325
    3MOL   C223  947   7.403   1.379   3.080 -0.5963 -0.7745  0.3957
    3MOL   H224  948   7.380   0.925   3.271  1.1519 -1.2239 -0.0443
    3MOL   H225  949   7.371   1.005   3.430  3.1902 -2.9209  1.7161
    3MOL   H226  950   7.391   1.131   3.157  1.3627  1.8844  0.7464
    3MOL   H227  951   7.365   1.289   3.415  0.3916 -2.1896  1.0873
    3MOL   H228  952   7.501   1.262   3.307 -0.5507 -0.3662  2.8248
    3MOL   H229  953   7.237   1.388   3.221  0.2083 -1.0427  1.5592
    3MOL   H230  954   7.489   1.527   3.328 -0.0180 -1.1254 -1.0730
    3MOL   H231  955   7.374   1.605   3.226  0.0611 -1.4877 -2.8145
    3MOL   H232  956   7.319   1.525   3.378  0.8562 -1.6671  0.8235
    3MOL   H233  957   7.510   1.395   3.078 -0.7210  0.0867  0.4536
    3MOL   H234  958   7.378   1.293   3.017 -1.8242  0.2990 -0.6186
    3MOL   H235  959   7.363   1.460   3.020  0.7893 -0.2582  0.1542
    3MOL   C236  960   7.191   1.110   3.230  0.5688  0.6261 -0.1074
    3MOL   C237  961   7.096   1.064   3.346 -0.2276 -0.1264  0.0184
    3MOL   C238  962   6.967   0.993   3.293 -0.0017  0.1626  0.1305
    3MOL   C239  963   6.977   0.853   3.243 -0.0245  0.1864 -0.6836
    3MOL   C240  964   7.004   0.750   3.358  0.3150  0.2257  0.4795
    3MOL   C241  965   6.856   0.822   3.156  0.2188 -0.2224 -0.1357
    3MOL   H242  966   7.188   1.031   3.154 -1.1969 -1.2755  1.8667
    3MOL   H243  967   7.146   1.202   3.194  2.7276  1.4191 -0.8659
    3MOL   H244  968   7.144   0.985   3.405 -0.7276  0.6025  1.4324
    3MOL   H245  969   6.916   1.055   3.219  1.7195 -0.6930 -1.8121
    3MOL   H246  970   6.894   1.004   3.373  1.5450 -0.2175  1.6409
    3MOL   H247  971   7.060   0.837   3.174 -1.0109  1.2971 -2.1206
    3MOL   H248  972   6.924   0.759   3.432  2.4537  2.4903  2.6131
    3MOL   H249  973   7.098   0.770   3.409  0.0083  2.3926  0.2431
    3MOL   H250  974   7.011   0.650   3.315 -0.8977  0.4569 -0.2881
    3MOL   H251  975   6.761   0.820   3.210  0.4251 -2.9912  0.2063
    3MOL   H252  976   6.845   0.728   3.103  0.3093  0.6392 -1.7025
    3MOL   H253  977   6.841   0.895   3.077 -1.4550 -0.1318  0.2329
    3MOL   C254  978   7.063   1.189   3.439  0.8008 -0.1395 -0.2842
    3MOL   C255  979   7.025   1.159   3.590  0.5092 -0.3130 -0.3498
    3MOL   C256  980   7.118   1.068   3.672 -0.3710 -0.5284 -0.6625
    3MOL   C257  981   7.064   0.917   3.686 -0.1487  0.0634  0.2687
    3MOL   C258  982   6.970   0.908   3.802  0.6387 -0.2574 -0.2607
    3MOL   C259  983   7.170   0.814   3.712 -0.0774  0.0675  0.5790
    3MOL   H260  984   7.157   1.242   3.443 -0.1450  1.4486  1.3632
    3MOL   H261  985   7.003   1.264   3.388 -0.6776  0.6375  2.5247
    3MOL   H262  986   6.933   1.101   3.584  0.0410  0.4491 -0.5966
    3MOL   H263  987   7.135   1.111   3.771  0.2388 -0.7002 -0.6889
    3MOL   H264  988   7.220   1.068   3.633  0.1080  0.6390  0.5378
    3MOL   H265  989   7.001   0.893   3.601 -1.4914  1.4949  0.8480
    3MOL   H266  990   6.909   0.817   3.802  0.1246  0.0806  0.2493
    3MOL   H267  991   6.901   0.990   3.784 -1.8365 -1.4434  3.0645
    3MOL   H268  992   7.014   0.924   3.900  0.0985 -0.5459  0.0355
    3MOL   H269  993   7.136   0.711   3.709  1.0557 -0.2688 -2.1446
    3MOL   H270  994   7.231   0.834   3.624  3.3781  1.0684  3.0789
    3MOL   H271  995   7.226   0.828   3.804 -0.6619  2.1402  0.6493
    3MOL   C272  996   6.998   1.296   3.663 -0.6639 -0.4310 -0.8649
    3MOL   C273  997   6.908   1.296   3.784 -0.3317 -0.2876 -0.3166
    3MOL   C274  998   6.985   1.365   3.900  0.0404 -0.2372  0.4711
    3MOL   C275  999   6.944   1.316   4.044 -0.1358  0.5269  0.4747
    3MOL   C276 1000   6.962   1.415   4.152  0.0587 -0.3177 -0.4342
    3MOL   C277 1001   6.998   1.178   4.098 -0.4801 -0.3049  0.5743
    3MOL   H278 1002   7.091   1.348   3.684 -0.1022 -2.4458  1.9480
    3MOL   H279 1003   6.949   1.355   3.585  0.2970 -0.2376 -1.3245
    3MOL   H280 1004   6.884   1.196   3.821  1.8966 -0.7536 -0.0471
    3MOL   H281 1005   6.988   1.472   3.879 -1.0192  0.1761  2.3496
    3MOL   H282 1006   7.086   1.325   3.893  0.6958  1.7385 -2.0513
    3MOL   H283 1007   6.836   1.298   4.043 -0.0965  0.3013 -2.0176
    3MOL   H284 1008   7.061   1.404   4.196 -0.1830 -0.4157  0.0924
    3MOL   H285 1009   6.951   1.517   4.117 -1.0208  1.0466  3.5385
    3MOL   H286 1010   6.895   1.392   4.236 -0.4833  0.8754 -0.5359
    3MOL   H287 1011   6.985   1.096   4.026  0.6675 -2.0940  2.3443
    3MOL   H288 1012   7.105   1.181   4.116 -0.8609  0.4702  2.9113
    3MOL   H289 1013   6.955   1.135   4.189 -0.2638 -1.5533  0.1070
    3MOL   C290 1014   6.780   1.378   3.756  0.0931 -0.5955  0.1868
    3MOL   C291 1015   6.676   1.301   3.672  0.1461  0.4211 -0.1162
    3MOL   C292 1016   6.608   1.180   3.742 -0.7190 -0.0566  0.9124
    3MOL   C293 1017   6.530   1.079   3.655 -0.0070  0.3274 -0.5944
    3MOL   C294 1018   6.623   1.024   3.544  0.2338  0.0275  0.2015
    3MOL   C295 1019   6.471   0.959   3.729  0.3253 -0.3565 -0.5607
    3MOL   H296 1020   6.731   1.406   3.850  0.8166 -1.1039  0.7266
    3MOL   H297 1021   6.815   1.466   3.702 -2.6210  0.6147  0.3551
    3MOL   H298 1022   6.726   1.260   3.584 -1.3152 -1.0020 -0.3012
    3MOL   H299 1023   6.538   1.231   3.809 -2.1514 -1.6720  0.6869
    3MOL   H300 1024   6.677   1.119   3.800  0.0806  0.5278  0.5807
    3MOL   H301 1025   6.446   1.121   3.599 -0.4634  0.8881  0.4856
    3MOL   H302 1026   6.639   1.095   3.462  1.8020  0.2447  0.6775
    3MOL   H303 1027   6.589   0.931   3.498 -0.6800  0.3052  0.3087
    3MOL   H304 1028   6.717   0.991   3.589  0.9329  2.1550  0.3577
    3MOL   H305 1029   6.411   0.984   3.816 -0.3081  0.7870 -1.3108
    3MOL   H306 1030   6.553   0.903   3.775  0.1168 -0.4870 -0.3533
    3MOL   H307 1031   6.401   0.912   3.660  1.7490 -0.6694 -1.8289
    3MOL   C308 1032   6.560   1.399   3.631  0.0010 -0.1573 -0.2148
    3MOL   C309 1033   6.609   1.505   3.524 -0.1070 -0.1751 -0.6626
    3MOL   C310 1034   6.524   1.491   3.396  0.2690  0.1158  0.3219
    3MOL   C311 1035   6.552   1.367   3.313 -0.6536  0.1578  0.2472
    3MOL   C312 1036   6.467   1.373   3.185  0.5840  1.5176  0.3801
    3MOL   C313 1037   6.707   1.356   3.283  0.0459  0.0953 -0.1542
    3MOL   H314 1038   6.471   1.345   3.599 -0.5850  0.7399 -0.1270
    3MOL   H315 1039   6.535   1.442   3.728  1.5314  0.9908 -0.2974
    3MOL   H316 1040   6.714   1.487   3.500 -0.8254 -1.7853 -2.6989
    3MOL   H317 1041   6.562   1.571   3.333 -1.2387  0.4478 -0.1806
    3MOL   H318 1042   6.416   1.491   3.414  0.4381 -3.5267  1.7377
    3MOL   H319 1043   6.525   1.276   3.367 -1.3626  0.2871  0.1155
    3MOL   H320 1044   6.496   1.290   3.121 -1.8154  0.4661  0.6347
    3MOL   H321 1045   6.462   1.471   3.137  2.1466  0.6048 -1.7408
    3MOL   H322 1046   6.365   1.341   3.206  0.5606  0.0411 -1.8358
    3MOL   H323 1047   6.772   1.349   3.370  2.5506 -1.8892 -2.1026
    3MOL   H324 1048   6.718   1.266   3.223  2.3008 -0.3160  0.8384
    3MOL   H325 1049   6.744   1.439   3.223  0.5062  0.3640  0.4998
    3MOL   C326 1050   6.595   1.650   3.576 -0.8445  0.1939  0.0178
    3MOL   C327 1051   6.658   1.764   3.490 -0.7901  0.1410 -0.2365
    3MOL   C328 1052   6.812   1.751   3.485  0.1918  0.6195 -0.5757
    3MOL   C329 1053   6.879   1.662   3.377  0.3399  0.0179 -0.2845
    3MOL   C330 1054   6.889   1.732   3.241 -0.1462 -0.9303  0.1033
    3MOL   C331 1055   7.011   1.609   3.424 -0.4903 -0.7154 -0.2895
    3MOL   H332 1056   6.655   1.654   3.667  0.4384 -0.0288 -0.7943
    3MOL   H333 1057   6.501   1.673   3.625 -0.2844  1.0234  0.7135
    3MOL   H334 1058   6.611   1.768   3.392  0.1784 -1.7521 -0.7996
    3MOL   H335 1059   6.850   1.853   3.481 -0.7930  0.9708 -1.2717
    3MOL   H336 1060   6.841   1.708   3.581 -0.2084 -0.3505 -0.8745
    3MOL   H337 1061   6.818   1.574   3.358  0.6785 -0.1957 -0.3669
    3MOL   H338 1062   6.924   1.667   3.160  2.2634  3.0296 -2.1919
    3MOL   H339 1063   6.958   1.817   3.238  1.6858 -2.3933 -0.3650
    3MOL   H340 1064   6.786   1.755   3.214  0.9908  1.3251 -2.5631
    3MOL   H341 1065   7.094   1.678   3.412  0.1173 -0.8570  2.7156
    3MOL   H342 1066   7.010   1.584   3.530 -0.5821 -0.3270 -0.2004
    3MOL   H343 1067   7.040   1.522   3.364 -0.0283 -1.1153  0.5032
    3MOL   C344 1068   6.620   1.897   3.542  0.3435  1.2569  0.7137
    3MOL   C345 1069   6.658   2.024   3.452  0.4414 -0.3281 -0.3099
    3MOL   C346 1070   6.618   2.160   3.512 -0.1074  0.5991 -0.0252
    3MOL   C347 1071   6.629   2.278   3.419 -0.1574  0.3720 -0.0003
    3MOL   C348 1072   6.766   2.301   3.358  0.1755 -0.2370 -0.5391
    3MOL   C349 1073   6.603   2.400   3.507  0.5216 -0.4918 -0.4309
    3MOL   H350 1074   6.667   1.899   3.641  1.3025 -2.1295  0.3924
    3MOL   H351 1075   6.512   1.893   3.556  0.2405 -0.9086 -0.3947
    3MOL   H352 1076   6.602   2.011   3.359  1.1333  0.7998 -0.8884
    3MOL   H353 1077   6.514   2.154   3.542  0.0607 -0.0973  0.4186
    3MOL   H354 1078   6.689   2.172   3.594  0.2199 -2.7744  0.2501
    3MOL   H355 1079   6.555   2.279   3.339 -0.0224 -3.6309 -0.2679
    3MOL   H356 1080   6.846   2.291   3.432  0.4490 -0.7974 -0.9095
    3MOL   H357 1081   6.785   2.233   3.276 -2.7459  0.8967 -2.1941
    3MOL   H358 1082   6.782   2.401   3.318 -1.1365  0.1391 -0.1310
    3MOL   H359 1083   6.505   2.383   3.553  0.9402 -0.3928  0.5168
    3MOL   H360 1084   6.592   2.491   3.448  1.3164  0.3389  0.6759
    3MOL   H361 1085   6.684   2.423   3.576 -0.1824 -1.7029  0.8363
    3MOL   H362 1086   6.762   2.030   3.422  0.9491 -2.7302  0.8232
    4MOL     C1 1087   4.967   2.581   4.294  0.3248 -0.3066  0.3953
    4MOL     C2 1088   5.007   2.620   4.440 -0.2814 -0.4745 -0.2862
    4MOL     C3 1089   4.951   2.533   4.550 -0.0887  0.1111 -0.5060
    4MOL     C4 1090   5.015   2.388   4.566 -0.3711 -0.6348  0.2271
    4MOL     C5 1091   4.941   2.292   4.664 -0.5087  0.3081 -0.7872
    4MOL     C6 1092   5.163   2.396   4.600 -0.3967 -0.3383 -0.2358
    4MOL     H7 1093   5.024   2.628   4.215  2.1621 -1.6141  0.8948
    4MOL     H8 1094   5.009   2.480   4.289  0.3163 -0.2446 -0.8971
    4MOL     H9 1095   5.115   2.618   4.444 -0.2878  1.6377  1.9293
    4MOL    H10 1096   4.957   2.579   4.649 -1.2724 -0.6192 -0.0800
    4MOL    H11 1097   4.842   2.534   4.544 -0.4678 -3.4443  3.3453
    4MOL    H12 1098   5.002   2.342   4.468  1.1567 -1.3255  0.3391
    4MOL    H13 1099   4.841   2.274   4.625  0.8769 -2.2676 -3.3243
    4MOL    H14 1100   4.987   2.194   4.671  0.6380  0.9268  0.6281
    4MOL    H15 1101   4.944   2.328   4.767 -0.5333 -1.9313  0.0071
    4MOL    H16 1102   5.223   2.305   4.596  0.3593  0.1332  0.1144
    4MOL    H17 1103   5.170   2.431   4.703 -0.2033 -0.9326 -0.0437
    4MOL    H18 1104   5.219   2.470   4.543  1.0696 -0.0264  1.5555
    4MOL    H19 1105   4.859   2.567   4.284  0.1577 -0.6264  2.3498
    4MOL    C20 1106   4.974   2.757   4.473 -0.3875 -0.1302  0.1244
    4MOL    C21 1107   5.010   2.867   4.373  0.2922  0.3970  0.6540
    4MOL    C22 1108   4.910   2.986   4.397 -0.1384  0.3178 -0.5379
    4MOL    C23 1109   4.789   2.976   4.306 -0.3847 -0.0538  0.1551
    4MOL    C24 1110   4.659   3.018   4.365  0.3654  0.3498  0.8182
    4MOL    C25 1111   4.807   3.050   4.172  0.2239  0.2081  0.1685
    4MOL    H26 1112   4.865   2.755   4.486 -0.8262  3.4328 -2.1736
    4MOL    H27 1113   5.011   2.784   4.572  1.6419  1.8907 -1.1386
    4MOL    H28 1114   4.994   2.837   4.269 -0.5874  2.5449  0.1447
    4MOL    H29 1115   4.962   3.081   4.385  0.7716 -0.0495  0.4211
    4MOL    H30 1116   4.883   2.979   4.502  1.3350  0.8482 -0.1167
    4MOL    H31 1117   4.772   2.871   4.283 -0.3857  0.5676 -2.9625
    4MOL    H32 1118   4.634   2.958   4.452 -0.3833 -2.1123 -1.0275
    4MOL    H33 1119   4.582   3.006   4.288 -0.4856  1.2016  1.5192
    4MOL    H34 1120   4.649   3.126   4.381  0.2881  0.7216 -1.5248
    4MOL    H35 1121   4.913   3.043   4.148 -0.1768  0.4215 -1.7708
    4MOL    H36 1122   4.754   2.992   4.096 -0.4465  0.1991  0.6307
    4MOL    H37 1123   4.783   3.156   4.182 -0.5238  0.2982 -2.2744
    4MOL    C38 1124   5.159   2.906   4.403 -0.4452  0.2935 -0.4094
    4MOL    C39 1125   5.237   2.963   4.283 -0.2127  0.7043 -0.3835
    4MOL    C40 1126   5.213   3.112   4.258  0.2556 -0.3092 -0.2513
    4MOL    C41 1127   5.327   3.184   4.191  0.7665 -0.9259  0.4494
    4MOL    C42 1128   5.456   3.181   4.277  0.4027  0.4054 -0.2239
    4MOL    C43 1129   5.295   3.331   4.149 -0.2628 -0.7123  0.7666
    4MOL    H44 1130   5.203   2.814   4.442  1.4314  1.3512  0.0277
    4MOL    H45 1131   5.168   2.968   4.491 -0.6784 -1.2043  0.6866
    4MOL    H46 1132   5.339   2.954   4.322 -0.1257 -2.3351 -1.1485
    4MOL    H47 1133   5.203   3.157   4.356 -0.5407  1.4549 -1.1118
    4MOL    H48 1134   5.124   3.127   4.196  0.2766 -1.6046 -0.6218
    4MOL    H49 1135   5.347   3.124   4.103  2.0094  0.3948 -0.1908
    4MOL    H50 1136   5.438   3.191   4.384 -0.6929 -0.6745 -0.2903
    4MOL    H51 1137   5.526   3.099   4.259  0.5462  0.2480  1.0343
    4MOL    H52 1138   5.511   3.274   4.265 -0.8544  0.9258 -2.0922
    4MOL    H53 1139   5.352   3.361   4.061  0.6545 -2.2909  0.7943
    4MOL    H54 1140   5.314   3.409   4.223  2.1271  1.5415 -2.0781
    4MOL    H55 1141   5.191   3.342   4.120  0.5372  0.1715 -1.9535
    4MOL    C56 1142   5.241   2.875   4.156  0.5940  0.2549 -0.1753
    4MOL    C57 1143   5.320   2.742   4.175 -0.9436 -0.2109 -0.2551
    4MOL    C58 1144   5.471   2.766   4.214 -0.1207  0.2831  0.3700
    4MOL    C59 1145   5.506   2.761   4.370  0.2588  0.3611  0.1217
    4MOL    C60 1146   5.632   2.834   4.388 -0.1384  0.0000 -0.5513
    4MOL    C61 1147   5.500   2.619   4.425  0.4305 -0.2066 -0.1697
    4MOL    H62 1148   5.287   2.928   4.072 -0.3373 -0.3125 -1.0692
    4MOL    H63 1149   5.140   2.852   4.120  0.8009 -1.8764  0.5529
    4MOL    H64 1150   5.267   2.695   4.258 -1.2814 -0.2474 -0.4889
    4MOL    H65 1151   5.530   2.691   4.163 -2.1393 -0.2716 -1.2280
    4MOL    H66 1152   5.510   2.858   4.172 -0.6868 -0.0597 -0.9536
    4MOL    H67 1153   5.427   2.805   4.431 -1.0814 -0.5025 -0.9622
    4MOL    H68 1154   5.661   2.837   4.493 -1.2638  0.0484 -0.2434
    4MOL    H69 1155   5.625   2.934   4.345 -0.5130  1.0913  1.9675
    4MOL    H70 1156   5.707   2.768   4.344 -2.1184 -4.4322  2.3852
    4MOL    H71 1157   5.396   2.588   4.414  0.2800  0.3835 -0.4889
    4MOL    H72 1158   5.515   2.624   4.533  1.7258  2.5516 -0.4313
    4MOL    H73 1159   5.575   2.555   4.378  1.0109 -0.9383  1.7256
    4MOL    C74 1160   5.311   2.656   4.046  0.0099  0.0939 -0.3084
    4MOL    C75 1161   5.352   2.512   4.049  0.1183 -0.2681  0.4684
    4MOL    C76 1162   5.346   2.455   3.907 -0.1602 -0.2426 -0.7199
    4MOL    C77 1163   5.448   2.508   3.798  0.0922  0.0239 -0.0409
    4MOL    C78 1164   5.387   2.480   3.660 -0.3162 -0.1939  0.0228
    4MOL    C79 1165   5.587   2.442   3.815 -0.1612  0.2905 -0.3286
    4MOL    H80 1166   5.353   2.709   3.960 -0.5013  2.7654  1.0286
    4MOL    H81 1167   5.212   2.661   4.003  0.5279  3.3543 -1.2923
    4MOL    H82 1168   5.448   2.502   4.098  0.4337  1.1509  0.1629
    4MOL    H83 1169   5.346   2.346   3.914  1.0887 -0.1662  0.4860
    4MOL    H84 1170   5.244   2.473   3.872  1.2083  0.6943 -4.5340
    4MOL    H85 1171   5.468   2.615   3.804 -2.2118  0.5433 -1.1778
    4MOL    H86 1172   5.425   2.561   3.598 -3.2408  0.2029 -1.3393
    4MOL    H87 1173   5.278   2.486   3.661 -0.2706  0.9757 -0.9145
    4MOL    H88 1174   5.426   2.389   3.614 -0.6546  0.3748 -1.4259
    4MOL    H89 1175   5.661   2.487   3.750  0.9105 -0.4210  0.3752
    4MOL    H90 1176   5.620   2.444   3.919 -1.9006  0.5199  0.2309
    4MOL    H91 1177   5.595   2.338   3.784  0.7577  0.5091 -0.8451
    4MOL    C92 1178   5.264   2.430   4.143  0.0337  0.3564  0.1309
    4MOL    C93 1179   5.317   2.286   4.176 -0.2760 -0.2294  0.1441
    4MOL    C94 1180   5.401   2.302   4.301  0.6799 -0.3456 -0.2050
    4MOL    C95 1181   5.471   2.167   4.343  0.1097 -0.5214 -0.3403
    4MOL    C96 1182   5.532   2.087   4.226 -0.4500 -0.2984 -0.3533
    4MOL    C97 1183   5.576   2.197   4.463  0.6043 -0.3309  0.0356
    4MOL    H98 1184   5.259   2.473   4.243 -0.0698 -2.8967  1.6045
    4MOL    H99 1185   5.161   2.422   4.108  0.2140  0.4275 -0.4150
    4MOL   H100 1186   5.381   2.262   4.091 -1.4448  0.7653 -1.0278
    4MOL   H101 1187   5.348   2.354   4.382  2.3398  2.9321 -1.1363
    4MOL   H102 1188   5.481   2.368   4.268 -1.4692  1.5633 -1.7200
    4MOL   H103 1189   5.387   2.108   4.380 -0.9591  1.5599  0.6611
    4MOL   H104 1190   5.603   2.147   4.169  2.0355 -2.2130  0.6624
    4MOL   H105 1191   5.456   2.043   4.161  0.2677 -1.9355 -0.1059
    4MOL   H106 1192   5.590   2.004   4.266  1.1612  2.2531  2.8191
    4MOL   H107 1193   5.540   2.266   4.540 -0.3063  0.4434 -1.0594
    4MOL   H108 1194   5.661   2.245   4.414 -0.9700  0.6068 -1.8494
    4MOL   H109 1195   5.594   2.103   4.514 -1.8779 -0.2450  1.1415
    4MOL   C110 1196   5.200   2.186   4.188  0.0220  1.0929 -0.2241
    4MOL   C111 1197   5.128   2.152   4.053  0.8243 -0.6474 -0.8022
    4MOL   C112 1198   5.204   2.041   3.979 -0.3232  0.1396 -0.1844
    4MOL   C113 1199   5.143   2.007   3.843 -0.1791 -0.9052 -0.0226
    4MOL   C114 1200   5.190   1.871   3.808 -0.2991  0.4589  0.6879
    4MOL   C115 1201   5.186   2.116   3.738  0.3519 -0.0616  0.3899
    4MOL   H116 1202   5.138   2.230   4.266  1.4577 -0.6383  1.9461
    4MOL   H117 1203   5.239   2.095   4.234 -1.1768  0.6995  0.0554
    4MOL   H118 1204   5.135   2.241   3.990  0.8246 -0.2576 -0.2497
    4MOL   H119 1205   5.211   1.955   4.045  1.8158 -0.4717 -1.1889
    4MOL   H120 1206   5.309   2.069   3.973 -0.6747  1.4207 -0.5609
    4MOL   H121 1207   5.035   1.997   3.847 -0.1253 -1.0726  1.5788
    4MOL   H122 1208   5.296   1.864   3.782 -0.7754  0.7106 -1.4528
    4MOL   H123 1209   5.129   1.825   3.731 -3.1163 -0.0021  3.1499
    4MOL   H124 1210   5.182   1.802   3.891  2.5817 -0.2962  0.4122
    4MOL   H125 1211   5.172   2.070   3.640  0.4782  1.3901 -0.3311
    4MOL   H126 1212   5.293   2.134   3.750  0.7869 -0.0520 -3.1178
    4MOL   H127 1213   5.116   2.200   3.741  0.6315  0.3367 -2.8026
    4MOL   C128 1214   4.981   2.125   4.080  1.0579  0.1782  0.4532
    4MOL   C129 1215   4.886   2.198   3.975 -0.4130  0.2634 -0.4690
    4MOL   C130 1216   4.883   2.356   3.996 -0.4088 -0.7549  0.7415
    4MOL   C131 1217   4.806   2.432   3.888  0.6569 -0.0721  0.0571
    4MOL   C132 1218   4.734   2.553   3.944 -0.5527  0.3001  0.3500
    4MOL   C133 1219   4.906   2.468   3.777  1.0009  0.5305  0.0159
    4MOL   H134 1220   4.962   2.162   4.181 -0.2595 -0.4543  0.4464
    4MOL   H135 1221   4.956   2.020   4.066 -1.5546  0.9626 -1.1082
    4MOL   H136 1222   4.925   2.179   3.875 -1.3498  3.1263 -1.4148
    4MOL   H137 1223   4.852   2.382   4.097  0.5014 -0.0211  0.8428
    4MOL   H138 1224   4.988   2.386   3.997  0.0412 -2.2625  0.3175
    4MOL   H139 1225   4.730   2.368   3.844  1.9158 -0.8251 -1.0496
    4MOL   H140 1226   4.799   2.640   3.957 -0.6809  0.3778  0.4638
    4MOL   H141 1227   4.696   2.530   4.043 -1.0042 -0.6177 -0.0300
    4MOL   H142 1228   4.644   2.576   3.887  0.5344 -0.3479 -1.7122
    4MOL   H143 1229   4.980   2.544   3.800  1.8468 -0.3442  0.1916
    4MOL   H144 1230   4.975   2.386   3.760  0.6673 -0.1508  1.8208
    4MOL   H145 1231   4.856   2.501   3.686  3.5184  1.8779 -0.9172
    4MOL   C146 1232   4.741   2.131   3.971 -0.4046 -0.1228 -0.7095
    4MOL   C147 1233   4.634   2.185   4.067 -0.3482 -0.6756  0.6509
    4MOL   C148 1234   4.661   2.125   4.206  1.1866  0.2963 -0.0653
    4MOL   C149 1235   4.588   2.185   4.325 -0.6993 -0.3315  0.0689
    4MOL   C150 1236   4.582   2.108   4.453  0.0294 -0.2345 -0.4048
    4MOL   C151 1237   4.637   2.327   4.351 -0.0108  0.3232 -0.8489
    4MOL   H152 1238   4.759   2.024   3.976  3.3728  0.3444 -2.1583
    4MOL   H153 1239   4.711   2.136   3.866 -0.7377  2.4130 -0.5269
    4MOL   H154 1240   4.638   2.294   4.059 -2.2372 -0.7256 -1.4841
    4MOL   H155 1241   4.650   2.017   4.215  2.0996  0.0543 -1.6218
    4MOL   H156 1242   4.767   2.141   4.228  1.5791 -0.7087 -1.1511
    4MOL   H157 1243   4.489   2.208   4.286  0.0358  0.0443 -1.6451
    4MOL   H158 1244   4.550   2.165   4.540  0.5595  1.2409 -1.1671
    4MOL   H159 1245   4.682   2.065   4.460  0.1433  0.0343 -0.3925
    4MOL   H160 1246   4.518   2.021   4.439 -1.3267  0.7381 -0.2510
    4MOL   H161 1247   4.600   2.392   4.272  2.3374  1.2951 -1.1788
    4MOL   H162 1248   4.744   2.339   4.365  0.5690  0.5853 -5.0767
    4MOL   H163 1249   4.597   2.369   4.444  2.0485  1.1297 -0.3117
    4MOL   C164 1250   4.492   2.130   4.022 -0.2943 -0.2777  0.6158
    4MOL   C165 1251   4.387   2.242   4.009  0.2648 -0.1758 -0.6234
    4MOL   C166 1252   4.422   2.340   3.892 -0.6306 -0.2411 -0.5445
    4MOL   C167 1253   4.469   2.287   3.760 -0.6429 -0.1716  0.1841
    4MOL   C168 1254   4.383   2.191   3.686  0.4986 -0.0966 -0.4114
    4MOL   C169 1255   4.510   2.403   3.657 -0.0868 -0.6021 -0.2212
    4MOL   H170 1256   4.510   2.077   3.928 -1.6226 -0.5350  0.4915
    4MOL   H171 1257   4.458   2.057   4.095 -0.9806 -0.2513  0.3224
    4MOL   H172 1258   4.399   2.296   4.102 -0.2546  0.1171 -0.7290
    4MOL   H173 1259   4.335   2.403   3.875 -0.3975  0.2863  0.1929
    4MOL   H174 1260   4.497   2.409   3.930 -0.1881 -0.0599 -1.7332
    4MOL   H175 1261   4.567   2.244   3.780  0.2836  0.6040 -2.5801
    4MOL   H176 1262   4.285   2.235   3.668 -0.4788 -1.6004  1.1681
    4MOL   H177 1263   4.386   2.100   3.745  4.1896  1.5206  2.1204
    4MOL   H178 1264   4.427   2.180   3.586 -0.3165  1.3815 -0.9606
    4MOL   H179 1265   4.552   2.492   3.704  2.3188 -0.8231 -1.8921
    4MOL   H180 1266   4.423   2.430   3.597 -0.5097 -0.4648  0.4359
    4MOL   H181 1267   4.592   2.375   3.592 -3.2373 -3.7710 -3.0386
    4MOL   C182 1268   4.244   2.191   4.014 -0.2395  0.2841 -0.3050
    4MOL   C183 1269   4.192   2.141   4.157  0.2092  0.6105 -0.0758
    4MOL   C184 1270   4.148   2.263   4.242 -1.1975  0.4436 -0.2145
    4MOL   C185 1271   4.113   2.245   4.392 -0.6300  0.1800 -0.4088
    4MOL   C186 1272   4.234   2.167   4.456 -0.6167 -0.3396 -0.0900
    4MOL   C187 1273   4.102   2.379   4.468  0.0386 -0.2294 -0.2033
    4MOL   H188 1274   4.221   2.134   3.923 -1.6142  0.3354 -0.0045
    4MOL   H189 1275   4.182   2.278   3.992 -0.3577  0.2276 -0.1982
    4MOL   H190 1276   4.269   2.083   4.208 -0.2660 -0.1385 -0.2044
    4MOL   H191 1277   4.059   2.307   4.197 -1.5455  1.0104  1.0271
    4MOL   H192 1278   4.225   2.340   4.231 -0.0277 -0.8359 -1.0023
    4MOL   H193 1279   4.018   2.195   4.404 -0.4807 -0.1843 -0.7300
    4MOL   H194 1280   4.207   2.166   4.562  0.7098 -3.0924  0.2540
    4MOL   H195 1281   4.329   2.219   4.443 -0.5169  0.0957  2.1626
    4MOL   H196 1282   4.249   2.063   4.429  1.0998 -0.4321  1.1193
    4MOL   H197 1283   4.083   2.359   4.574  0.6906  0.1996 -0.0021
    4MOL   H198 1284   4.029   2.444   4.419 -0.2866 -0.2565  0.2359
    4MOL   H199 1285   4.193   2.437   4.455  1.2993 -2.0789  0.2172
    4MOL   C200 1286   4.072   2.045   4.142  0.2810 -0.4401  0.3009
    4MOL   C201 1287   4.087   1.927   4.040  0.4712 -0.2121 -0.5340
    4MOL   C202 1288   4.001   1.955   3.908 -0.4092  0.4725  0.2142
    4MOL   C203 1289   4.053   1.885   3.776  0.1599  0.1779 -0.2503
    4MOL   C204 1290   3.944   1.784   3.733  0.5474 -0.8215  0.4879
    4MOL   C205 1291   4.075   1.996   3.673 -0.0508  0.0596 -0.7018
    4MOL   H206 1292   3.987   2.104   4.109 -1.3719 -3.3088 -0.7136
    4MOL   H207 1293   4.038   1.997   4.234  0.6261  1.2253  1.3099
    4MOL   H208 1294   4.192   1.924   4.014  0.4154  0.7503 -0.8707
    4MOL   H209 1295   3.896   1.941   3.933 -0.0968  0.1459  1.3883
    4MOL   H210 1296   4.012   2.062   3.891  0.2012 -0.0319 -2.7124
    4MOL   H211 1297   4.142   1.823   3.790 -1.1589 -2.0567 -1.5717
    4MOL   H212 1298   3.848   1.826   3.705  2.5942  3.1433 -1.0407
    4MOL   H213 1299   3.934   1.697   3.798  0.3639 -2.3805 -1.5537
    4MOL   H214 1300   3.983   1.740   3.640  2.4190  1.7402 -0.0116
    4MOL   H215 1301   4.154   2.065   3.702 -1.9964  1.2821  1.9244
    4MOL   H216 1302   3.980   2.049   3.661 -0.3456  0.6349  3.4497
    4MOL   H217 1303   4.096   1.950   3.576  0.6169  0.0250 -0.5461
    4MOL   C218 1304   4.050   1.791   4.103  0.3234 -0.2544  0.3490
    4MOL   C219 1305   4.160   1.750   4.213  0.1613  0.9558  0.4379
    4MOL   C220 1306   4.289   1.706   4.149 -0.5353 -0.0942  0.2669
    4MOL   C221 1307   4.408   1.675   4.241  0.2071  0.5689 -0.1928
    4MOL   C222 1308   4.529   1.630   4.154  0.1556 -0.4438 -0.1490
    4MOL   C223 1309   4.450   1.793   4.319  0.1873  0.4348  0.1875
    4MOL   H224 1310   3.953   1.780   4.152 -0.6619 -0.3047 -1.5592
    4MOL   H225 1311   4.039   1.721   4.021 -0.9426 -0.0536  0.3375
    4MOL   H226 1312   4.181   1.836   4.277  2.5643  0.8948 -0.2476
    4MOL   H227 1313   4.269   1.615   4.092  0.9572 -1.0607  1.2460
    4MOL   H228 1314   4.326   1.777   4.074 -0.1959 -0.9838 -0.4151
    4MOL   H229 1315   4.387   1.590   4.307 -1.4407  0.7203 -0.4956
    4MOL   H230 1316   4.615   1.592   4.210  0.0578 -0.4681 -0.0153
    4MOL   H231 1317   4.502   1.560   4.075 -3.2303 -1.7839  2.0850
    4MOL   H232 1318   4.554   1.721   4.100 -0.3318 -1.0153 -1.3642
    4MOL   H233 1319   4.546   1.775   4.367 -0.7012 -1.2259  1.4045
    4MOL   H234 1320   4.468   1.876   4.251 -2.4547  0.3723 -0.6748
    4MOL   H235 1321   4.376   1.837   4.387 -0.1218  0.3706 -0.1017
    4MOL   C236 1322   4.089   1.644   4.302  0.1533  0.6375 -0.2533
    4MOL   C237 1323   4.000   1.704   4.409  0.0644 -0.0585  0.4039
    4MOL   C238 1324   4.098   1.749   4.531 -0.4577 -0.3723  0.4105
    4MOL   C239 1325   4.026   1.839   4.638 -0.8313  0.0683  0.1671
    4MOL   C240 1326   4.118   1.876   4.750 -0.0159  0.8196  0.0681
    4MOL   C241 1327   3.948   1.964   4.597  0.9409  0.3867  0.0949
    4MOL   H242 1328   4.160   1.584   4.358 -0.6058  0.5976  0.6847
    4MOL   H243 1329   4.036   1.578   4.233 -2.4271  1.6569  0.6845
    4MOL   H244 1330   3.958   1.799   4.375  1.0052  0.3741  0.4283
    4MOL   H245 1331   4.187   1.801   4.496  0.9409 -2.2105  1.1875
    4MOL   H246 1332   4.136   1.656   4.572  0.5745 -0.1553 -0.0410
    4MOL   H247 1333   3.955   1.770   4.684  0.2091 -0.6630  0.7021
    4MOL   H248 1334   4.058   1.898   4.838 -0.7417  1.3318 -0.5503
    4MOL   H249 1335   4.185   1.955   4.717 -0.9154  1.0959 -1.1295
    4MOL   H250 1336   4.179   1.791   4.783 -1.1919 -0.2649 -0.5139
    4MOL   H251 1337   4.007   2.041   4.547 -0.5736 -0.3327 -2.9179
    4MOL   H252 1338   3.894   1.998   4.685  0.1011 -1.2150  0.2168
    4MOL   H253 1339   3.869   1.941   4.526  1.3318  3.9234 -1.6021
    4MOL   C254 1340   3.882   1.613   4.464 -0.8675 -1.1762 -0.4615
    4MOL   C255 1341   3.758   1.598   4.382  0.3361 -1.1659  0.3399
    4MOL   C256 1342   3.691   1.460   4.408  0.5854 -0.1930 -0.4271
    4MOL   C257 1343   3.711   1.355   4.300  0.4998  0.1945  0.3577
    4MOL   C258 1344   3.626   1.233   4.350 -0.4549  0.2660  0.8934
    4MOL   C259 1345   3.853   1.308   4.280 -0.4799  0.4480  0.2848
    4MOL   H260 1346   3.926   1.513   4.473 -0.1283 -0.6391  2.7461
    4MOL   H261 1347   3.870   1.638   4.570  0.9675  2.2411 -0.9950
    4MOL   H262 1348   3.783   1.605   4.276 -1.9719  1.9628 -0.0777
    4MOL   H263 1349   3.585   1.480   4.425  0.8392  0.7004  0.1715
    4MOL   H264 1350   3.716   1.419   4.506 -3.1061 -0.6969  0.3607
    4MOL   H265 1351   3.657   1.392   4.214  1.4954 -1.5637 -1.0715
    4MOL   H266 1352   3.653   1.143   4.295  1.0616  0.1891  1.7424
    4MOL   H267 1353   3.518   1.243   4.338 -0.3641  1.9423  1.2994
    4MOL   H268 1354   3.629   1.196   4.452  0.4036 -0.2108  0.6991
    4MOL   H269 1355   3.904   1.296   4.375  2.6040 -0.5243 -1.4497
    4MOL   H270 1356   3.871   1.214   4.228  0.6490  1.1432 -0.6292
    4MOL   H271 1357   3.921   1.373   4.226  0.1236 -0.1594  0.3070
    4MOL   C272 1358   3.656   1.713   4.389 -0.8984  0.2134 -0.2547
    4MOL   C273 1359   3.559   1.724   4.272 -0.5777 -0.3535  0.0197
    4MOL   C274 1360   3.418   1.775   4.328 -0.7930 -0.0050  0.1601
    4MOL   C275 1361   3.352   1.687   4.431 -0.5883  0.1749 -0.3277
    4MOL   C276 1362   3.295   1.556   4.383 -0.6195  0.2847 -0.2109
    4MOL   C277 1363   3.252   1.774   4.508 -0.8200 -0.4548 -0.5841
    4MOL   H278 1364   3.612   1.704   4.488  0.4002  2.8369  0.6327
    4MOL   H279 1365   3.710   1.806   4.408  1.2670 -1.1420  0.4728
    4MOL   H280 1366   3.529   1.626   4.232 -2.1714 -0.5903  1.7242
    4MOL   H281 1367   3.346   1.789   4.247  0.1559 -0.1794 -0.7189
    4MOL   H282 1368   3.439   1.870   4.378  0.3843 -0.4911  0.6059
    4MOL   H283 1369   3.423   1.658   4.509 -1.5036  0.0509  0.4666
    4MOL   H284 1370   3.241   1.575   4.290 -1.3479 -0.6040  0.0192
    4MOL   H285 1371   3.373   1.494   4.340 -0.5080  0.9673 -1.0091
    4MOL   H286 1372   3.232   1.498   4.450  1.5105 -2.0457 -0.1510
    4MOL   H287 1373   3.286   1.871   4.542  0.3345 -1.7797  2.1454
    4MOL   H288 1374   3.153   1.788   4.465 -1.2747  0.5550  0.7751
    4MOL   H289 1375   3.233   1.729   4.605  0.8240  0.3110  0.1044
    4MOL   C290 1376   3.611   1.814   4.156 -0.4797  0.0621  0.1285
    4MOL   C291 1377   3.547   1.784   4.017 -0.0864  0.5737  0.1650
    4MOL   C292 1378   3.556   1.908   3.920  0.2382  0.1245  0.2498
    4MOL   C293 1379   3.433   1.958   3.847  0.2892  0.1165 -0.3085
    4MOL   C294 1380   3.323   2.004   3.945 -0.4039  0.6619 -0.2751
    4MOL   C295 1381   3.472   2.072   3.751  0.2488 -0.6985  0.0601
    4MOL   H296 1382   3.605   1.922   4.175  0.6644 -0.1555  1.8386
    4MOL   H297 1383   3.716   1.790   4.139 -1.4329 -1.9653 -3.3510
    4MOL   H298 1384   3.446   1.768   4.055  0.2924  0.3797  1.1190
    4MOL   H299 1385   3.633   1.897   3.843 -1.0453  1.0148 -1.2014
    4MOL   H300 1386   3.596   1.995   3.972 -2.8629  1.1893  0.9043
    4MOL   H301 1387   3.387   1.873   3.797 -0.4711 -0.0657  0.6915
    4MOL   H302 1388   3.293   1.919   4.007  0.9161  1.3564  1.3715
    4MOL   H303 1389   3.225   2.030   3.905 -0.7753 -0.6066 -0.2138
    4MOL   H304 1390   3.353   2.083   4.014  1.4552 -0.4724  0.2625
    4MOL   H305 1391   3.380   2.109   3.707 -1.0815 -4.2148 -0.3474
    4MOL   H306 1392   3.547   2.042   3.678 -1.7712 -2.1773 -1.4830
    4MOL   H307 1393   3.512   2.153   3.811 -2.4792  0.9810 -0.3087
    4MOL   C308 1394   3.596   1.654   3.952 -0.0643  0.2066  0.6145
    4MOL   C309 1395   3.482   1.565   3.889  0.1049 -0.2809  0.3563
    4MOL   C310 1396   3.552   1.451   3.811 -0.1952 -0.2687 -0.0103
    4MOL   C311 1397   3.667   1.488   3.705 -0.1643  0.5620 -0.1713
    4MOL   C312 1398   3.732   1.365   3.614 -0.0860 -0.2354 -0.3114
    4MOL   C313 1399   3.599   1.589   3.613  0.2803  0.2692  0.3179
    4MOL   H314 1400   3.664   1.676   3.870 -1.9243 -1.1770 -1.3523
    4MOL   H315 1401   3.660   1.593   4.016  2.5804  1.0006 -1.2024
    4MOL   H316 1402   3.439   1.629   3.812 -0.5727  0.8279  1.6335
    4MOL   H317 1403   3.482   1.396   3.748  2.0512  0.0650 -2.9250
    4MOL   H318 1404   3.597   1.378   3.878 -1.3206  0.2237  1.2901
    4MOL   H319 1405   3.757   1.526   3.751 -0.2477 -0.2938  0.7307
    4MOL   H320 1406   3.657   1.322   3.548  0.2924 -3.7029  1.4125
    4MOL   H321 1407   3.750   1.279   3.677 -0.8750 -0.1504  0.0305
    4MOL   H322 1408   3.820   1.399   3.559  1.5892 -0.1910  2.3331
    4MOL   H323 1409   3.607   1.691   3.652 -0.0994  0.2237  0.5207
    4MOL   H324 1410   3.642   1.589   3.513 -0.2031  0.8151  0.1069
    4MOL   H325 1411   3.495   1.564   3.589  0.8205 -2.0904  0.3115
    4MOL   C326 1412   3.383   1.505   3.993  0.5809 -0.0499  0.2396
    4MOL   C327 1413   3.259   1.428   3.937 -0.0995  1.1586  0.8445
    4MOL   C328 1414   3.169   1.508   3.842 -0.2488 -0.4292 -0.1727
    4MOL   C329 1415   3.131   1.649   3.882 -0.1523  0.1193  0.6258
    4MOL   C330 1416   3.066   1.727   3.767 -0.2593 -0.0414  0.2294
    4MOL   C331 1417   3.036   1.646   4.013 -0.8638  0.5029  0.3825
    4MOL   H332 1418   3.348   1.571   4.073  2.5068 -0.9995  1.9006
    4MOL   H333 1419   3.439   1.438   4.058  0.6138 -1.7329 -1.4721
    4MOL   H334 1420   3.304   1.354   3.871 -2.0375 -1.2677  2.1604
    4MOL   H335 1421   3.222   1.523   3.748 -0.9143 -0.4342 -0.5537
    4MOL   H336 1422   3.076   1.454   3.821  0.6526 -1.5848 -1.2772
    4MOL   H337 1423   3.226   1.696   3.906  1.5884 -1.1059 -3.5148
    4MOL   H338 1424   3.061   1.830   3.804 -1.6151 -1.0873  3.1203
    4MOL   H339 1425   2.966   1.689   3.746 -0.4161 -0.1126  1.0939
    4MOL   H340 1426   3.131   1.730   3.680 -0.4085  1.3395  0.1447
    4MOL   H341 1427   2.966   1.562   4.010 -0.6674  0.3881 -2.0713
    4MOL   H342 1428   3.095   1.645   4.105  2.6164 -1.3465 -1.7625
    4MOL   H343 1429   2.986   1.742   4.025 -0.1557  1.0483 -0.9861
    4MOL   C344 1430   3.176   1.359   4.049  0.5498  0.1436 -0.1160
    4MOL   C345 1431   3.071   1.253   3.999 -0.1182  0.3157  0.1562
    4MOL   C346 1432   2.999   1.185   4.119  0.1022 -0.3550  0.3840
    4MOL   C347 1433   2.896   1.075   4.075 -0.5235 -0.1219  0.1231
    4MOL   C348 1434   2.797   1.111   3.961 -0.0458 -0.0892 -0.0273
    4MOL   C349 1435   2.814   1.040   4.206 -0.2792 -0.2861 -0.2883
    4MOL   H350 1436   3.134   1.425   4.125  1.3453  1.1157 -0.5178
    4MOL   H351 1437   3.244   1.314   4.122  0.6833  0.4504 -0.0491
    4MOL   H352 1438   3.107   1.175   3.932 -0.1128 -0.2085  0.7569
    4MOL   H353 1439   3.071   1.137   4.186  2.2381  0.6433 -1.1264
    4MOL   H354 1440   2.936   1.253   4.176  0.8301  0.2195  0.5062
    4MOL   H355 1441   2.954   0.986   4.051 -1.0614 -0.2655 -0.6686
    4MOL   H356 1442   2.838   1.151   3.868 -0.4974  2.9675  1.0252
    4MOL   H357 1443   2.727   1.029   3.943  1.6436 -1.3729 -0.8723
    4MOL   H358 1444   2.746   1.199   3.999 -0.5780  0.3372 -1.6905
    4MOL   H359 1445   2.872   0.989   4.283 -0.0839  0.7689  0.2862
    4MOL   H360 1446   2.732   0.972   4.182  0.1606 -1.6610  1.9173
    4MOL   H361 1447   2.762   1.120   4.260  0.9081  0.6167 -0.4486
    4MOL   H362 1448   2.996   1.312   3.948  0.0157  0.0732 -0.3235
    5MOL     C1 1449   3.407   6.091   4.273 -0.2634 -0.4553  0.3219
    5MOL     C2 1450   3.349   6.236   4.306  0.0338 -0.6580 -0.7019
    5MOL     C3 1451   3.269   6.284   4.181 -0.0596  0.6512  0.5029
    5MOL     C4 1452   3.131   6.210   4.158  0.6147  0.5147  0.0215
    5MOL     C5 1453   3.075   6.256   4.028 -1.1583  0.2013 -0.7048
    5MOL     C6 1454   3.018   6.229   4.264  0.0317 -0.7605 -0.5510
    5MOL     H7 1455   3.444   6.095   4.170 -1.3829 -1.4107 -0.1232
    5MOL     H8 1456   3.493   6.061   4.333  0.4872 -0.7819 -0.8858
    5MOL     H9 1457   3.280   6.229   4.390 -3.8860  3.1786 -3.4098
    5MOL    H10 1458   3.242   6.389   4.192 -3.8087 -0.2210  0.2620
    5MOL    H11 1459   3.323   6.284   4.087  2.0235  0.2244  1.6708
    5MOL    H12 1460   3.150   6.104   4.147 -1.1102  0.3866 -1.9296
    5MOL    H13 1461   2.987   6.200   3.997  0.3196 -2.0867 -0.9013
    5MOL    H14 1462   3.036   6.358   4.040 -1.4102  0.2288 -1.7776
    5MOL    H15 1463   3.150   6.266   3.949  1.5392  0.1944  1.7609
    5MOL    H16 1464   2.989   6.334   4.260 -1.3566 -1.1404 -0.4292
    5MOL    H17 1465   3.046   6.206   4.367 -2.4011  0.0894  0.3219
    5MOL    H18 1466   2.931   6.173   4.230 -0.6089  0.1644 -0.4409
    5MOL    H19 1467   3.321   6.025   4.268 -0.8841  0.2383  1.5698
    5MOL    C20 1468   3.463   6.335   4.353  0.0702  0.0607  0.4905
    5MOL    C21 1469   3.423   6.484   4.381 -0.0992  0.2904 -0.2667
    5MOL    C22 1470   3.290   6.498   4.471 -0.3202  0.8493  0.3956
    5MOL    C23 1471   3.213   6.629   4.450 -0.1031  0.1784  0.8176
    5MOL    C24 1472   3.114   6.617   4.333  0.5872  0.2824  0.2812
    5MOL    C25 1473   3.147   6.674   4.580 -0.1072 -0.2475  0.6401
    5MOL    H26 1474   3.508   6.299   4.446 -1.2603 -1.6344  0.4955
    5MOL    H27 1475   3.544   6.320   4.282 -2.0196 -0.2880 -1.8934
    5MOL    H28 1476   3.393   6.528   4.286  2.1803  1.4031 -0.4917
    5MOL    H29 1477   3.328   6.495   4.573  0.9378  0.0739 -0.0946
    5MOL    H30 1478   3.217   6.418   4.475  2.5816 -1.8354  1.3365
    5MOL    H31 1479   3.290   6.702   4.426 -0.0135 -0.5772 -1.2660
    5MOL    H32 1480   3.044   6.700   4.334  0.0408 -0.1763  0.0191
    5MOL    H33 1481   3.052   6.531   4.355 -1.7151  1.9992  0.6776
    5MOL    H34 1482   3.171   6.607   4.240  0.8308  2.0253  0.2262
    5MOL    H35 1483   3.054   6.727   4.558  0.5388  0.1525 -1.2381
    5MOL    H36 1484   3.122   6.588   4.641 -1.7129  0.6351  1.2542
    5MOL    H37 1485   3.216   6.739   4.634 -0.8172  0.7198  0.3919
    5MOL    C38 1486   3.555   6.557   4.420  0.0806 -0.1071 -0.3148
    5MOL    C39 1487   3.591   6.550   4.569  0.4589 -0.1197 -0.2684
    5MOL    C40 1488   3.529   6.672   4.646  0.4832  0.3530 -0.6415
    5MOL    C41 1489   3.520   6.668   4.805  0.1901  0.3703  0.1327
    5MOL    C42 1490   3.437   6.549   4.847 -0.0431  0.3880  0.5594
    5MOL    C43 1491   3.458   6.794   4.860 -0.4168 -0.7697 -0.2792
    5MOL    H44 1492   3.548   6.663   4.396  1.1954  0.0099 -0.1353
    5MOL    H45 1493   3.631   6.510   4.359 -2.7898 -1.6351 -2.8686
    5MOL    H46 1494   3.552   6.455   4.607 -0.3342  0.2512 -0.1414
    5MOL    H47 1495   3.427   6.688   4.610 -0.0923  0.4017  0.9514
    5MOL    H48 1496   3.576   6.766   4.618 -0.0955  1.2256  1.2058
    5MOL    H49 1497   3.617   6.661   4.856 -0.1305 -0.0237  0.6906
    5MOL    H50 1498   3.425   6.561   4.955  2.4204 -2.6591  1.2553
    5MOL    H51 1499   3.342   6.544   4.794 -0.7983 -1.6848  2.0579
    5MOL    H52 1500   3.489   6.454   4.836  1.2517  1.3247 -1.8070
    5MOL    H53 1501   3.432   6.797   4.966 -1.0374  4.6856 -0.4783
    5MOL    H54 1502   3.365   6.825   4.813 -0.0251  3.2652  1.4512
    5MOL    H55 1503   3.534   6.871   4.843  0.1479 -0.9065  1.4634
    5MOL    C56 1504   3.747   6.549   4.591 -0.4118 -0.3639 -0.3083
    5MOL    C57 1505   3.816   6.425   4.563  0.4804  0.2897 -0.0556
    5MOL    C58 1506   3.800   6.321   4.679  0.2307  0.6046  0.1526
    5MOL    C59 1507   3.840   6.168   4.654  0.1978  0.1347 -0.8631
    5MOL    C60 1508   3.758   6.106   4.539  0.3559  0.2193 -0.0865
    5MOL    C61 1509   3.813   6.088   4.782  0.2899 -0.1573  0.4353
    5MOL    H62 1510   3.775   6.566   4.695  2.7429  2.7005 -1.5438
    5MOL    H63 1511   3.794   6.635   4.542  2.8156 -0.7701  1.8618
    5MOL    H64 1512   3.771   6.370   4.480  0.8835  1.2560 -0.9182
    5MOL    H65 1513   3.850   6.364   4.766  1.1588 -0.5301  0.1764
    5MOL    H66 1514   3.704   6.325   4.731  1.5402  0.5398  2.6176
    5MOL    H67 1515   3.945   6.152   4.630 -0.0669 -1.7013 -0.8670
    5MOL    H68 1516   3.771   5.998   4.545  0.9142  0.1039 -2.5653
    5MOL    H69 1517   3.776   6.146   4.439 -2.7151  0.1778 -0.7004
    5MOL    H70 1518   3.651   6.122   4.551  0.4860  1.0665  0.0095
    5MOL    H71 1519   3.849   5.986   4.774 -0.9173 -0.3497 -3.8083
    5MOL    H72 1520   3.706   6.088   4.804  0.2234  0.2545  0.1348
    5MOL    H73 1521   3.869   6.135   4.863  2.0480 -2.7135  0.7388
    5MOL    C74 1522   3.962   6.447   4.535 -0.2902  1.0128 -0.5099
    5MOL    C75 1523   4.007   6.411   4.393 -0.9068  0.8662 -0.8562
    5MOL    C76 1524   4.159   6.378   4.380  0.2526 -0.3432 -0.1893
    5MOL    C77 1525   4.185   6.242   4.446  1.1229 -0.0039 -0.4526
    5MOL    C78 1526   4.332   6.215   4.464 -0.2831 -0.4089 -0.4912
    5MOL    C79 1527   4.136   6.134   4.343 -0.3677 -0.1527 -0.2823
    5MOL    H80 1528   4.011   6.387   4.611 -1.0669  0.4005 -0.4893
    5MOL    H81 1529   3.992   6.549   4.561 -1.2421  0.9903  0.7232
    5MOL    H82 1530   3.948   6.320   4.380 -0.8122  0.5731  0.7346
    5MOL    H83 1531   4.190   6.376   4.275 -0.1698 -1.9144 -0.2979
    5MOL    H84 1532   4.228   6.448   4.427 -1.0896  1.7363 -1.2106
    5MOL    H85 1533   4.131   6.215   4.537 -0.2351 -0.1094 -1.2763
    5MOL    H86 1534   4.376   6.299   4.519 -0.6173 -1.1868  0.9815
    5MOL    H87 1535   4.378   6.221   4.365  0.4552 -1.3413 -0.2110
    5MOL    H88 1536   4.340   6.114   4.504 -1.0657  0.3960  1.7490
    5MOL    H89 1537   4.208   6.120   4.262  1.3777 -1.3652  1.4394
    5MOL    H90 1538   4.134   6.035   4.388 -1.6874 -1.1320 -2.3988
    5MOL    H91 1539   4.034   6.142   4.307 -0.1366  2.2597 -0.4746
    5MOL    C92 1540   3.956   6.515   4.289  0.0592 -0.0776 -0.4959
    5MOL    C93 1541   3.944   6.459   4.151  1.1891  0.0477  0.4118
    5MOL    C94 1542   3.814   6.373   4.133  0.0407  1.1919 -0.0371
    5MOL    C95 1543   3.819   6.291   4.005 -0.3133  0.3867 -0.2350
    5MOL    C96 1544   3.927   6.182   4.010 -1.3469  0.6869 -0.0779
    5MOL    C97 1545   3.679   6.225   3.989  0.1924 -0.2134  0.3049
    5MOL    H98 1546   3.858   6.548   4.321  0.6008 -0.2576  1.4152
    5MOL    H99 1547   4.029   6.596   4.287  0.6440 -0.5807  0.3687
    5MOL   H100 1548   4.019   6.381   4.142 -0.3227 -1.6907  2.2840
    5MOL   H101 1549   3.725   6.436   4.137 -0.8184 -0.0348  0.0727
    5MOL   H102 1550   3.792   6.309   4.218  0.3071  1.9734  0.6252
    5MOL   H103 1551   3.840   6.360   3.923 -0.2255  1.1963  0.4513
    5MOL   H104 1552   4.031   6.213   4.007 -1.3453  0.8913  1.7700
    5MOL   H105 1553   3.917   6.127   3.916 -0.2472  1.6669 -0.7788
    5MOL   H106 1554   3.925   6.117   4.097  0.9160 -0.3703 -0.7725
    5MOL   H107 1555   3.682   6.175   3.892  1.4863  0.8573 -0.2343
    5MOL   H108 1556   3.605   6.305   3.982  0.4558 -0.1208 -1.7747
    5MOL   H109 1557   3.660   6.153   4.068 -0.4202  0.2673  0.5969
    5MOL   C110 1558   3.947   6.574   4.043 -0.0376 -0.3427 -0.6948
    5MOL   C111 1559   4.070   6.568   3.940  0.2188 -0.5292 -0.7123
    5MOL   C112 1560   4.049   6.666   3.816 -0.3277 -0.0284 -0.4008
    5MOL   C113 1561   4.080   6.817   3.822 -0.0916 -0.6203  0.5154
    5MOL   C114 1562   3.995   6.892   3.930 -0.5369  0.1801 -0.1382
    5MOL   C115 1563   4.053   6.874   3.683 -0.0892 -0.4477  0.2880
    5MOL   H116 1564   3.951   6.670   4.094 -1.3048 -0.9932  0.6840
    5MOL   H117 1565   3.850   6.582   3.994 -0.5602 -1.3716  0.1468
    5MOL   H118 1566   4.058   6.470   3.895  0.0422 -0.2731 -1.2347
    5MOL   H119 1567   3.949   6.650   3.778 -0.2116 -1.1796 -0.2525
    5MOL   H120 1568   4.098   6.628   3.727  0.2646 -1.9878  0.7261
    5MOL   H121 1569   4.187   6.828   3.839  0.0283  0.2121 -0.7084
    5MOL   H122 1570   4.005   6.846   4.028  0.7849 -1.0965 -0.8403
    5MOL   H123 1571   3.890   6.880   3.903 -0.6753 -2.3704  1.3518
    5MOL   H124 1572   4.007   7.000   3.933  0.9330 -0.0301  2.0966
    5MOL   H125 1573   4.052   6.983   3.680 -0.2537 -0.4955 -2.4890
    5MOL   H126 1574   3.947   6.868   3.657 -0.6429  2.0523  1.8033
    5MOL   H127 1575   4.118   6.826   3.610 -0.3391 -1.9727  1.0450
    5MOL   C128 1576   4.205   6.593   4.007 -0.2383  0.7618  0.1779
    5MOL   C129 1577   4.330   6.573   3.923  0.1099 -0.1664  1.0810
    5MOL   C130 1578   4.346   6.434   3.862  0.1680 -0.9074  0.4882
    5MOL   C131 1579   4.463   6.407   3.767  0.1830  0.4768 -0.0692
    5MOL   C132 1580   4.463   6.269   3.691  0.4567  0.0567 -0.5962
    5MOL   C133 1581   4.476   6.519   3.660 -0.4999 -0.5926  0.4211
    5MOL   H134 1582   4.220   6.531   4.096  2.4107 -0.7743 -1.2848
    5MOL   H135 1583   4.194   6.697   4.037  0.9002  0.6611  0.9729
    5MOL   H136 1584   4.315   6.648   3.845 -0.3440 -1.1982  0.1605
    5MOL   H137 1585   4.336   6.353   3.934 -4.2122  0.0839  1.1079
    5MOL   H138 1586   4.251   6.428   3.808  1.0721  1.5603 -1.4909
    5MOL   H139 1587   4.552   6.413   3.829  2.2932 -0.1774 -2.9507
    5MOL   H140 1588   4.481   6.185   3.758  1.6898  0.9911  0.2511
    5MOL   H141 1589   4.538   6.262   3.612  0.6470  0.4721 -0.4491
    5MOL   H142 1590   4.365   6.257   3.644 -0.8997  2.5858  1.4502
    5MOL   H143 1591   4.386   6.528   3.599 -0.8273 -1.1693  0.8240
    5MOL   H144 1592   4.493   6.615   3.708  0.7452 -2.4272  3.8450
    5MOL   H145 1593   4.557   6.496   3.590 -2.8424  0.5097 -2.7886
    5MOL   C146 1594   4.457   6.626   3.996  0.3450 -0.4670  0.3762
    5MOL   C147 1595   4.459   6.776   4.038 -0.6013  0.0770  0.2174
    5MOL   C148 1596   4.496   6.870   3.922  1.0808  0.4825  0.0651
    5MOL   C149 1597   4.462   7.019   3.922  0.4136  0.0683 -0.1193
    5MOL   C150 1598   4.529   7.078   3.794  0.1198  0.7610 -0.0684
    5MOL   C151 1599   4.316   7.046   3.947  0.3283  0.1174  0.4427
    5MOL   H152 1600   4.542   6.612   3.929 -1.7260 -1.3720 -2.1724
    5MOL   H153 1601   4.462   6.561   4.084 -2.1610 -0.0169  0.8683
    5MOL   H154 1602   4.363   6.804   4.081 -1.2204 -2.5662  0.6679
    5MOL   H155 1603   4.596   6.854   3.883  0.2346  0.9192 -2.3871
    5MOL   H156 1604   4.441   6.830   3.836 -1.0890 -1.0752  2.1194
    5MOL   H157 1605   4.522   7.062   4.003 -1.1306  0.3735  0.8916
    5MOL   H158 1606   4.637   7.074   3.788  0.0713  1.3496 -1.9234
    5MOL   H159 1607   4.504   7.185   3.793  0.2722  0.7965  0.0082
    5MOL   H160 1608   4.499   7.046   3.694 -0.0271 -1.3127  0.6298
    5MOL   H161 1609   4.313   7.153   3.965  0.7861 -0.0829  1.7492
    5MOL   H162 1610   4.277   6.998   4.037  0.2273  0.1071  0.3937
    5MOL   H163 1611   4.259   7.027   3.856  0.9036 -0.3039  0.1669
    5MOL   C164 1612   4.560   6.799   4.158 -0.1399  0.6868 -0.3052
    5MOL   C165 1613   4.487   6.888   4.266  0.2122 -0.0235  0.8630
    5MOL   C166 1614   4.401   6.798   4.360  0.0021 -0.1160  0.1099
    5MOL   C167 1615   4.298   6.864   4.450  0.3814 -0.3120 -0.4285
    5MOL   C168 1616   4.181   6.925   4.368 -0.4712 -0.1124 -0.2732
    5MOL   C169 1617   4.248   6.758   4.550  0.2615 -0.3271 -0.0864
    5MOL   H170 1618   4.599   6.705   4.198  0.2017 -0.4630 -3.2513
    5MOL   H171 1619   4.646   6.855   4.123 -0.3751  1.1820 -0.1054
    5MOL   H172 1620   4.423   6.957   4.211  0.7123  0.7545  1.2460
    5MOL   H173 1621   4.359   6.717   4.301 -1.7326  0.3333  0.6993
    5MOL   H174 1622   4.462   6.740   4.430 -1.1052 -1.5019 -0.0641
    5MOL   H175 1623   4.339   6.944   4.511 -1.1648  0.1993 -0.0407
    5MOL   H176 1624   4.117   6.992   4.425 -0.7323 -0.7172  0.1482
    5MOL   H177 1625   4.108   6.851   4.335  0.4803 -0.7533 -0.9274
    5MOL   H178 1626   4.218   6.990   4.288  0.4599 -0.5659 -0.2120
    5MOL   H179 1627   4.140   6.747   4.555  0.3455 -1.3143 -0.3015
    5MOL   H180 1628   4.260   6.787   4.654 -0.2690 -2.4174  0.5927
    5MOL   H181 1629   4.287   6.657   4.534 -0.6320 -0.5531 -0.8429
    5MOL   C182 1630   4.597   6.974   4.343  0.0047  0.0008  0.2379
    5MOL   C183 1631   4.647   7.107   4.284  0.0206 -0.0616 -0.6399
    5MOL   C184 1632   4.528   7.213   4.303  0.3174 -0.1706  0.1829
    5MOL   C185 1633   4.552   7.357   4.252  0.8753 -0.1878 -0.4699
    5MOL   C186 1634   4.542   7.365   4.104  0.3302  0.1324  0.0238
    5MOL   C187 1635   4.454   7.452   4.319 -0.4117 -0.2000 -0.0656
    5MOL   H188 1636   4.679   6.902   4.351 -0.8287 -1.0933 -0.8924
    5MOL   H189 1637   4.566   7.002   4.443 -2.5606 -1.7454 -0.0304
    5MOL   H190 1638   4.656   7.093   4.177  0.9394  0.5524 -0.6523
    5MOL   H191 1639   4.508   7.210   4.411 -0.5085 -1.3182  0.0200
    5MOL   H192 1640   4.431   7.183   4.262  0.4567 -1.0636  0.4935
    5MOL   H193 1641   4.653   7.386   4.279  0.2708 -0.1385  1.8711
    5MOL   H194 1642   4.616   7.324   4.036 -0.9407  0.9191 -1.8647
    5MOL   H195 1643   4.529   7.466   4.065 -0.3730 -0.4898 -1.4003
    5MOL   H196 1644   4.456   7.310   4.067  0.1406  0.4625 -0.0277
    5MOL   H197 1645   4.351   7.431   4.291  0.3566 -1.5661 -2.0175
    5MOL   H198 1646   4.477   7.552   4.281  0.5614 -0.4081 -0.0569
    5MOL   H199 1647   4.465   7.436   4.426 -2.0152  2.2342  0.4929
    5MOL   C200 1648   4.781   7.140   4.358  0.2761 -0.1017  0.4413
    5MOL   C201 1649   4.893   7.211   4.281  0.5815  0.1342 -0.0266
    5MOL   C202 1650   4.958   7.120   4.174  0.2036 -0.2137  0.0314
    5MOL   C203 1651   5.012   7.191   4.055 -0.4172  0.2784 -0.1816
    5MOL   C204 1652   5.086   7.098   3.960 -0.2813  0.2726 -0.2935
    5MOL   C205 1653   4.912   7.279   3.977  0.2592  0.0967 -0.6575
    5MOL   H206 1654   4.821   7.042   4.383 -3.2399 -1.4861  1.0499
    5MOL   H207 1655   4.755   7.192   4.450  0.6827 -0.7998  0.9515
    5MOL   H208 1656   4.843   7.286   4.219 -3.0194 -1.7731  0.4306
    5MOL   H209 1657   5.033   7.053   4.215  0.0810 -1.6386 -2.0027
    5MOL   H210 1658   4.874   7.063   4.135  0.4722 -1.3024  1.0288
    5MOL   H211 1659   5.101   7.246   4.086  0.6588  0.8625 -4.0587
    5MOL   H212 1660   5.165   7.053   4.021 -0.2651 -0.3229 -0.7437
    5MOL   H213 1661   5.122   7.157   3.875  1.9144  0.0848  0.4713
    5MOL   H214 1662   5.024   7.016   3.924 -0.0218 -0.0612  0.0115
    5MOL   H215 1663   4.879   7.370   4.027  0.0566 -1.1401  1.5282
    5MOL   H216 1664   4.828   7.219   3.940 -0.1121  0.1270  0.1252
    5MOL   H217 1665   4.957   7.328   3.891  0.9635 -0.6342 -0.7161
    5MOL   C218 1666   4.991   7.289   4.377 -0.2080  0.6513  0.1109
    5MOL   C219 1667   4.932   7.419   4.439  0.1106  0.2159 -0.0994
    5MOL   C220 1668   5.012   7.544   4.386 -0.5301 -1.1832 -0.2322
    5MOL   C221 1669   4.999   7.574   4.230 -0.1604 -0.1474 -0.2035
    5MOL   C222 1670   4.863   7.635   4.190 -0.0162  0.5059 -0.1015
    5MOL   C223 1671   5.120   7.663   4.187  0.4742  0.2707  0.3005
    5MOL   H224 1672   5.018   7.216   4.453  2.5981 -0.3752 -1.8255
    5MOL   H225 1673   5.088   7.311   4.333  0.4041 -0.6509  0.7666
    5MOL   H226 1674   4.828   7.438   4.414  0.1197 -0.6010 -0.7643
    5MOL   H227 1675   4.985   7.633   4.444  1.0330 -0.1262 -1.1136
    5MOL   H228 1676   5.118   7.526   4.399 -0.2245 -0.4500 -1.6266
    5MOL   H229 1677   5.010   7.480   4.176 -0.0382 -0.3591  0.1882
    5MOL   H230 1678   4.839   7.735   4.226  2.9773  0.3262  2.6761
    5MOL   H231 1679   4.854   7.638   4.082  0.2653  0.5192 -0.1257
    5MOL   H232 1680   4.775   7.587   4.232  0.4321  0.8634  1.3072
    5MOL   H233 1681   5.181   7.687   4.274 -0.6885 -0.3118  1.2947
    5MOL   H234 1682   5.185   7.616   4.113 -0.6335  3.9288 -3.2128
    5MOL   H235 1683   5.095   0.010   4.148  1.2396 -0.4761 -2.1211
    5MOL   C236 1684   4.913   7.407   4.592  0.0543  0.3588 -0.2606
    5MOL   C237 1685   4.833   7.505   4.675  0.4001  0.0189 -0.0363
    5MOL   C238 1686   4.847   7.478   4.825  0.0271  0.3890  0.1471
    5MOL   C239 1687   4.977   7.536   4.891 -0.4007  1.1566 -0.2451
    5MOL   C240 1688   4.998   7.683   4.878  0.3149 -0.0519  0.1106
    5MOL   C241 1689   4.972   7.500   5.043  0.0852 -0.2605 -0.1386
    5MOL   H242 1690   5.013   7.401   4.634  0.1396 -0.1978 -0.5450
    5MOL   H243 1691   4.866   7.309   4.607 -0.3987  0.6659  0.3605
    5MOL   H244 1692   4.884   7.598   4.654 -1.0938  0.9390  0.3327
    5MOL   H245 1693   4.827   7.376   4.857 -0.9493  0.1806 -1.0613
    5MOL   H246 1694   4.769   7.534   4.876 -0.2284 -0.6402  0.8925
    5MOL   H247 1695   5.059   7.484   4.843 -0.7035 -0.1537  0.6388
    5MOL   H248 1696   4.905   7.736   4.895  0.5189  0.0616  0.8936
    5MOL   H249 1697   5.016   7.705   4.772  1.2676  1.7227  0.6286
    5MOL   H250 1698   5.085   7.712   4.937 -0.4170 -1.9069  2.1896
    5MOL   H251 1699   5.067   7.518   5.093 -0.8511  1.0000  1.2274
    5MOL   H252 1700   4.945   7.396   5.066  0.0952  0.3390  2.8053
    5MOL   H253 1701   4.897   7.553   5.102  1.5472 -0.2301  1.7435
    5MOL   C254 1702   4.681   7.524   4.634  0.1082 -0.0411  0.1086
    5MOL   C255 1703   4.607   7.648   4.680 -0.1443 -0.7704  0.0597
    5MOL   C256 1704   4.658   0.025   4.607  0.1391  0.6510 -0.5640
    5MOL   C257 1705   4.618   0.162   4.659 -0.2369 -0.1467 -0.8650
    5MOL   C258 1706   4.640   0.274   4.546 -0.4731 -0.3113 -0.0855
    5MOL   C259 1707   4.705   0.202   4.789 -0.8126 -0.0662  0.4504
    5MOL   H260 1708   4.671   7.516   4.526  4.0486  0.6252 -0.3843
    5MOL   H261 1709   4.621   7.440   4.669  1.5799 -1.0115  0.3740
    5MOL   H262 1710   4.621   7.667   4.787 -2.1545  0.0582  0.1950
    5MOL   H263 1711   4.614   0.021   4.507 -0.8665 -0.1107 -0.1007
    5MOL   H264 1712   4.767   0.019   4.608  0.1083 -0.3260  1.6516
    5MOL   H265 1713   4.513   0.163   4.687 -0.2276 -0.1279 -0.8302
    5MOL   H266 1714   4.580   0.255   4.458 -1.9480  1.4744  0.5021
    5MOL   H267 1715   4.742   0.284   4.507 -1.2108 -1.0350 -2.2700
    5MOL   H268 1716   4.616   0.368   4.596  0.2731 -0.1983  0.0748
    5MOL   H269 1717   4.809   0.179   4.769 -0.8281 -1.2105  1.6109
    5MOL   H270 1718   4.708   0.306   4.820  0.1384  0.5276 -1.5530
    5MOL   H271 1719   4.667   0.135   4.867 -1.2878  2.1422  2.1605
    5MOL   C272 1720   4.454   7.628   4.649 -0.1033 -0.4400  0.1578
    5MOL   C273 1721   4.365   7.533   4.739  0.2383  0.1899 -0.2342
    5MOL   C274 1722   4.359   7.599   4.885 -0.8674  0.8172 -0.4308
    5MOL   C275 1723   4.387   7.522   5.007 -0.1909  0.8835  0.3530
    5MOL   C276 1724   4.309   7.582   5.131 -0.3354  0.1927  0.2490
    5MOL   C277 1725   4.537   7.501   5.025 -0.3803  0.4678 -0.6528
    5MOL   H278 1726   4.397   7.720   4.635 -0.3133 -0.6973 -0.7115
    5MOL   H279 1727   4.452   7.587   4.548 -1.1946 -2.7679  1.1028
    5MOL   H280 1728   4.422   7.441   4.751  0.1984  0.2889  0.7423
    5MOL   H281 1729   4.258   7.639   4.892 -1.7903 -1.0241 -2.7998
    5MOL   H282 1730   4.424   7.687   4.893 -0.0400  0.2166 -0.5618
    5MOL   H283 1731   4.339   7.425   4.992 -0.5573  1.3928 -2.0485
    5MOL   H284 1732   4.206   7.602   5.102  0.3154 -0.1714 -2.4637
    5MOL   H285 1733   4.311   7.521   5.221 -0.9069 -0.7866 -0.3877
    5MOL   H286 1734   4.359   7.677   5.149 -0.5532  0.5293 -0.9006
    5MOL   H287 1735   4.597   7.591   5.039  2.1600 -1.0138 -1.7192
    5MOL   H288 1736   4.544   7.433   5.110  0.1950  0.6965 -0.5138
    5MOL   H289 1737   4.567   7.450   4.934 -0.4659 -1.0029  0.1322
    5MOL   C290 1738   4.232   7.514   4.662 -0.9416 -0.6815 -0.5979
    5MOL   C291 1739   4.144   7.408   4.729  0.2392 -0.2652 -0.5100
    5MOL   C292 1740   3.990   7.428   4.694  0.2211 -0.1332  0.9540
    5MOL   C293 1741   3.931   7.560   4.749 -0.4030  0.7214 -0.2255
    5MOL   C294 1742   3.792   7.599   4.712  0.4364 -0.4966  0.3286
    5MOL   C295 1743   3.931   7.563   4.903 -0.0096 -0.3433 -0.0799
    5MOL   H296 1744   4.166   7.600   4.654 -1.4428 -1.0525 -0.4278
    5MOL   H297 1745   4.235   7.467   4.564  0.0196 -2.1656  0.1207
    5MOL   H298 1746   4.145   7.416   4.838  2.0740  1.7063 -0.6424
    5MOL   H299 1747   3.936   7.343   4.736 -0.9264  0.3430  0.4782
    5MOL   H300 1748   3.973   7.425   4.586 -1.2581  0.7988  1.1486
    5MOL   H301 1749   3.988   7.648   4.719  0.9851 -0.3069 -0.6662
    5MOL   H302 1750   3.787   7.591   4.603 -0.3951 -1.8346  0.4506
    5MOL   H303 1751   3.764   7.703   4.731 -0.8465 -0.4735 -1.4940
    5MOL   H304 1752   3.716   7.537   4.760 -2.7754  0.6861 -2.9517
    5MOL   H305 1753   3.884   7.653   4.941  1.6629  0.7089 -0.4761
    5MOL   H306 1754   4.025   7.552   4.958 -0.1110 -1.7641 -0.1630
    5MOL   H307 1755   3.875   7.477   4.942 -0.4149  0.4153  1.0418
    5MOL   C308 1756   4.182   7.265   4.705  0.2011  0.2758  0.5965
    5MOL   C309 1757   4.114   7.150   4.787 -0.0244  0.2180 -0.3185
    5MOL   C310 1758   4.001   7.068   4.711 -0.7961 -0.2000  0.3196
    5MOL   C311 1759   3.901   7.002   4.801  0.2846 -0.5103  0.6069
    5MOL   C312 1760   3.795   7.100   4.866 -0.1348  0.2003  0.4179
    5MOL   C313 1761   3.821   6.888   4.733  0.0774  0.3995  0.0241
    5MOL   H314 1762   4.160   7.238   4.602  0.8889 -3.7849  1.4283
    5MOL   H315 1763   4.291   7.265   4.710  0.4145  3.4336 -1.9891
    5MOL   H316 1764   4.063   7.199   4.870 -0.1657 -2.5177  1.2563
    5MOL   H317 1765   4.056   6.991   4.656  0.7908  3.2032 -3.0793
    5MOL   H318 1766   3.955   7.136   4.640  2.8604  0.4325 -1.5486
    5MOL   H319 1767   3.952   6.954   4.885 -0.6659 -0.2516  1.3384
    5MOL   H320 1768   3.834   7.196   4.898 -0.1500  1.1135 -2.2735
    5MOL   H321 1769   3.754   7.064   4.961 -1.9400  2.2023  0.4357
    5MOL   H322 1770   3.709   7.119   4.802  2.0795  0.5837 -2.4964
    5MOL   H323 1771   3.886   6.814   4.687 -0.7611 -0.4634  0.1905
    5MOL   H324 1772   3.760   6.837   4.808  0.7211 -0.0606  0.2314
    5MOL   H325 1773   3.754   6.934   4.660  0.6352  2.2137  0.6419
    5MOL   C326 1774   4.225   7.049   4.838  0.7661  0.2349  0.1697
    5MOL   C327 1775   4.300   7.093   4.964  0.5609  0.6959 -0.1571
    5MOL   C328 1776   4.440   7.020   4.976 -0.7305 -0.9171  0.2619
    5MOL   C329 1777   4.568   7.103   4.947  0.3616 -0.1136  0.1438
    5MOL   C330 1778   4.691   7.034   5.004  0.0083  0.1046 -0.6696
    5MOL   C331 1779   4.585   7.144   4.800 -0.1203  0.0987 -0.1420
    5MOL   H332 1780   4.289   7.005   4.762 -1.9841 -3.4155 -0.1661
    5MOL   H333 1781   4.179   6.960   4.882 -0.2355  0.9114  0.5158
    5MOL   H334 1782   4.331   7.198   4.958  0.3945  0.6909 -1.2917
    5MOL   H335 1783   4.448   6.984   5.079 -0.4783 -1.8030 -0.0581
    5MOL   H336 1784   4.446   6.933   4.910 -1.4623 -0.2142 -0.7535
    5MOL   H337 1785   4.568   7.192   5.010 -0.6434  0.8650 -1.1848
    5MOL   H338 1786   4.781   7.084   4.969  1.0068 -2.5589 -2.0817
    5MOL   H339 1787   4.701   6.931   4.970 -0.4418 -0.2366  0.2137
    5MOL   H340 1788   4.691   7.036   5.113 -0.5091 -0.2784 -0.6569
    5MOL   H341 1789   4.614   7.057   4.741  0.2896  0.3425 -0.2985
    5MOL   H342 1790   4.492   7.190   4.766  0.1962  0.2876 -0.7526
    5MOL   H343 1791   4.667   7.216   4.794 -1.1257  1.3827  1.1516
    5MOL   C344 1792   4.218   7.068   5.094  0.2230 -0.7151  0.0180
    5MOL   C345 1793   4.258   7.149   5.211  0.2040  0.0340  0.1896
    5MOL   C346 1794   4.150   7.148   5.325  0.0182  0.2255  0.1460
    5MOL   C347 1795   4.188   7.233   5.449  0.0719  0.1617  0.0405
    5MOL   C348 1796   4.298   7.173   5.527  0.5006 -0.4410  0.1186
    5MOL   C349 1797   4.065   7.266   5.541  0.2723  0.5527  0.1744
    5MOL   H350 1798   4.216   6.962   5.120  0.2793 -0.3134  1.7160
    5MOL   H351 1799   4.116   7.094   5.064  0.9791  1.3160 -0.8553
    5MOL   H352 1800   4.271   7.252   5.178  2.5957  0.2030  1.5470
    5MOL   H353 1801   4.056   7.185   5.283  0.4836  1.8681  0.5324
    5MOL   H354 1802   4.142   7.042   5.348 -2.8808  0.6543  1.3726
    5MOL   H355 1803   4.216   7.330   5.406  1.1836  0.5153  1.5287
    5MOL   H356 1804   4.326   7.230   5.616  0.5521 -2.8158  1.6730
    5MOL   H357 1805   4.277   7.070   5.555 -0.0162  0.3146  2.7141
    5MOL   H358 1806   4.386   7.162   5.464  1.2889  1.9229  0.7107
    5MOL   H359 1807   3.994   7.328   5.487 -0.8939 -1.0694 -0.1651
    5MOL   H360 1808   4.109   7.329   5.619 -1.1912  1.9380 -0.1047
    5MOL   H361 1809   4.017   7.177   5.579  0.3150 -0.1097 -1.2925
    5MOL   H362 1810   4.352   7.113   5.252  0.1203  0.6254  0.9134
    6MOL     C1 1811   5.976   1.869   6.371  0.0337  0.0020 -0.0144
    6MOL     C2 1812   5.912   1.939   6.240 -0.2760  0.1075 -0.0508
    6MOL     C3 1813   5.851   2.086   6.257  0.1591  0.1702  0.5450
    6MOL     C4 1814   5.951   2.200   6.291  0.1992 -0.3446 -0.4545
    6MOL     C5 1815   5.977   2.227   6.439 -0.3353  0.7000  0.3432
    6MOL     C6 1816   5.919   2.336   6.221 -0.0036  1.0384 -0.5295
    6MOL     H7 1817   6.044   1.939   6.420 -0.3635 -0.2787  0.9604
    6MOL     H8 1818   5.908   1.834   6.449  0.4673 -1.8260 -0.4430
    6MOL     H9 1819   5.986   1.939   6.160 -1.9207 -1.8293 -1.6242
    6MOL    H10 1820   5.807   2.109   6.160 -1.4369 -0.0784  1.1911
    6MOL    H11 1821   5.767   2.089   6.326  1.1270  0.0647  1.7390
    6MOL    H12 1822   6.048   2.177   6.248  0.7753  3.2938 -1.2839
    6MOL    H13 1823   6.009   2.138   6.494  2.6142  1.1981 -0.4683
    6MOL    H14 1824   6.036   2.316   6.459  0.2117  0.1950  0.9912
    6MOL    H15 1825   5.878   2.251   6.477 -1.4226 -0.3959 -1.6963
    6MOL    H16 1826   5.826   2.383   6.253 -0.4674 -1.1288  1.5040
    6MOL    H17 1827   5.912   2.331   6.113 -1.4952 -1.4468 -0.3678
    6MOL    H18 1828   6.000   2.408   6.231  0.9238  0.0374 -0.6699
    6MOL    H19 1829   6.026   1.776   6.343  0.4872 -0.0146  0.8395
    6MOL    C20 1830   5.802   1.857   6.169  0.0099 -0.0594 -0.2115
    6MOL    C21 1831   5.826   1.710   6.129  0.5273  0.2770 -0.3761
    6MOL    C22 1832   5.696   1.633   6.094 -0.2188  0.1955  0.5753
    6MOL    C23 1833   5.598   1.616   6.215  0.4343  0.4010 -0.3015
    6MOL    C24 1834   5.473   1.554   6.155 -0.4125  0.2142 -0.2151
    6MOL    C25 1835   5.652   1.532   6.337  0.3098  0.7561  0.1986
    6MOL    H26 1836   5.721   1.857   6.242 -0.7496 -0.0322 -1.0404
    6MOL    H27 1837   5.772   1.915   6.082  2.2545 -0.8339 -1.5405
    6MOL    H28 1838   5.866   1.658   6.216 -2.8854 -0.6094  0.7249
    6MOL    H29 1839   5.711   1.532   6.056  0.5613  0.8174 -0.8046
    6MOL    H30 1840   5.649   1.682   6.009  1.8674 -0.6369 -1.1004
    6MOL    H31 1841   5.575   1.709   6.265  0.6540  0.6383 -0.6382
    6MOL    H32 1842   5.398   1.538   6.233 -1.2563  1.7295 -0.6859
    6MOL    H33 1843   5.491   1.454   6.117 -1.2274  0.1223 -0.3875
    6MOL    H34 1844   5.427   1.617   6.078 -0.3248 -0.7415 -1.0651
    6MOL    H35 1845   5.729   1.599   6.376  0.9562 -0.8168  1.6765
    6MOL    H36 1846   5.587   1.523   6.424  0.5059 -1.2534  0.1437
    6MOL    H37 1847   5.676   1.430   6.307 -0.7311  0.5563  0.0479
    6MOL    C38 1848   5.928   1.693   6.015  0.1110 -0.2865  0.7387
    6MOL    C39 1849   5.966   1.552   5.968  0.2243  0.4181 -0.2302
    6MOL    C40 1850   5.981   1.448   6.083  0.2543  0.2978  0.1406
    6MOL    C41 1851   5.932   1.306   6.044  0.5028  0.3510 -0.6049
    6MOL    C42 1852   5.925   1.208   6.169 -0.1083  0.1302  0.3726
    6MOL    C43 1853   6.005   1.241   5.933 -0.2136  0.1625 -0.0917
    6MOL    H44 1854   6.019   1.732   6.061 -0.7230  1.0664  1.2491
    6MOL    H45 1855   5.895   1.759   5.935 -0.8642 -0.3269  1.1049
    6MOL    H46 1856   5.883   1.511   5.911  1.4042  1.2409 -2.5898
    6MOL    H47 1857   5.928   1.474   6.175 -1.2717 -3.4261  0.3905
    6MOL    H48 1858   6.085   1.445   6.118  0.5007  0.1853 -0.6002
    6MOL    H49 1859   5.828   1.311   6.009  0.1983  0.5649  0.3027
    6MOL    H50 1860   6.025   1.202   6.213  0.4507  0.3085 -0.8532
    6MOL    H51 1861   5.860   1.249   6.246 -1.4005  0.4250 -0.8723
    6MOL    H52 1862   5.887   1.108   6.152  0.0749 -0.0049  0.7558
    6MOL    H53 1863   6.114   1.250   5.935 -0.1725  0.5591 -2.6983
    6MOL    H54 1864   5.970   1.273   5.835 -0.5429  0.7629  0.2195
    6MOL    H55 1865   5.985   1.134   5.934 -0.2826  0.1541 -1.7070
    6MOL    C56 1866   6.086   1.563   5.870 -0.2657  0.5868 -0.3086
    6MOL    C57 1867   6.067   1.627   5.728 -0.3933  0.0096 -0.4095
    6MOL    C58 1868   6.008   1.530   5.621 -0.2682 -0.1452  0.2164
    6MOL    C59 1869   5.947   1.611   5.504  0.0214  0.3781  0.1554
    6MOL    C60 1870   5.819   1.682   5.551  0.2548 -0.0288 -0.5621
    6MOL    C61 1871   5.923   1.509   5.385 -0.7293 -0.4510  0.1149
    6MOL    H62 1872   6.138   1.471   5.844 -1.2559 -0.1048  0.1580
    6MOL    H63 1873   6.158   1.619   5.929  0.4014 -1.6270  1.0461
    6MOL    H64 1874   5.999   1.713   5.736 -1.0886 -0.7468  2.2216
    6MOL    H65 1875   6.091   1.468   5.586 -0.0886  1.5702 -2.5701
    6MOL    H66 1876   5.939   1.458   5.665  0.0921 -1.5660 -1.4467
    6MOL    H67 1877   6.016   1.690   5.477 -0.5358  0.7030 -0.3276
    6MOL    H68 1878   5.786   1.615   5.630 -1.3985 -0.8323 -1.9137
    6MOL    H69 1879   5.736   1.691   5.482  1.6729  4.2226 -1.9169
    6MOL    H70 1880   5.846   1.778   5.596 -0.0317 -0.1920 -0.0302
    6MOL    H71 1881   5.895   1.569   5.299  0.4206  0.0691  0.0900
    6MOL    H72 1882   5.852   1.430   5.409 -0.0400 -1.4910 -1.2207
    6MOL    H73 1883   6.017   1.460   5.357 -0.1932  0.6547 -0.0567
    6MOL    C74 1884   6.199   1.699   5.688  0.2619 -0.4492  0.0283
    6MOL    C75 1885   6.195   1.852   5.693 -0.3546 -0.0069 -0.3280
    6MOL    C76 1886   6.335   1.906   5.645 -1.0195  0.5484  0.0239
    6MOL    C77 1887   6.355   1.902   5.495 -0.4484 -1.0233  0.4815
    6MOL    C78 1888   6.500   1.928   5.460 -0.1287 -0.1382 -0.2325
    6MOL    C79 1889   6.268   2.012   5.422 -0.7466  0.4020  0.6261
    6MOL    H80 1890   6.219   1.664   5.587  0.8348 -0.2034  0.0563
    6MOL    H81 1891   6.277   1.674   5.760 -1.0437 -3.5716  0.4409
    6MOL    H82 1892   6.114   1.885   5.628  0.3883 -1.6932 -2.1580
    6MOL    H83 1893   6.340   2.012   5.671 -1.7855  0.6863 -0.3655
    6MOL    H84 1894   6.414   1.853   5.698 -0.3212  1.1521 -0.4042
    6MOL    H85 1895   6.326   1.800   5.470 -3.5683 -0.1322  0.3184
    6MOL    H86 1896   6.583   1.866   5.494  0.3257 -0.0563 -1.1696
    6MOL    H87 1897   6.532   2.031   5.477  0.0989 -0.2677  0.1244
    6MOL    H88 1898   6.522   1.906   5.355  0.7773  0.5099 -0.1822
    6MOL    H89 1899   6.287   2.114   5.454  2.1072  0.1624 -0.1776
    6MOL    H90 1900   6.290   2.004   5.315  2.8307 -1.0743  1.4136
    6MOL    H91 1901   6.164   1.982   5.437 -0.9567 -0.3201 -1.9914
    6MOL    C92 1902   6.178   1.900   5.836  0.0274 -0.0467 -0.0855
    6MOL    C93 1903   6.119   2.036   5.842  0.0193 -0.4125 -0.4460
    6MOL    C94 1904   5.960   2.033   5.836  0.8819  0.4048 -0.2950
    6MOL    C95 1905   5.900   2.176   5.813 -0.5448 -0.3596 -0.5206
    6MOL    C96 1906   5.943   2.231   5.678  0.2578 -0.1684  0.1234
    6MOL    C97 1907   5.752   2.172   5.825  0.1875 -0.7709  0.3022
    6MOL    H98 1908   6.116   1.835   5.897  1.2075 -0.1163  1.0584
    6MOL    H99 1909   6.269   1.906   5.895  0.2908  0.6980 -0.5550
    6MOL   H100 1910   6.168   2.094   5.764  0.0949  1.0231  0.6422
    6MOL   H101 1911   5.913   1.974   5.915  0.9507 -0.1202 -0.6416
    6MOL   H102 1912   5.940   1.989   5.738 -2.5271  0.0875  0.5124
    6MOL   H103 1913   5.935   2.245   5.889  1.5267 -1.1617 -0.7250
    6MOL   H104 1914   6.048   2.257   5.669  0.2894 -0.1380  0.5354
    6MOL   H105 1915   5.884   2.320   5.659  1.7462  0.9662  0.7826
    6MOL   H106 1916   5.910   2.160   5.602  0.8179  1.9307 -2.1070
    6MOL   H107 1917   5.711   2.273   5.824  0.6645 -0.5332  2.9810
    6MOL   H108 1918   5.713   2.131   5.918 -2.9957  0.5906 -0.3419
    6MOL   H109 1919   5.702   2.106   5.754 -1.3314 -0.5984  1.1879
    6MOL   C110 1920   6.151   2.100   5.978  0.1024 -0.0899  0.5129
    6MOL   C111 1921   6.264   2.207   5.986 -0.5909 -0.8471  0.5246
    6MOL   C112 1922   6.220   2.348   5.936  0.5083  0.1532  0.2267
    6MOL   C113 1923   6.312   2.436   5.850 -0.0471  0.2440  0.4161
    6MOL   C114 1924   6.301   2.578   5.906 -0.4467 -0.0350 -0.7069
    6MOL   C115 1925   6.291   2.425   5.695 -0.4957  0.6670 -0.7777
    6MOL   H116 1926   6.170   2.016   6.045 -1.0931  0.2778  1.3253
    6MOL   H117 1927   6.064   2.150   6.020 -0.8465 -0.6574 -0.7587
    6MOL   H118 1928   6.336   2.171   5.912 -0.1880  1.8363 -0.4541
    6MOL   H119 1929   6.184   2.407   6.020  0.7518 -1.0433  1.1957
    6MOL   H120 1930   6.134   2.339   5.869 -0.1173 -1.9206  1.2493
    6MOL   H121 1931   6.412   2.404   5.881 -0.3090  1.2024  2.3436
    6MOL   H122 1932   6.358   2.661   5.864 -1.2775  0.3226 -1.1659
    6MOL   H123 1933   6.324   2.569   6.012 -3.1564 -1.1869 -0.1602
    6MOL   H124 1934   6.203   2.626   5.904 -0.8326 -0.7602  0.5700
    6MOL   H125 1935   6.288   2.322   5.660  1.8453  0.6704 -1.0339
    6MOL   H126 1936   6.369   2.476   5.638  1.5064  0.3268  1.5873
    6MOL   H127 1937   6.196   2.475   5.674 -0.9918 -0.1981 -0.6205
    6MOL   C128 1938   6.333   2.235   6.125 -0.6300 -0.0253 -0.4798
    6MOL   C129 1939   6.433   2.136   6.186  0.3340 -0.2988  0.5900
    6MOL   C130 1940   6.357   2.037   6.278 -0.3319 -0.3616 -0.9675
    6MOL   C131 1941   6.420   1.899   6.300 -0.3303 -0.2546 -0.4365
    6MOL   C132 1942   6.353   1.810   6.409 -0.3650 -0.5840  0.7562
    6MOL   C133 1943   6.450   1.820   6.168 -0.7154 -0.1383 -0.5664
    6MOL   H134 1944   6.271   2.274   6.206 -0.8091 -2.2739  0.5012
    6MOL   H135 1945   6.406   2.312   6.099  0.6042 -0.9245  0.2593
    6MOL   H136 1946   6.475   2.086   6.099 -0.5020  0.9519 -0.5392
    6MOL   H137 1947   6.348   2.079   6.379  0.7491 -0.0992 -0.9742
    6MOL   H138 1948   6.253   2.017   6.252 -1.0130  0.1595  1.1959
    6MOL   H139 1949   6.514   1.913   6.354 -0.7105  0.8324 -0.0473
    6MOL   H140 1950   6.358   1.868   6.501 -1.5359  1.6825 -0.5661
    6MOL   H141 1951   6.403   1.713   6.408 -2.2603 -1.5846  0.6746
    6MOL   H142 1952   6.249   1.784   6.391 -0.8313  1.1808  0.8312
    6MOL   H143 1953   6.384   1.733   6.167 -0.4856 -0.3382  0.7456
    6MOL   H144 1954   6.438   1.879   6.078  2.6309  3.0036  0.9394
    6MOL   H145 1955   6.547   1.771   6.162 -1.5371 -1.9050  0.1865
    6MOL   C146 1956   6.545   2.207   6.267 -0.8077  0.0833 -0.2285
    6MOL   C147 1957   6.673   2.238   6.184  0.0045 -1.0796  1.1679
    6MOL   C148 1958   6.809   2.198   6.264  0.1487  0.0247 -0.4600
    6MOL   C149 1959   6.842   2.044   6.279 -0.3060  0.8451  0.3696
    6MOL   C150 1960   6.876   1.992   6.136  0.2474  0.5555 -0.5919
    6MOL   C151 1961   6.958   2.026   6.377  0.3277  0.2803 -0.2972
    6MOL   H152 1962   6.577   2.148   6.353 -2.1911  0.8305  0.8167
    6MOL   H153 1963   6.492   2.296   6.301 -0.4074 -0.0115  0.6524
    6MOL   H154 1964   6.662   2.174   6.096 -1.1801  0.0158  0.4996
    6MOL   H155 1965   6.896   2.251   6.225 -0.7747  3.1956  1.6811
    6MOL   H156 1966   6.797   2.228   6.368 -2.9402 -3.6602  0.3731
    6MOL   H157 1967   6.754   1.985   6.305 -0.7478 -0.0987 -3.0904
    6MOL   H158 1968   6.785   2.002   6.078 -0.2440  2.0278  0.4129
    6MOL   H159 1969   6.919   1.892   6.129 -1.7300 -0.3381 -0.4487
    6MOL   H160 1970   6.934   2.063   6.079  0.7866 -1.4684 -2.6304
    6MOL   H161 1971   6.953   2.078   6.473  1.2529 -0.3031  0.0791
    6MOL   H162 1972   7.052   2.050   6.327 -0.3352  1.1558 -1.1422
    6MOL   H163 1973   6.974   1.921   6.399  0.7725  0.3715 -0.1763
    6MOL   C164 1974   6.679   2.391   6.135  0.2952  0.8154 -0.0183
    6MOL   C165 1975   6.786   2.429   6.035 -0.3452  0.2194 -0.6021
    6MOL   C166 1976   6.776   2.365   5.895 -0.0581 -0.4150 -0.4816
    6MOL   C167 1977   6.894   2.367   5.796 -1.0551  0.4203 -0.2134
    6MOL   C168 1978   7.024   2.310   5.848 -0.9424 -0.5621  0.0467
    6MOL   C169 1979   6.860   2.311   5.664  0.6684 -0.4928  0.6958
    6MOL   H170 1980   6.579   2.419   6.102 -0.4384 -1.4165  0.2283
    6MOL   H171 1981   6.705   2.445   6.226  0.2039 -0.8442  1.0060
    6MOL   H172 1982   6.880   2.384   6.069  0.0172  1.2196 -0.2583
    6MOL   H173 1983   6.743   2.262   5.906 -0.6303 -0.0842  1.1026
    6MOL   H174 1984   6.692   2.417   5.848 -0.8571 -0.2008  1.1511
    6MOL   H175 1985   6.922   2.472   5.783 -0.5608  0.0545 -2.1558
    6MOL   H176 1986   7.101   2.320   5.772 -0.1587 -1.5837  0.6840
    6MOL   H177 1987   7.029   2.204   5.873  2.1745 -1.0662 -2.4134
    6MOL   H178 1988   7.042   2.366   5.940 -0.9963  2.2218 -1.5924
    6MOL   H179 1989   6.824   2.208   5.667 -0.1914 -0.2382 -0.2660
    6MOL   H180 1990   6.945   2.332   5.599 -0.8171  2.9535 -0.2720
    6MOL   H181 1991   6.777   2.366   5.620  1.3289 -0.5123 -0.6076
    6MOL   C182 1992   6.808   2.585   6.019 -0.7481  0.7650  0.2713
    6MOL   C183 1993   6.876   2.660   6.140 -0.2276  0.0168 -0.3717
    6MOL   C184 1994   7.025   2.621   6.149  1.2233  0.0778  0.5557
    6MOL   C185 1995   7.092   2.649   6.285 -0.5801  0.1806 -0.0544
    6MOL   C186 1996   7.080   2.535   6.386  0.2463 -0.1051  0.5599
    6MOL   C187 1997   7.247   2.690   6.284 -0.2906 -0.3704  0.0093
    6MOL   H188 1998   6.710   2.627   5.997 -0.4199  2.2298  1.5179
    6MOL   H189 1999   6.861   2.609   5.926 -0.6680  1.0592  0.3938
    6MOL   H190 2000   6.826   2.621   6.229  1.5093 -3.7558 -0.9347
    6MOL   H191 2001   7.075   2.693   6.085  0.5188 -0.6331 -0.8117
    6MOL   H192 2002   7.058   2.525   6.110 -0.6964 -0.4738  0.2233
    6MOL   H193 2003   7.040   2.734   6.331 -2.1103 -0.0397 -1.3344
    6MOL   H194 2004   6.985   2.483   6.378  0.2145  0.0014  0.2251
    6MOL   H195 2005   7.096   2.567   6.489 -3.8963 -0.6597  1.4424
    6MOL   H196 2006   7.156   2.458   6.371  0.3843  0.2106 -0.4518
    6MOL   H197 2007   7.296   2.729   6.373 -3.1757  0.2458  1.4101
    6MOL   H198 2008   7.269   2.769   6.212  1.4248 -0.8542 -0.0233
    6MOL   H199 2009   7.299   2.600   6.252  1.5049  0.1286  1.4507
    6MOL   C200 2010   6.855   2.813   6.129  0.2174  0.2093  0.0888
    6MOL   C201 2011   6.722   2.846   6.200 -0.0648 -0.2438  0.5898
    6MOL   C202 2012   6.655   2.979   6.151 -0.0736  0.3325  0.0856
    6MOL   C203 2013   6.606   2.980   6.010 -0.0280 -0.8097  0.3577
    6MOL   C204 2014   6.461   2.966   5.992  0.2740  0.6966  0.2664
    6MOL   C205 2015   6.675   3.088   5.919 -0.2407 -0.1160 -0.8947
    6MOL   H206 2016   6.843   2.841   6.024 -0.9588  0.3337  0.2526
    6MOL   H207 2017   6.929   2.876   6.176 -1.5633  1.4947  1.2074
    6MOL   H208 2018   6.647   2.771   6.174  1.1883 -1.8870  1.6421
    6MOL   H209 2019   6.569   3.009   6.210  2.1541  2.7153  2.2446
    6MOL   H210 2020   6.733   3.053   6.170 -1.1440  1.1889  1.2165
    6MOL   H211 2021   6.651   2.889   5.970  0.8038 -0.1667 -0.1990
    6MOL   H212 2022   6.413   3.045   6.050  0.6523 -1.3477  3.4721
    6MOL   H213 2023   6.424   2.875   6.038  1.4854  0.0158 -0.0619
    6MOL   H214 2024   6.434   2.975   5.886 -0.9340  2.0936  0.6778
    6MOL   H215 2025   6.650   3.090   5.813 -1.2837 -3.4474 -0.7645
    6MOL   H216 2026   6.784   3.081   5.922 -0.3217 -0.9886  1.1636
    6MOL   H217 2027   6.645   3.184   5.962 -3.2866 -1.5244  0.2089
    6MOL   C218 2028   6.731   2.860   6.349 -0.2030 -0.0505  0.5598
    6MOL   C219 2029   6.629   2.771   6.431  0.8270  0.1910  0.6397
    6MOL   C220 2030   6.474   2.795   6.398  0.2023 -0.0285  0.0002
    6MOL   C221 2031   6.376   2.682   6.439 -0.1140 -0.4289 -0.9358
    6MOL   C222 2032   6.234   2.729   6.427  0.0267 -0.3761 -0.1359
    6MOL   C223 2033   6.401   2.558   6.351  0.0929 -0.6284 -0.0964
    6MOL   H224 2034   6.829   2.830   6.383 -0.5444 -0.6927  0.9814
    6MOL   H225 2035   6.721   2.964   6.381 -2.0034  0.3468 -1.1654
    6MOL   H226 2036   6.653   2.667   6.407  1.6157 -0.1124  2.6510
    6MOL   H227 2037   6.456   2.893   6.444  1.3431  0.0531  0.2948
    6MOL   H228 2038   6.463   2.811   6.291  0.8680  1.1868  0.1030
    6MOL   H229 2039   6.386   2.643   6.540 -1.3076 -1.0612 -1.0591
    6MOL   H230 2040   6.220   2.806   6.502  1.8007 -0.0093 -0.1526
    6MOL   H231 2041   6.209   2.766   6.328  0.4968 -0.2920 -0.2271
    6MOL   H232 2042   6.163   2.652   6.457  1.9036 -2.0028  0.2890
    6MOL   H233 2043   6.504   2.523   6.356  0.8891  1.5977 -0.0340
    6MOL   H234 2044   6.345   2.472   6.387  1.8812 -1.3880  0.9539
    6MOL   H235 2045   6.379   2.574   6.246  1.6205 -0.7300 -0.4472
    6MOL   C236 2046   6.657   2.782   6.587  0.0868  0.1246  0.0009
    6MOL   C237 2047   6.756   2.679   6.643  0.3600 -0.8246 -0.5246
    6MOL   C238 2048   6.691   2.532   6.650  0.1420  0.5100 -0.5284
    6MOL   C239 2049   6.789   2.420   6.613 -0.1460  0.1309 -0.0899
    6MOL   C240 2050   6.918   2.422   6.695 -0.0275  0.4842 -0.3000
    6MOL   C241 2051   6.727   2.280   6.629 -0.5900 -0.9839  0.2572
    6MOL   H242 2052   6.563   2.765   6.640 -0.2629 -0.9538 -0.9345
    6MOL   H243 2053   6.681   2.887   6.605 -1.7479  0.2284  2.0932
    6MOL   H244 2054   6.831   2.673   6.564  0.4556  2.5304 -0.7609
    6MOL   H245 2055   6.610   2.532   6.576 -1.5677  0.3399  1.2869
    6MOL   H246 2056   6.655   2.518   6.752  0.5975 -0.0801 -0.4524
    6MOL   H247 2057   6.817   2.433   6.509 -1.3701 -2.0933 -0.7234
    6MOL   H248 2058   6.972   2.329   6.680  1.8232  0.8910  3.3001
    6MOL   H249 2059   6.890   2.443   6.799  1.1042  0.5091  0.0009
    6MOL   H250 2060   6.991   2.494   6.659  0.4442 -0.3340 -0.9829
    6MOL   H251 2061   6.690   2.260   6.730 -0.3519  0.5055  0.6441
    6MOL   H252 2062   6.796   2.197   6.611 -0.1621 -0.5089 -0.3037
    6MOL   H253 2063   6.642   2.259   6.564 -1.2254  2.9711 -0.2714
    6MOL   C254 2064   6.809   2.724   6.785 -0.0906  0.0023  0.8910
    6MOL   C255 2065   6.898   2.851   6.789  0.0722  0.3727  0.4545
    6MOL   C256 2066   6.901   2.913   6.934  0.6176 -0.5631 -0.2341
    6MOL   C257 2067   6.770   2.998   6.965  0.2009  0.0724  0.7234
    6MOL   C258 2068   6.772   3.124   6.879 -0.7038  0.2409 -0.3671
    6MOL   C259 2069   6.755   3.028   7.112  0.2864 -0.8691  0.0027
    6MOL   H260 2070   6.714   2.732   6.838 -1.7925 -1.0992 -1.8997
    6MOL   H261 2071   6.865   2.647   6.837  0.0696 -0.0717  0.6139
    6MOL   H262 2072   6.864   2.933   6.727 -1.5530 -0.3856  0.3191
    6MOL   H263 2073   6.986   2.980   6.948  0.4779  0.1654 -2.5736
    6MOL   H264 2074   6.906   2.840   7.014  2.5717 -0.6776 -0.4359
    6MOL   H265 2075   6.682   2.936   6.949 -0.0424  0.4177  0.7228
    6MOL   H266 2076   6.734   3.088   6.784 -0.7180  0.2933 -0.3810
    6MOL   H267 2077   6.869   3.170   6.859 -0.6769 -0.0316 -0.8621
    6MOL   H268 2078   6.715   3.207   6.921 -1.2773  0.5921 -1.7993
    6MOL   H269 2079   6.835   3.097   7.137  0.3195 -0.3414 -1.4964
    6MOL   H270 2080   6.669   3.090   7.136  1.3979  1.5179 -1.9760
    6MOL   H271 2081   6.754   2.940   7.177  1.9526  0.5284  1.9590
    6MOL   C272 2082   7.041   2.812   6.742  0.3515  0.3896 -0.2234
    6MOL   C273 2083   7.122   2.934   6.695 -0.3875  0.6988  0.2894
    6MOL   C274 2084   7.272   2.919   6.737 -0.1577  0.1501  0.2201
    6MOL   C275 2085   7.320   2.967   6.869 -0.7736 -0.5616  0.3253
    6MOL   C276 2086   7.316   3.117   6.890 -0.2490 -0.3564  0.6642
    6MOL   C277 2087   7.466   2.934   6.911 -0.1369 -0.6017  0.9818
    6MOL   H278 2088   7.092   2.770   6.829 -2.2417 -1.4230  0.5013
    6MOL   H279 2089   7.034   2.730   6.670 -1.1915  0.2306  0.0907
    6MOL   H280 2090   7.082   3.026   6.740  0.9692  0.8250  1.2748
    6MOL   H281 2091   7.327   2.978   6.664 -0.4224 -0.7399 -0.7206
    6MOL   H282 2092   7.301   2.815   6.722 -0.2865  0.1039  0.2937
    6MOL   H283 2093   7.258   2.919   6.945 -0.1568 -0.0554  1.1725
    6MOL   H284 2094   7.358   3.148   6.986  1.0520 -0.6326  0.1930
    6MOL   H285 2095   7.369   3.173   6.813 -0.9040 -0.0616  0.4171
    6MOL   H286 2096   7.208   3.132   6.903  0.5111  4.1486  3.2446
    6MOL   H287 2097   7.504   2.835   6.887 -2.1222 -1.2227  0.3083
    6MOL   H288 2098   7.534   3.004   6.863  0.1309 -2.0220 -0.7800
    6MOL   H289 2099   7.472   2.941   7.020  1.3383 -0.1060  0.8778
    6MOL   C290 2100   7.095   2.953   6.544  0.1473 -0.6169 -0.4288
    6MOL   C291 2101   7.097   3.099   6.497 -0.5636  0.9949 -0.2695
    6MOL   C292 2102   7.152   3.108   6.346  0.8123  0.1104 -0.1192
    6MOL   C293 2103   7.306   3.084   6.336  0.7488  0.6289  0.7804
    6MOL   C294 2104   7.349   3.091   6.190  0.5830  0.1474 -0.0309
    6MOL   C295 2105   7.391   3.185   6.412 -0.0872 -0.0515  0.1456
    6MOL   H296 2106   7.174   2.896   6.495  2.8911 -0.7054  3.7908
    6MOL   H297 2107   6.991   2.929   6.521  1.1536 -5.8632 -0.2330
    6MOL   H298 2108   7.164   3.151   6.566  0.5487 -2.0264  0.9960
    6MOL   H299 2109   7.142   3.206   6.300  0.1643 -0.1153 -0.4652
    6MOL   H300 2110   7.093   3.040   6.285  0.5618 -0.9965  1.3435
    6MOL   H301 2111   7.326   2.983   6.370  1.4901  0.6850  0.5104
    6MOL   H302 2112   7.456   3.070   6.178  1.0426  3.0449 -1.6981
    6MOL   H303 2113   7.330   3.193   6.155 -3.5386 -1.5918 -3.3554
    6MOL   H304 2114   7.300   3.026   6.118  2.1781 -0.8164 -0.2761
    6MOL   H305 2115   7.364   3.290   6.398  2.8902  1.0618  2.1482
    6MOL   H306 2116   7.498   3.164   6.410  0.1652  0.7768  2.5938
    6MOL   H307 2117   7.372   3.166   6.518 -0.5185 -0.4810 -0.0077
    6MOL   C308 2118   6.959   3.168   6.511 -0.4413 -0.0147  0.4233
    6MOL   C309 2119   6.970   3.322   6.520 -0.2399  0.1896 -0.2814
    6MOL   C310 2120   6.830   3.384   6.493 -0.4505  0.4042 -0.6392
    6MOL   C311 2121   6.791   3.412   6.346  0.3803  0.0258  0.2285
    6MOL   C312 2122   6.636   3.437   6.323  0.8173 -0.4310  0.4325
    6MOL   C313 2123   6.872   3.534   6.297 -0.7226 -0.4185  0.1468
    6MOL   H314 2124   6.899   3.133   6.427  1.1157 -3.9489  0.8474
    6MOL   H315 2125   6.890   3.138   6.590 -0.5866  1.2969  0.8007
    6MOL   H316 2126   7.038   3.363   6.446  1.0737 -0.7101  0.4093
    6MOL   H317 2127   6.817   3.472   6.555  3.4964  2.4512 -2.5630
    6MOL   H318 2128   6.761   3.307   6.527  1.1410 -0.4788  0.6321
    6MOL   H319 2129   6.823   3.329   6.284  1.9386 -1.3551  2.8006
    6MOL   H320 2130   6.575   3.347   6.322  0.1079  0.0453  0.9910
    6MOL   H321 2131   6.633   3.487   6.226  1.5402  0.8442  1.0437
    6MOL   H322 2132   6.606   3.504   6.404  1.7064 -0.8661  1.1295
    6MOL   H323 2133   6.842   3.570   6.199 -0.9407 -0.3159  0.2519
    6MOL   H324 2134   6.871   3.629   6.350  0.5108 -0.4591  0.2705
    6MOL   H325 2135   6.977   3.509   6.279 -0.7586  1.5705 -3.2231
    6MOL   C326 2136   7.034   3.366   6.659  0.2155 -0.4216  0.9918
    6MOL   C327 2137   7.107   3.506   6.656 -0.2383 -1.1316 -0.5227
    6MOL   C328 2138   7.261   3.490   6.623  0.9733 -0.1490  0.1946
    6MOL   C329 2139   7.347   3.618   6.619 -0.0673 -0.2922 -0.0974
    6MOL   C330 2140   7.492   3.584   6.587  0.0881  0.4296  0.0286
    6MOL   C331 2141   7.285   3.708   6.508 -0.3111 -0.0858  0.3194
    6MOL   H332 2142   7.111   3.302   6.702  0.0900 -2.4678 -1.6752
    6MOL   H333 2143   6.951   3.363   6.730 -0.2753 -0.5736  0.4172
    6MOL   H334 2144   7.055   3.563   6.579 -1.1542 -1.6589 -0.3018
    6MOL   H335 2145   7.304   3.436   6.707  4.0700  2.8531  0.6481
    6MOL   H336 2146   7.263   3.424   6.537  0.1148  1.8135 -1.3765
    6MOL   H337 2147   7.341   3.664   6.717  0.7449 -1.6901  0.6164
    6MOL   H338 2148   7.570   3.659   6.600  0.5135 -0.0102  0.0455
    6MOL   H339 2149   7.494   3.542   6.487  0.0358 -0.3488  0.3496
    6MOL   H340 2150   7.522   3.499   6.649 -1.5956  0.7705  1.3274
    6MOL   H341 2151   7.291   3.657   6.412  0.5344 -1.5316  1.1288
    6MOL   H342 2152   7.180   3.730   6.525 -0.1786  0.8056  0.0400
    6MOL   H343 2153   7.340   3.802   6.496 -0.8294  0.3176  1.0867
    6MOL   C344 2154   7.077   3.586   6.787 -0.8640  0.4975  0.5586
    6MOL   C345 2155   7.135   3.521   6.918 -0.5427  0.0999 -0.0784
    6MOL   C346 2156   7.067   3.577   7.048  0.6443 -0.2919  0.4172
    6MOL   C347 2157   7.125   3.528   7.176  0.5333  0.3251  0.0179
    6MOL   C348 2158   7.081   3.377   7.199  0.6241 -0.1657 -0.1862
    6MOL   C349 2159   7.079   3.615   7.291  0.5817 -0.4666 -0.0237
    6MOL   H350 2160   6.969   3.599   6.798 -0.9158 -0.3668  1.1723
    6MOL   H351 2161   7.110   3.690   6.785 -1.0428  0.5233 -1.2674
    6MOL   H352 2162   7.243   3.534   6.910 -0.5062 -0.5466 -0.6815
    6MOL   H353 2163   7.055   3.684   7.031  0.7379 -0.5871 -1.6054
    6MOL   H354 2164   6.964   3.540   7.056  0.3666  0.3823 -0.0427
    6MOL   H355 2165   7.233   3.541   7.167  1.1057 -2.0027  2.7425
    6MOL   H356 2166   7.139   3.333   7.280 -0.4532  0.4746  0.9526
    6MOL   H357 2167   6.975   3.369   7.222  0.4487  0.6309 -0.7100
    6MOL   H358 2168   7.098   3.316   7.110  1.5046 -1.9036  1.1270
    6MOL   H359 2169   6.975   3.617   7.323  0.0349 -2.8361 -1.5218
    6MOL   H360 2170   7.104   3.721   7.282  0.9794 -0.7946 -3.3433
    6MOL   H361 2171   7.156   3.595   7.366 -0.2636 -0.1406  0.9358
    6MOL   H362 2172   7.116   3.414   6.923 -0.1494  0.0963  1.7880
    7MOL     C1 2173   4.421   4.041   6.464 -1.8086 -0.3596 -0.3961
    7MOL     C2 2174   4.440   4.044   6.313  0.2598 -0.3360 -0.2468
    7MOL     C3 2175   4.351   4.151   6.238 -0.4930 -0.6056 -0.5851
    7MOL     C4 2176   4.395   4.197   6.101 -0.1159  0.5224 -0.1054
    7MOL     C5 2177   4.525   4.279   6.107  0.2116 -0.2411 -0.5312
    7MOL     C6 2178   4.289   4.277   6.023 -0.3532 -0.5653  0.0658
    7MOL     H7 2179   4.317   4.062   6.492 -1.8485 -2.8879  1.5483
    7MOL     H8 2180   4.448   3.943   6.504  2.0378  1.3801  1.4888
    7MOL     H9 2181   4.544   4.074   6.312 -0.6472  3.1784  1.8817
    7MOL    H10 2182   4.244   4.129   6.240 -0.6156 -0.2383 -2.2734
    7MOL    H11 2183   4.343   4.239   6.301 -0.1963  0.2769 -1.7772
    7MOL    H12 2184   4.407   4.115   6.029  0.8619 -0.0669  0.7054
    7MOL    H13 2185   4.608   4.212   6.130 -0.1911 -0.2329  1.0560
    7MOL    H14 2186   4.545   4.299   6.002  2.6780 -0.3268 -0.1136
    7MOL    H15 2187   4.525   4.361   6.179 -0.2586 -1.2384  0.6386
    7MOL    H16 2188   4.192   4.226   6.024  0.3936 -2.0239  1.3239
    7MOL    H17 2189   4.313   4.312   5.923  0.8014 -1.0568  0.1623
    7MOL    H18 2190   4.273   4.371   6.075 -0.3560 -0.5088 -0.0366
    7MOL    H19 2191   4.486   4.115   6.509  1.1415 -2.2418 -1.4424
    7MOL    C20 2192   4.418   3.893   6.264 -1.0114 -0.2229 -0.0213
    7MOL    C21 2193   4.276   3.840   6.232  0.5857  0.4945 -0.3606
    7MOL    C22 2194   4.274   3.742   6.112  0.3585  0.1159  0.6685
    7MOL    C23 2195   4.258   3.800   5.970  0.3620  0.1477 -0.5838
    7MOL    C24 2196   4.292   3.693   5.871 -0.0680 -1.0437 -0.2579
    7MOL    C25 2197   4.125   3.862   5.941  0.5412  0.0362 -0.2104
    7MOL    H26 2198   4.467   3.906   6.167 -0.1394 -2.0797  0.1299
    7MOL    H27 2199   4.474   3.815   6.315  0.1224  0.2136 -0.5655
    7MOL    H28 2200   4.216   3.927   6.204  0.3438  0.8226  1.0970
    7MOL    H29 2201   4.184   3.683   6.124  0.7305 -0.4122  0.8581
    7MOL    H30 2202   4.355   3.669   6.109  1.6893  1.5701 -0.0427
    7MOL    H31 2203   4.343   3.867   5.956  1.9670 -1.4760  0.9762
    7MOL    H32 2204   4.216   3.615   5.872  0.1422 -1.2375  1.2918
    7MOL    H33 2205   4.386   3.644   5.894 -0.3477 -2.3605 -1.8597
    7MOL    H34 2206   4.303   3.734   5.770  0.7213  1.4488  0.7855
    7MOL    H35 2207   4.117   3.884   5.835  2.6601  1.6591 -0.0776
    7MOL    H36 2208   4.039   3.802   5.969  0.8228 -0.4940 -0.4700
    7MOL    H37 2209   4.110   3.961   5.984 -1.1494 -0.3601  0.1205
    7MOL    C38 2210   4.196   3.797   6.361 -0.9450  0.5851  0.8621
    7MOL    C39 2211   4.044   3.822   6.353  0.0367 -0.6724  0.4165
    7MOL    C40 2212   3.990   3.963   6.390  0.0834 -0.2540  0.4428
    7MOL    C41 2213   3.857   4.001   6.316  0.4755 -0.0100  0.6398
    7MOL    C42 2214   3.897   4.077   6.183 -0.2649 -0.1019 -0.4279
    7MOL    C43 2215   3.759   4.082   6.403  0.5374 -0.3059  0.1379
    7MOL    H44 2216   4.226   3.846   6.454  0.5563  1.4639 -0.0512
    7MOL    H45 2217   4.210   3.690   6.372  0.5655  0.4547 -1.8172
    7MOL    H46 2218   4.021   3.817   6.247 -1.7529  3.1726  0.5446
    7MOL    H47 2219   4.068   4.034   6.360 -0.3454 -0.5937 -1.5579
    7MOL    H48 2220   3.958   3.978   6.493 -3.4005  0.0276 -0.6361
    7MOL    H49 2221   3.790   3.920   6.288 -0.8689  0.7558  1.6058
    7MOL    H50 2222   3.971   4.154   6.205  0.3485 -1.6763  3.3281
    7MOL    H51 2223   3.927   4.008   6.104 -1.8465 -0.2213 -0.9441
    7MOL    H52 2224   3.811   4.132   6.144 -0.7784 -0.7798 -0.2497
    7MOL    H53 2225   3.676   4.135   6.355  0.0939  0.0285  1.2639
    7MOL    H54 2226   3.809   4.164   6.454 -0.0650  1.1369 -1.5206
    7MOL    H55 2227   3.713   4.021   6.481  0.3897  1.0439  1.1376
    7MOL    C56 2228   3.958   3.709   6.432  0.5450 -0.3538 -0.0729
    7MOL    C57 2229   3.945   3.575   6.364  0.0955 -0.2508 -0.2777
    7MOL    C58 2230   3.891   3.574   6.218 -0.4130  0.0233 -0.2497
    7MOL    C59 2231   3.893   3.440   6.140 -0.1098 -0.1768 -0.3549
    7MOL    C60 2232   3.982   3.445   6.013 -0.6429  0.3229  0.0905
    7MOL    C61 2233   3.752   3.388   6.110 -0.4428  0.3167  0.3259
    7MOL    H62 2234   3.856   3.747   6.440 -0.3703 -2.2479 -2.1041
    7MOL    H63 2235   3.985   3.697   6.537 -0.4420  1.3118  0.3894
    7MOL    H64 2236   4.048   3.542   6.349  0.3202 -0.0750  0.8549
    7MOL    H65 2237   3.794   3.624   6.209 -0.1849  0.0362 -3.1403
    7MOL    H66 2238   3.963   3.639   6.167 -0.7640  1.0780  0.5755
    7MOL    H67 2239   3.942   3.358   6.193 -0.6355 -0.6465 -0.5946
    7MOL    H68 2240   3.974   3.347   5.967  1.3289 -0.4644  1.3323
    7MOL    H69 2241   4.082   3.470   6.050 -0.2170  1.3560 -1.7130
    7MOL    H70 2242   3.958   3.515   5.934  0.3922 -1.6944 -2.0805
    7MOL    H71 2243   3.692   3.464   6.061 -1.7527 -0.2875  0.9810
    7MOL    H72 2244   3.703   3.367   6.205 -0.5227  2.0016  0.6743
    7MOL    H73 2245   3.770   3.293   6.060  0.1977  0.4740  0.2490
    7MOL    C74 2246   3.867   3.481   6.462  0.2224 -0.4632 -0.1884
    7MOL    C75 2247   3.940   3.358   6.513  0.4134 -0.0293 -0.3991
    7MOL    C76 2248   3.842   3.256   6.566 -0.4475  0.2693  0.1617
    7MOL    C77 2249   3.786   3.162   6.460 -0.7185 -0.3838  0.1130
    7MOL    C78 2250   3.637   3.179   6.459 -0.2715  0.1653 -0.4026
    7MOL    C79 2251   3.829   3.019   6.480 -0.1805  0.7342 -0.6164
    7MOL    H80 2252   3.775   3.449   6.414  0.7480  0.7835 -2.0848
    7MOL    H81 2253   3.838   3.533   6.554  0.9456  0.2597 -0.3591
    7MOL    H82 2254   3.996   3.309   6.433 -0.4460 -0.9490 -0.4400
    7MOL    H83 2255   3.893   3.202   6.646 -0.9310 -0.8015 -0.2412
    7MOL    H84 2256   3.766   3.311   6.622 -0.6962  0.6383 -0.5339
    7MOL    H85 2257   3.826   3.190   6.362  1.7095 -3.4595  0.1472
    7MOL    H86 2258   3.615   3.285   6.476 -1.4191  0.1242 -1.5306
    7MOL    H87 2259   3.594   3.126   6.544 -0.1191  0.6955  0.0088
    7MOL    H88 2260   3.595   3.152   6.362 -0.9670 -0.5434  0.0942
    7MOL    H89 2261   3.776   2.981   6.568  0.9673 -0.1618 -0.2988
    7MOL    H90 2262   3.808   2.957   6.393 -0.0502 -1.8503  1.1152
    7MOL    H91 2263   3.936   3.004   6.494 -0.1040  1.3558 -0.5412
    7MOL    C92 2264   4.047   3.395   6.622 -0.0197  0.0051 -0.0921
    7MOL    C93 2265   4.147   3.280   6.627 -0.5588 -0.0121  0.1745
    7MOL    C94 2266   4.281   3.319   6.557 -0.2438  0.1027  0.5864
    7MOL    C95 2267   4.276   3.337   6.403 -0.0629  0.8426 -0.0764
    7MOL    C96 2268   4.395   3.416   6.347 -0.6520 -0.4717  0.4531
    7MOL    C97 2269   4.253   3.195   6.333 -0.6593  0.2486 -0.1628
    7MOL    H98 2270   4.092   3.486   6.582 -1.7200  1.3236  0.9232
    7MOL    H99 2271   4.004   3.420   6.719  0.5032 -3.1380  1.0158
    7MOL   H100 2272   4.102   3.192   6.580  1.2770  0.1831 -2.0474
    7MOL   H101 2273   4.362   3.251   6.581  2.1218  1.5965 -2.7974
    7MOL   H102 2274   4.319   3.411   6.603 -1.2313 -0.2632  2.1694
    7MOL   H103 2275   4.179   3.384   6.388 -1.9642 -1.5556  3.7213
    7MOL   H104 2276   4.403   3.398   6.240  1.1298 -1.0725  0.6725
    7MOL   H105 2277   4.484   3.364   6.382 -0.6719 -0.1620  0.9632
    7MOL   H106 2278   4.405   3.521   6.373  0.2684 -0.3192 -0.4974
    7MOL   H107 2279   4.340   3.134   6.358 -0.5425 -0.2743 -1.8055
    7MOL   H108 2280   4.239   3.209   6.226 -0.1856  0.5072 -0.1952
    7MOL   H109 2281   4.175   3.138   6.384 -2.3692 -0.3602 -3.3205
    7MOL   C110 2282   4.172   3.235   6.769 -0.9881 -0.2933 -0.2615
    7MOL   C111 2283   4.217   3.089   6.797 -0.1736 -0.2675  0.0625
    7MOL   C112 2284   4.300   3.083   6.922 -0.1118 -0.0713  0.0080
    7MOL   C113 2285   4.438   3.151   6.927  0.1723  0.8243 -0.0692
    7MOL   C114 2286   4.535   3.101   6.817  0.1826  0.1028 -0.0342
    7MOL   C115 2287   4.501   3.151   7.068 -0.6283 -0.1039  0.2408
    7MOL   H116 2288   4.073   3.245   6.814 -1.5563 -0.0967 -1.5344
    7MOL   H117 2289   4.225   3.309   6.829 -2.1824  0.8323 -0.5638
    7MOL   H118 2290   4.272   3.073   6.704 -1.0150  0.3987 -0.5600
    7MOL   H119 2291   4.313   2.980   6.956 -0.8604  0.5927  2.3856
    7MOL   H120 2292   4.241   3.122   7.005  0.1264 -0.9667  0.6122
    7MOL   H121 2293   4.424   3.257   6.910  0.5401  0.4244 -3.0774
    7MOL   H122 2294   4.515   3.143   6.718  1.6129  0.6285 -0.1132
    7MOL   H123 2295   4.544   2.992   6.821  1.4633  0.2319  0.7669
    7MOL   H124 2296   4.636   3.141   6.829 -0.7651  2.0247  1.8908
    7MOL   H125 2297   4.460   3.231   7.129  0.7453  1.1249 -0.4277
    7MOL   H126 2298   4.608   3.171   7.072 -0.2729 -1.3644 -2.1480
    7MOL   H127 2299   4.489   3.060   7.128  2.0252 -0.2693  0.5698
    7MOL   C128 2300   4.092   3.000   6.812 -0.6896 -0.4532  0.1247
    7MOL   C129 2301   4.106   2.842   6.832 -0.0722 -0.2438 -0.2557
    7MOL   C130 2302   4.157   2.767   6.698  0.7156 -0.2279 -0.1533
    7MOL   C131 2303   4.197   2.616   6.714  0.0283  0.3508 -0.2865
    7MOL   C132 2304   4.204   2.555   6.574  0.2283 -0.1799 -0.0616
    7MOL   C133 2305   4.316   2.591   6.811 -0.0268  0.2564 -0.0739
    7MOL   H134 2306   4.023   3.010   6.728  0.5741  2.5682 -0.6333
    7MOL   H135 2307   4.042   3.049   6.895  0.9920  0.1869  0.7724
    7MOL   H136 2308   4.178   2.830   6.912 -0.8502 -0.7725  0.3809
    7MOL   H137 2309   4.067   2.771   6.637  0.4562 -0.7490  0.1910
    7MOL   H138 2310   4.231   2.827   6.646  0.3690 -0.1762 -0.5945
    7MOL   H139 2311   4.106   2.586   6.766  1.0017 -1.2178  0.5383
    7MOL   H140 2312   4.119   2.570   6.508  0.0109  0.7007  0.4065
    7MOL   H141 2313   4.229   2.449   6.575 -1.8874 -0.6952 -0.4966
    7MOL   H142 2314   4.289   2.598   6.521 -1.8662  0.0658 -3.3021
    7MOL   H143 2315   4.347   2.491   6.842 -0.8550  0.5727  1.8568
    7MOL   H144 2316   4.411   2.633   6.779 -1.3016  1.5663 -2.2759
    7MOL   H145 2317   4.293   2.632   6.910 -0.3675  2.2912 -0.9784
    7MOL   C146 2318   3.973   2.776   6.882 -0.7095  0.3862 -0.4858
    7MOL   C147 2319   3.882   2.861   6.980  1.5240 -0.3831  0.6325
    7MOL   C148 2320   3.815   2.769   7.084  0.2951  0.9399  0.4785
    7MOL   C149 2321   3.866   2.790   7.233 -0.2045  0.7253  0.3253
    7MOL   C150 2322   3.825   2.925   7.294 -0.2873  0.2423  0.4322
    7MOL   C151 2323   3.828   2.675   7.334  0.0178  0.0039 -0.4176
    7MOL   H152 2324   3.995   2.680   6.928 -0.8601  0.7151  0.2830
    7MOL   H153 2325   3.908   2.754   6.797 -2.8979 -1.5389  1.6019
    7MOL   H154 2326   3.949   2.928   7.034  2.0711  0.3881 -0.9743
    7MOL   H155 2327   3.707   2.775   7.071  0.6557  1.9162 -2.5246
    7MOL   H156 2328   3.835   2.663   7.064  2.4213  1.0600  1.8337
    7MOL   H157 2329   3.975   2.795   7.237 -0.1945  2.2298 -1.0147
    7MOL   H158 2330   3.852   2.912   7.399 -1.1302 -1.5922  0.4462
    7MOL   H159 2331   3.720   2.950   7.284 -0.1894  0.6129  0.3183
    7MOL   H160 2332   3.889   3.003   7.253 -1.1119  1.0159  0.5964
    7MOL   H161 2333   3.858   2.691   7.438 -0.9867 -2.0767  0.2391
    7MOL   H162 2334   3.883   2.590   7.292 -0.9432 -1.5534  1.3906
    7MOL   H163 2335   3.723   2.647   7.335  0.1012 -0.3460  2.6288
    7MOL   C164 2336   3.770   2.942   6.902  0.5708  0.0973 -0.1228
    7MOL   C165 2337   3.692   3.056   6.958  0.2869  0.2629 -0.0971
    7MOL   C166 2338   3.789   3.168   7.002  0.4628 -0.5087 -0.0059
    7MOL   C167 2339   3.741   3.294   7.061  0.2614 -0.2554 -0.5268
    7MOL   C168 2340   3.683   3.277   7.204  0.0939  0.3808  0.2517
    7MOL   C169 2341   3.852   3.407   7.054  0.3806  0.4037 -0.1164
    7MOL   H170 2342   3.821   2.982   6.815  0.3027  0.1006 -0.2786
    7MOL   H171 2343   3.704   2.867   6.857  0.4947 -0.8285  1.4882
    7MOL   H172 2344   3.645   3.021   7.050  0.3530 -1.9859 -0.8965
    7MOL   H173 2345   3.873   3.130   7.060  0.8825 -0.5724 -0.6465
    7MOL   H174 2346   3.838   3.193   6.908  0.1351 -0.4778 -0.1684
    7MOL   H175 2347   3.670   3.350   7.000 -0.0376  0.6028  0.6082
    7MOL   H176 2348   3.599   3.208   7.196 -0.6097  1.3670 -1.0829
    7MOL   H177 2349   3.647   3.373   7.242  2.0466  0.6401  1.5267
    7MOL   H178 2350   3.752   3.248   7.283 -0.6940 -1.0558  0.4253
    7MOL   H179 2351   3.878   3.428   6.950 -0.6273 -1.6176 -0.8072
    7MOL   H180 2352   3.940   3.379   7.111 -0.0375  0.8682  0.7650
    7MOL   H181 2353   3.815   3.501   7.095 -2.8025 -0.6597 -0.4319
    7MOL   C182 2354   3.584   3.108   6.865 -0.6728  0.4678 -0.5062
    7MOL   C183 2355   3.450   3.134   6.941 -0.6624 -0.4858  0.3518
    7MOL   C184 2356   3.364   3.229   6.859 -0.4968 -0.7604  0.1318
    7MOL   C185 2357   3.373   3.380   6.890 -0.8362  0.3631  0.0852
    7MOL   C186 2358   3.338   3.475   6.776 -0.2541  0.3337  0.3812
    7MOL   C187 2359   3.306   3.417   7.028 -0.0680  0.0061  0.1448
    7MOL   H188 2360   3.570   3.038   6.782  2.0094  1.6920 -2.0480
    7MOL   H189 2361   3.622   3.191   6.806 -0.1596  0.8405  0.3540
    7MOL   H190 2362   3.463   3.176   7.040  3.1821  1.5370 -0.8762
    7MOL   H191 2363   3.259   3.203   6.851 -0.7351  0.2435 -0.0433
    7MOL   H192 2364   3.387   3.204   6.755  0.3397  1.4422 -0.2556
    7MOL   H193 2365   3.477   3.411   6.894 -1.9082  4.5399 -1.4138
    7MOL   H194 2366   3.349   3.581   6.797 -0.3373  0.0113  2.0908
    7MOL   H195 2367   3.233   3.457   6.752  0.1269 -0.0764 -1.0186
    7MOL   H196 2368   3.407   3.467   6.692 -1.1996 -1.7758 -0.2285
    7MOL   H197 2369   3.197   3.414   7.018 -0.2378  2.0218  1.1914
    7MOL   H198 2370   3.343   3.515   7.058  1.3765 -0.7836  0.9708
    7MOL   H199 2371   3.348   3.361   7.111 -0.1246  1.7380  1.3663
    7MOL   C200 2372   3.375   3.000   6.962 -0.2192  0.0849  0.6738
    7MOL   C201 2373   3.277   2.995   7.085  0.5245  0.0280  0.3493
    7MOL   C202 2374   3.252   2.842   7.120 -0.3422 -0.6746 -0.0470
    7MOL   C203 2375   3.375   2.763   7.162 -0.1740 -0.8401 -0.1849
    7MOL   C204 2376   3.444   2.830   7.279  0.1756  0.0583 -0.0050
    7MOL   C205 2377   3.340   2.618   7.188  0.1384  0.0722  0.4025
    7MOL   H206 2378   3.448   2.922   6.984  1.6825  1.4216 -0.7504
    7MOL   H207 2379   3.329   2.966   6.869 -0.1161  2.4337 -0.2742
    7MOL   H208 2380   3.327   3.038   7.171 -0.6725  0.8872  0.6382
    7MOL   H209 2381   3.173   2.816   7.190  0.1172  2.3489  1.6557
    7MOL   H210 2382   3.212   2.796   7.029 -0.8676  2.1160 -1.2629
    7MOL   H211 2383   3.441   2.734   7.081  0.7587 -1.0079  0.6273
    7MOL   H212 2384   3.387   2.812   7.370 -1.5211  1.4784 -0.7651
    7MOL   H213 2385   3.476   2.933   7.266 -1.8505  0.6586 -0.3617
    7MOL   H214 2386   3.538   2.775   7.288 -1.9678 -4.0699 -1.5745
    7MOL   H215 2387   3.426   2.553   7.202 -1.9484 -2.4440  2.2294
    7MOL   H216 2388   3.284   2.572   7.107  2.1836 -1.1622 -0.3270
    7MOL   H217 2389   3.284   2.611   7.282  0.3715  0.6935  0.5873
    7MOL   C218 2390   3.147   3.074   7.054  0.2332  0.0522 -0.1976
    7MOL   C219 2391   3.041   3.060   7.161 -0.0176  0.5378 -0.3626
    7MOL   C220 2392   2.900   3.101   7.098 -0.0425  0.1941  0.7815
    7MOL   C221 2393   2.874   3.221   7.003  0.6951 -0.1647  0.5753
    7MOL   C222 2394   2.900   3.192   6.852  0.0151  0.5029  0.7364
    7MOL   C223 2395   2.733   3.286   7.031 -0.4284 -0.1276 -0.6410
    7MOL   H224 2396   3.175   3.179   7.044 -0.4807  0.3082  0.4658
    7MOL   H225 2397   3.110   3.038   6.958  0.7221  2.0549 -1.1547
    7MOL   H226 2398   3.024   2.956   7.190  4.6233 -0.1970  0.0496
    7MOL   H227 2399   2.882   3.008   7.042 -3.8112  1.1181  0.3525
    7MOL   H228 2400   2.820   3.098   7.171  1.2908 -1.3685  2.2401
    7MOL   H229 2401   2.944   3.296   7.042 -3.7200  3.0752  2.6755
    7MOL   H230 2402   3.007   3.178   6.834  0.2062 -1.2842  3.0600
    7MOL   H231 2403   2.835   3.108   6.828  0.0951  0.0594  2.0073
    7MOL   H232 2404   2.872   3.279   6.792  2.8190  1.2894  0.4526
    7MOL   H233 2405   2.723   3.327   7.132  1.3544 -2.4231  0.5085
    7MOL   H234 2406   2.716   3.370   6.964  0.7597  0.5637 -0.1019
    7MOL   H235 2407   2.649   3.220   7.009 -1.0804  0.0496  1.2009
    7MOL   C236 2408   3.077   3.143   7.289 -0.0108 -0.4161 -0.6366
    7MOL   C237 2409   2.990   3.107   7.414 -0.6820  0.4967  1.1494
    7MOL   C238 2410   3.015   3.209   7.525 -0.6665 -0.8888 -0.1115
    7MOL   C239 2411   3.016   3.359   7.487  0.0993  0.2599  0.1416
    7MOL   C240 2412   2.878   3.396   7.421  0.1643 -0.3984  0.3137
    7MOL   C241 2413   3.034   3.457   7.602 -0.3563  0.0658 -1.1846
    7MOL   H242 2414   3.066   3.245   7.253  1.9868 -0.4101 -1.3306
    7MOL   H243 2415   3.183   3.139   7.316 -0.2859  3.4756  1.3674
    7MOL   H244 2416   2.884   3.125   7.397 -1.2902 -0.6150  3.6040
    7MOL   H245 2417   3.108   3.180   7.573  0.9661  0.3565 -2.4298
    7MOL   H246 2418   2.942   3.203   7.606  0.8933 -1.8738  1.2483
    7MOL   H247 2419   3.102   3.367   7.421  0.6734 -1.1763  0.7101
    7MOL   H248 2420   2.793   3.354   7.476  1.8886 -1.8515  1.9448
    7MOL   H249 2421   2.858   3.367   7.318 -0.8556  0.9039  0.1349
    7MOL   H250 2422   2.864   3.504   7.426  1.9341 -0.0268 -1.6765
    7MOL   H251 2423   3.139   3.459   7.632 -1.1166  1.5485  1.5585
    7MOL   H252 2424   2.978   3.425   7.690 -0.1083  0.3314 -0.9258
    7MOL   H253 2425   3.016   3.564   7.593 -0.5541  0.0985 -0.4319
    7MOL   C254 2426   3.011   2.962   7.468  0.1933 -0.3467 -0.4018
    7MOL   C255 2427   2.888   2.917   7.548 -0.1123  0.2679  0.3675
    7MOL   C256 2428   2.771   2.902   7.454 -0.9757 -0.2082  0.2367
    7MOL   C257 2429   2.639   2.952   7.504  0.0536  0.1184 -0.2197
    7MOL   C258 2430   2.598   2.872   7.634 -0.8249 -0.0830  0.4104
    7MOL   C259 2431   2.540   2.939   7.392  0.0753  0.0220 -0.6887
    7MOL   H260 2432   3.016   2.891   7.385 -0.4151 -0.7468 -0.0959
    7MOL   H261 2433   3.108   2.940   7.512  0.5283  1.3040 -0.2999
    7MOL   H262 2434   2.863   2.994   7.620 -1.4748  0.8904 -0.7283
    7MOL   H263 2435   2.762   2.795   7.434 -0.4377  0.1719 -2.2378
    7MOL   H264 2436   2.805   2.942   7.358  1.0505 -1.2297  0.5014
    7MOL   H265 2437   2.639   3.058   7.530  1.0819 -0.6713  3.3335
    7MOL   H266 2438   2.682   2.884   7.703  0.1302 -1.0539 -0.5534
    7MOL   H267 2439   2.577   2.767   7.617 -0.9040 -0.0143  0.0720
    7MOL   H268 2440   2.508   2.907   7.684 -1.5534 -0.7961 -0.4092
    7MOL   H269 2441   2.581   2.975   7.298  0.7421  0.9744 -0.0550
    7MOL   H270 2442   2.518   2.834   7.374 -1.3030  0.2116 -0.1798
    7MOL   H271 2443   2.442   2.976   7.423 -0.0247 -1.2949  0.6331
    7MOL   C272 2444   2.919   2.776   7.618  0.1824 -0.3987 -0.7044
    7MOL   C273 2445   3.034   2.777   7.726 -0.5646 -0.7579  0.1035
    7MOL   C274 2446   2.985   2.858   0.097 -0.0664 -0.3990  0.0375
    7MOL   C275 2447   3.036   3.004   0.097  0.2911 -0.0381  1.0142
    7MOL   C276 2448   3.184   3.024   0.124 -0.1702 -0.5778  0.6082
    7MOL   C277 2449   2.962   3.096   0.199  0.8787 -0.2296  1.2297
    7MOL   H278 2450   2.828   2.727   7.652 -0.2526  1.0233  0.2508
    7MOL   H279 2451   2.944   2.710   7.535 -1.8888 -3.2950  0.9062
    7MOL   H280 2452   3.120   2.817   7.673 -1.5794  0.3047 -0.7744
    7MOL   H281 2453   3.015   2.816   0.193 -1.9243  1.2081  1.3330
    7MOL   H282 2454   2.877   2.853   0.096 -0.0587 -1.0751  1.2767
    7MOL   H283 2455   3.020   3.043   7.749 -0.5893 -2.3300  0.2092
    7MOL   H284 2456   3.206   2.948   0.200  0.5159 -1.2070 -0.2099
    7MOL   H285 2457   3.245   3.003   0.037 -1.7923  0.6625 -0.8494
    7MOL   H286 2458   3.210   3.127   0.148 -4.0182  0.5972  0.0434
    7MOL   H287 2459   2.960   3.040   0.292  0.5396 -1.7441  0.3409
    7MOL   H288 2460   3.020   3.187   0.212  1.2069  0.0405 -1.6813
    7MOL   H289 2461   2.858   3.116   0.175  1.4630  1.5979  0.1674
    7MOL   C290 2462   3.059   2.637   0.016  0.1029  0.0792 -0.0025
    7MOL   C291 2463   3.203   2.606   0.059  0.0295 -0.2832  0.6652
    7MOL   C292 2464   3.205   2.506   0.171 -0.3200  0.0229  0.0110
    7MOL   C293 2465   3.199   2.553   0.316 -0.7322  0.8762 -0.1339
    7MOL   C294 2466   3.176   2.430   0.412 -0.5751 -0.0154 -0.3252
    7MOL   C295 2467   3.322   2.639   0.358 -0.2604 -0.2037 -0.4100
    7MOL   H296 2468   2.989   2.607   0.094  2.8061 -0.7742  2.1976
    7MOL   H297 2469   3.039   2.569   7.686 -1.2644 -0.4151  0.7239
    7MOL   H298 2470   3.245   2.701   0.094  0.6772 -0.1169 -0.5263
    7MOL   H299 2471   3.283   2.429   0.161  1.4111  1.6319  0.8705
    7MOL   H300 2472   3.115   2.444   0.167 -1.1536  1.2706 -0.6864
    7MOL   H301 2473   3.109   2.611   0.335 -1.7599 -0.7594  0.1173
    7MOL   H302 2474   3.082   2.381   0.387 -0.7585 -0.8495  1.9068
    7MOL   H303 2475   3.186   2.466   0.515  1.5298  0.6516 -0.7246
    7MOL   H304 2476   3.248   2.352   0.387 -0.7698 -0.0406 -0.8050
    7MOL   H305 2477   3.306   2.743   0.328  1.1395  0.5974  1.4866
    7MOL   H306 2478   3.414   2.591   0.326 -1.4347 -1.1234 -2.4972
    7MOL   H307 2479   3.331   2.646   0.467 -1.3297  1.1133 -0.3898
    7MOL   C308 2480   3.285   2.557   7.692 -0.0117 -0.6000 -0.1253
    7MOL   C309 2481   3.436   2.576   7.718  0.1901 -1.3085 -0.2736
    7MOL   C310 2482   3.519   2.469   7.654 -0.2749  0.1689 -0.1583
    7MOL   C311 2483   3.507   2.321   7.702 -0.9605 -0.5909 -0.4770
    7MOL   C312 2484   3.585   2.232   7.606  0.1558  0.3719  0.3309
    7MOL   C313 2485   3.553   2.300   0.096 -0.4419  0.0036  0.3963
    7MOL   H314 2486   3.258   2.454   7.668  0.2508 -0.3326 -1.6534
    7MOL   H315 2487   3.266   2.614   7.601  0.2323  0.9653  0.7896
    7MOL   H316 2488   3.451   2.555   0.072  3.2511 -0.0383 -0.3969
    7MOL   H317 2489   3.627   2.482   7.666 -0.2331 -1.7110  1.8045
    7MOL   H318 2490   3.497   2.473   7.548 -0.0512 -1.8129 -0.2925
    7MOL   H319 2491   3.399   2.304   7.696 -1.6077  2.3288  1.7929
    7MOL   H320 2492   3.566   2.246   7.500 -2.2651  0.9239  0.8145
    7MOL   H321 2493   3.566   2.126   7.623 -0.8390  0.6671  1.1199
    7MOL   H322 2494   3.691   2.240   7.630  0.1217  0.2173  0.5395
    7MOL   H323 2495   3.643   2.358   0.115  0.2122 -0.8196 -0.2082
    7MOL   H324 2496   3.477   2.346   0.159 -0.5515 -0.3366  0.5149
    7MOL   H325 2497   3.564   2.201   0.139  1.7016  0.7363  1.5633
    7MOL   C326 2498   3.482   2.725   7.685  0.1697 -0.3759  0.0506
    7MOL   C327 2499   3.625   2.755   7.728  0.1081 -0.7715  0.4893
    7MOL   C328 2500   3.642   2.756   0.126 -0.4784  0.0320 -0.6574
    7MOL   C329 2501   3.783   2.743   0.172 -0.0736 -0.0536 -0.4760
    7MOL   C330 2502   3.805   2.798   0.313  0.6732 -0.3907  0.1619
    7MOL   C331 2503   3.845   2.604   0.159 -0.2547 -0.1087  0.4574
    7MOL   H332 2504   3.414   2.794   7.735  0.8851 -1.1723  2.1350
    7MOL   H333 2505   3.463   2.754   7.581 -0.0354 -0.0049  0.1892
    7MOL   H334 2506   3.685   2.673   7.689 -2.5510 -2.7302  0.3933
    7MOL   H335 2507   3.598   2.847   0.165  1.8747 -0.5883  3.8222
    7MOL   H336 2508   3.583   2.678   0.175 -2.2132  2.4474  1.2063
    7MOL   H337 2509   3.847   2.802   0.106  0.7576  1.6954  1.8108
    7MOL   H338 2510   3.759   2.893   0.339 -0.3033 -1.3255  2.0334
    7MOL   H339 2511   3.907   2.802   0.352 -0.4609 -0.8479  3.3702
    7MOL   H340 2512   3.751   2.733   0.382  0.1136  0.8606  0.9185
    7MOL   H341 2513   3.806   2.533   0.232 -1.5563  1.6143  1.4879
    7MOL   H342 2514   3.843   2.564   0.058  1.5526 -1.0214  0.7624
    7MOL   H343 2515   3.951   2.611   0.182  0.4261 -0.6304 -2.3273
    7MOL   C344 2516   3.679   2.886   7.672  0.4558 -0.4789  0.2588
    7MOL   C345 2517   3.619   3.016   7.721 -0.2751 -0.2436  0.9483
    7MOL   C346 2518   3.592   3.120   7.617  0.3771  0.5369  0.3515
    7MOL   C347 2519   3.584   3.265   7.666  0.5984 -0.1970  0.0939
    7MOL   C348 2520   3.459   3.279   0.007  0.1223  0.7529 -0.6482
    7MOL   C349 2521   3.581   3.367   7.551  1.4934  0.3986  0.0825
    7MOL   H350 2522   3.659   2.876   7.565 -0.4020  1.7880  0.1887
    7MOL   H351 2523   3.788   2.888   7.674  0.4802 -1.0614 -0.1273
    7MOL   H352 2524   3.690   3.054   0.042 -1.2728  0.9628  1.2983
    7MOL   H353 2525   3.675   3.107   7.549 -1.4123  1.2944 -2.0383
    7MOL   H354 2526   3.501   3.091   7.564 -1.1045 -2.8245  4.3676
    7MOL   H355 2527   3.674   3.286   7.724 -0.2125  0.6498  1.0707
    7MOL   H356 2528   3.481   3.226   0.100  0.2061  3.0164  0.6703
    7MOL   H357 2529   3.444   3.383   0.038  1.1771  0.7410 -0.0755
    7MOL   H358 2530   3.366   3.247   7.712  2.3013 -2.8670 -2.6208
    7MOL   H359 2531   3.596   3.470   7.585 -1.5625  1.1821 -0.7735
    7MOL   H360 2532   3.495   3.356   7.485  2.7618 -1.0048 -1.3845
    7MOL   H361 2533   3.666   3.348   7.485  0.7900  0.3929 -0.8353
    7MOL   H362 2534   3.525   2.997   0.022 -0.8645 -3.0886 -1.0027
    8MOL     C1 2535   5.677   2.575   4.788  0.7514 -0.1100 -0.4159
    8MOL     C2 2536   5.604   2.676   4.872 -0.3349 -0.2794  0.3091
    8MOL     C3 2537   5.557   2.793   4.779  0.1527 -0.4172  0.4722
    8MOL     C4 2538   5.436   2.886   4.823 -0.0108  0.1375 -0.5375
    8MOL     C5 2539   5.301   2.814   4.806 -0.3020 -0.4942  0.4873
    8MOL     C6 2540   5.451   3.017   4.739  0.4011  0.4237 -0.5703
    8MOL     H7 2541   5.609   2.536   4.713 -0.2813 -0.4394  0.6648
    8MOL     H8 2542   5.762   2.608   4.728  1.7822 -0.7671  0.6408
    8MOL     H9 2543   5.513   2.633   4.914 -0.1830 -2.4956 -1.5427
    8MOL    H10 2544   5.643   2.861   4.783  0.8772 -1.0962 -2.4425
    8MOL    H11 2545   5.554   2.765   4.674 -2.5055  2.7462 -0.3958
    8MOL    H12 2546   5.433   2.914   4.928 -2.7444 -0.1595 -0.5142
    8MOL    H13 2547   5.298   2.708   4.830 -0.8178 -0.7638 -0.6984
    8MOL    H14 2548   5.220   2.866   4.857 -0.4944 -0.1366 -0.1737
    8MOL    H15 2549   5.279   2.814   4.699  1.0474  0.7275  0.2026
    8MOL    H16 2550   5.362   3.079   4.747 -0.8002 -1.2940 -0.3922
    8MOL    H17 2551   5.462   2.986   4.635  0.4975 -0.9930 -0.1550
    8MOL    H18 2552   5.539   3.078   4.758 -0.3222  0.9821  1.0461
    8MOL    H19 2553   5.702   2.493   4.855  0.5651 -1.7165 -2.2637
    8MOL    C20 2554   5.683   2.733   4.989 -0.5445 -0.5390 -0.8113
    8MOL    C21 2555   5.744   2.633   5.095  0.0444  0.1519  0.4515
    8MOL    C22 2556   5.825   2.716   5.195 -0.0195  0.0862 -0.3602
    8MOL    C23 2557   5.944   2.806   5.146 -0.4869 -0.0832 -0.6938
    8MOL    C24 2558   6.028   2.856   5.259  0.3334 -0.4167  0.6454
    8MOL    C25 2559   6.029   2.725   5.039 -0.3652 -0.2381 -0.7188
    8MOL    H26 2560   5.750   2.814   4.960  0.5772 -1.7030 -1.4933
    8MOL    H27 2561   5.606   2.790   5.041  1.2281  0.4899  0.7533
    8MOL    H28 2562   5.803   2.561   5.038 -0.5822 -1.4332  1.7644
    8MOL    H29 2563   5.877   2.655   5.269 -0.5454 -1.2281 -1.0610
    8MOL    H30 2564   5.750   2.783   5.237 -0.7871 -0.7716 -0.3356
    8MOL    H31 2565   5.898   2.894   5.102 -0.9300 -0.2967 -0.6533
    8MOL    H32 2566   5.965   2.899   5.338 -1.5734 -2.7239  0.4233
    8MOL    H33 2567   6.087   2.939   5.220  1.5545 -2.8569 -2.9729
    8MOL    H34 2568   6.094   2.779   5.298 -0.1357 -1.7908 -1.1996
    8MOL    H35 2569   6.058   2.629   5.082  1.2846  0.4886 -0.1844
    8MOL    H36 2570   5.962   2.707   4.955 -1.0122 -2.6389  0.2575
    8MOL    H37 2571   6.112   2.784   4.999  0.8572 -0.4759  1.3877
    8MOL    C38 2572   5.630   2.557   5.157  0.1881 -0.6166  0.5285
    8MOL    C39 2573   5.671   2.438   5.250 -0.3921  0.1683  0.2113
    8MOL    C40 2574   5.728   2.317   5.173  0.1005  0.8263 -0.3989
    8MOL    C41 2575   5.841   2.248   5.251  0.3056 -0.2054  0.6334
    8MOL    C42 2576   5.964   2.337   5.266 -0.0433 -0.4369  0.5623
    8MOL    C43 2577   5.885   2.123   5.175  0.2892  0.5346  0.1647
    8MOL    H44 2578   5.566   2.519   5.077 -0.2143 -1.6840  1.3351
    8MOL    H45 2579   5.560   2.621   5.211  1.2204 -0.0560  1.2300
    8MOL    H46 2580   5.747   2.479   5.317  1.3375  1.1844 -2.2982
    8MOL    H47 2581   5.776   2.349   5.081 -0.6478  1.0139 -0.7254
    8MOL    H48 2582   5.650   2.244   5.152  0.9858 -0.4020  0.4660
    8MOL    H49 2583   5.811   2.203   5.345  0.0359 -0.4432  0.4366
    8MOL    H50 2584   5.999   2.366   5.166  0.5489  0.1684  0.9355
    8MOL    H51 2585   5.946   2.429   5.321  0.3757  0.9630 -1.5591
    8MOL    H52 2586   6.044   2.286   5.320  0.0061 -0.9725 -0.0109
    8MOL    H53 2587   5.971   2.076   5.223  0.5649  0.1398 -0.6978
    8MOL    H54 2588   5.925   2.162   5.081 -2.0211  3.3692  0.2767
    8MOL    H55 2589   5.806   2.055   5.147 -0.4383  1.6959 -0.6316
    8MOL    C56 2590   5.555   2.394   5.344 -0.0043 -0.6563 -0.4726
    8MOL    C57 2591   5.535   2.485   5.469  0.0124 -0.2255  0.2669
    8MOL    C58 2592   5.648   2.473   5.576  0.4181  0.7074 -0.3501
    8MOL    C59 2593   5.672   2.602   5.657 -0.2613 -0.6106 -0.4991
    8MOL    C60 2594   5.719   2.727   5.576 -0.2678  0.4022  0.4506
    8MOL    C61 2595   5.769   2.581   5.767 -1.0055 -0.4967  0.0368
    8MOL    H62 2596   5.561   2.297   5.393 -1.6623 -0.2431  0.5784
    8MOL    H63 2597   5.458   2.409   5.298  0.3813 -1.4890 -1.5791
    8MOL    H64 2598   5.532   2.590   5.441 -1.1207 -0.6884 -1.3915
    8MOL    H65 2599   5.628   2.390   5.644 -0.6170  1.2638  0.0301
    8MOL    H66 2600   5.744   2.436   5.538  0.1280 -0.0574 -0.3448
    8MOL    H67 2601   5.571   2.627   5.691 -0.6031  0.2123 -2.0809
    8MOL    H68 2602   5.809   2.699   5.521 -0.3129 -1.8000  1.4467
    8MOL    H69 2603   5.746   2.813   5.637  4.1561 -1.1553  0.9087
    8MOL    H70 2604   5.648   2.756   5.498 -2.6716 -1.4687  1.8644
    8MOL    H71 2605   5.755   2.485   5.818  0.5074 -1.1766 -0.8257
    8MOL    H72 2606   5.767   2.656   5.846  1.0817  0.0033 -0.3620
    8MOL    H73 2607   5.873   2.593   5.738 -1.7089  2.6552 -1.2977
    8MOL    C74 2608   5.401   2.458   5.537 -0.1676 -0.0209 -0.4033
    8MOL    C75 2609   5.266   2.468   5.446  0.4740 -0.4115  0.6813
    8MOL    C76 2610   5.257   2.608   5.368 -0.1875 -0.3970 -0.3676
    8MOL    C77 2611   5.159   2.625   5.251 -0.0197 -0.0427  0.2339
    8MOL    C78 2612   5.185   2.513   5.141  0.1690  0.2023 -0.0741
    8MOL    C79 2613   5.179   2.775   5.199 -0.2433 -0.4605  0.2677
    8MOL    H80 2614   5.390   2.512   5.631 -0.0415  0.1391 -0.4810
    8MOL    H81 2615   5.419   2.353   5.562  2.7755  0.8590  1.3939
    8MOL    H82 2616   5.268   2.388   5.372 -2.0323  0.6490 -0.5676
    8MOL    H83 2617   5.228   2.680   5.445 -1.3877 -2.0065  0.7056
    8MOL    H84 2618   5.354   2.641   5.330  0.2756 -0.2647  0.8956
    8MOL    H85 2619   5.056   2.616   5.284  0.9847 -0.3351  3.4686
    8MOL    H86 2620   5.126   2.424   5.163 -2.7985  1.6279 -2.0610
    8MOL    H87 2621   5.290   2.484   5.147  0.2403  0.0187 -2.0363
    8MOL    H88 2622   5.163   2.546   5.040 -0.4980 -0.4734 -0.1486
    8MOL    H89 2623   5.117   2.792   5.111 -1.4115  1.6695  1.4524
    8MOL    H90 2624   5.146   2.850   5.271  0.4676  1.8470 -1.7674
    8MOL    H91 2625   5.280   2.796   5.163  0.5191 -3.4902  0.4453
    8MOL    C92 2626   5.140   2.445   5.525  0.6886  0.1089  0.9737
    8MOL    C93 2627   5.114   2.298   5.563 -0.5148 -0.5108 -0.4155
    8MOL    C94 2628   4.995   2.298   5.673  0.0407  0.6929 -0.2822
    8MOL    C95 2629   4.966   2.170   5.748 -0.3651 -0.0224 -0.2291
    8MOL    C96 2630   5.073   2.163   5.861  0.2123  0.3396 -0.4517
    8MOL    C97 2631   4.823   2.181   5.812 -0.1689 -0.5220  0.4856
    8MOL    H98 2632   5.151   2.502   5.617 -0.0136  0.0606  1.0911
    8MOL    H99 2633   5.054   2.479   5.467  1.7030 -2.5131 -2.2401
    8MOL   H100 2634   5.204   2.250   5.601 -0.7301 -0.1385  0.5963
    8MOL   H101 2635   4.906   2.326   5.616 -0.9220 -1.2942  0.2115
    8MOL   H102 2636   5.015   2.384   5.737  1.1795 -0.9940  1.6778
    8MOL   H103 2637   4.965   2.076   5.693 -1.0183  0.8180 -1.6937
    8MOL   H104 2638   5.169   2.130   5.823 -0.3284 -2.1478  0.2957
    8MOL   H105 2639   5.038   2.092   5.936  0.9543 -0.7339 -1.1194
    8MOL   H106 2640   5.079   2.264   5.903 -1.2575  1.1093 -2.0137
    8MOL   H107 2641   4.801   2.109   5.891 -1.9250 -4.5471 -3.5056
    8MOL   H108 2642   4.753   2.171   5.730 -1.5818  0.9480  1.4631
    8MOL   H109 2643   4.814   2.278   5.862 -1.1561  0.9305 -2.4063
    8MOL   C110 2644   5.071   2.215   5.437 -0.2033 -0.3230 -0.2587
    8MOL   C111 2645   5.126   2.070   5.444 -0.0593 -0.4790  0.0572
    8MOL   C112 2646   5.040   1.976   5.361  0.1059  0.2994 -0.1493
    8MOL   C113 2647   4.902   1.942   5.428 -0.5901 -0.2035 -0.0120
    8MOL   C114 2648   4.935   1.826   5.525  0.3335 -0.2465 -0.3744
    8MOL   C115 2649   4.809   1.887   5.318 -0.1155  0.0743  0.2335
    8MOL   H116 2650   5.105   2.268   5.347 -0.1066 -0.4106 -0.2736
    8MOL   H117 2651   4.962   2.216   5.430 -0.4550 -1.7862  2.8743
    8MOL   H118 2652   5.108   2.033   5.545 -0.3290 -3.6930 -1.1357
    8MOL   H119 2653   5.089   1.881   5.341 -1.0022 -1.2108  3.9092
    8MOL   H120 2654   5.039   2.009   5.257 -1.1201 -2.2183 -0.9676
    8MOL   H121 2655   4.866   2.030   5.481 -1.8315 -1.2842  0.9984
    8MOL   H122 2656   4.848   1.802   5.586 -0.4499 -0.1051 -1.4135
    8MOL   H123 2657   5.016   1.853   5.592 -0.9249 -0.0400  1.0840
    8MOL   H124 2658   4.969   1.740   5.467  1.7915  0.9969 -1.4058
    8MOL   H125 2659   4.817   1.961   5.238  1.0343 -0.6851 -0.3734
    8MOL   H126 2660   4.708   1.871   5.356 -0.3707 -1.3453 -1.0036
    8MOL   H127 2661   4.844   1.789   5.287 -3.1784 -1.5818  1.7676
    8MOL   C128 2662   5.273   2.074   5.413  0.0465  0.0667 -0.0398
    8MOL   C129 2663   5.360   1.946   5.439  0.3200 -0.3268  0.0174
    8MOL   C130 2664   5.400   1.932   5.583 -0.4910 -0.2817 -0.1001
    8MOL   C131 2665   5.408   1.794   5.633 -0.4872  0.2982  0.2445
    8MOL   C132 2666   5.474   1.792   5.777  0.1502  0.6492 -0.2348
    8MOL   C133 2667   5.268   1.729   5.642  0.2105 -0.4683  0.3567
    8MOL   H134 2668   5.318   2.165   5.453  0.8662 -1.3558  2.3781
    8MOL   H135 2669   5.284   2.098   5.307 -1.5136 -0.4331 -0.3296
    8MOL   H136 2670   5.293   1.865   5.411  0.6281 -0.2641 -0.9131
    8MOL   H137 2671   5.501   1.973   5.589 -0.6681  0.3395 -1.3019
    8MOL   H138 2672   5.342   1.994   5.652  3.4550  0.7378  2.4703
    8MOL   H139 2673   5.466   1.737   5.560 -0.4534  0.1588  0.3821
    8MOL   H140 2674   5.577   1.825   5.785  0.0275  1.0009 -0.1197
    8MOL   H141 2675   5.463   1.690   5.815  0.9765 -0.6223 -3.2385
    8MOL   H142 2676   5.417   1.864   5.835 -1.0808 -1.6101  1.4571
    8MOL   H143 2677   5.198   1.780   5.709 -2.8474 -1.1187 -2.2490
    8MOL   H144 2678   5.222   1.737   5.544  2.2799 -0.0281 -0.6000
    8MOL   H145 2679   5.266   1.628   5.682 -2.9397 -0.0285  1.4437
    8MOL   C146 2680   5.484   1.948   5.340 -0.2815 -0.1047 -0.1514
    8MOL   C147 2681   5.442   1.873   5.211 -0.0650  0.3127 -0.2982
    8MOL   C148 2682   5.450   1.721   5.230 -0.6845  0.2685  0.2949
    8MOL   C149 2683   5.328   1.636   5.244  0.4527  0.1238  0.5774
    8MOL   C150 2684   5.223   1.663   5.134  0.1721  0.0946 -0.3068
    8MOL   C151 2685   5.360   1.490   5.256 -0.0278 -0.0561 -0.4923
    8MOL   H152 2686   5.572   1.897   5.379 -0.3250  1.2870  1.8075
    8MOL   H153 2687   5.504   2.051   5.310 -0.3434 -0.2692 -0.7672
    8MOL   H154 2688   5.339   1.892   5.184 -0.9766  2.1311  4.1217
    8MOL   H155 2689   5.491   1.679   5.139  0.3684 -1.2814  1.4737
    8MOL   H156 2690   5.538   1.697   5.289 -0.2355 -1.5646 -1.0880
    8MOL   H157 2691   5.287   1.645   5.344 -1.7588 -1.0670 -0.1968
    8MOL   H158 2692   5.155   1.579   5.117 -1.2973  1.6250 -2.2386
    8MOL   H159 2693   5.259   1.685   5.034 -0.7467 -1.4609 -1.0018
    8MOL   H160 2694   5.165   1.755   5.138  0.5214  0.2590  1.4349
    8MOL   H161 2695   5.379   1.451   5.155  2.1295 -2.3234  0.7321
    8MOL   H162 2696   5.284   1.437   5.313  1.9411 -1.9007  0.4792
    8MOL   H163 2697   5.448   1.466   5.315 -1.4704 -0.6127  1.4880
    8MOL   C164 2698   5.538   1.922   5.100  0.4350 -0.3738 -0.6532
    8MOL   C165 2699   5.493   1.895   4.949 -0.3861 -0.4190  0.7849
    8MOL   C166 2700   5.380   1.981   4.906  0.3155  0.1493  0.5689
    8MOL   C167 2701   5.366   2.130   4.937  0.4992 -0.0743  0.1632
    8MOL   C168 2702   5.446   2.220   4.833  0.1002  0.1154  1.1847
    8MOL   C169 2703   5.226   2.167   4.932  0.7005  0.6138 -0.3652
    8MOL   H170 2704   5.559   2.028   5.112  2.0249 -0.7044 -0.4610
    8MOL   H171 2705   5.624   1.861   5.126 -0.1815 -0.0435  2.2612
    8MOL   H172 2706   5.463   1.792   4.931  0.3948 -0.1145 -2.6635
    8MOL   H173 2707   5.359   1.980   4.799  0.6164  1.1849  0.4936
    8MOL   H174 2708   5.293   1.932   4.949 -0.9403  1.3263 -0.6151
    8MOL   H175 2709   5.400   2.166   5.034 -1.6451 -0.5957  1.1155
    8MOL   H176 2710   5.395   2.194   4.740 -0.7272 -1.1994  1.9785
    8MOL   H177 2711   5.554   2.212   4.840  0.0980 -2.0028 -0.6488
    8MOL   H178 2712   5.423   2.324   4.856 -1.2347  0.7709 -2.7534
    8MOL   H179 2713   5.181   2.104   4.855 -0.1085 -0.2288  0.7709
    8MOL   H180 2714   5.211   2.272   4.907  0.1133  0.3480 -1.1409
    8MOL   H181 2715   5.166   2.145   5.020  1.6804 -1.9350 -0.2637
    8MOL   C182 2716   5.613   1.913   4.851  0.3634  0.1830 -0.4396
    8MOL   C183 2717   5.705   1.792   4.838  0.4582 -0.2180 -0.6780
    8MOL   C184 2718   5.642   1.665   4.768 -0.4988 -0.0729 -0.9406
    8MOL   C185 2719   5.581   1.547   4.853  0.2772  0.4181  0.5176
    8MOL   C186 2720   5.525   1.431   4.761 -0.1377  0.0464  0.4839
    8MOL   C187 2721   5.695   1.481   4.941  0.7463  0.3155 -0.2667
    8MOL   H188 2722   5.663   2.006   4.879  0.6205  0.1856 -0.9132
    8MOL   H189 2723   5.577   1.937   4.751  1.3167 -0.3777 -0.9259
    8MOL   H190 2724   5.732   1.777   4.943 -0.1011  2.0048 -0.1999
    8MOL   H191 2725   5.712   1.603   4.711 -0.1007 -1.8990  1.4579
    8MOL   H192 2726   5.572   1.709   4.696  1.4593  0.5034 -2.5270
    8MOL   H193 2727   5.500   1.580   4.918  0.9678  0.1678  1.5177
    8MOL   H194 2728   5.433   1.472   4.719  0.1137 -0.3887 -0.5086
    8MOL   H195 2729   5.486   1.352   4.825  1.8468 -0.0108  1.6641
    8MOL   H196 2730   5.600   1.406   4.686  0.0444  1.9190  0.0196
    8MOL   H197 2731   5.656   1.401   5.004  0.7157  0.9435  0.5152
    8MOL   H198 2732   5.744   1.549   5.010  0.3805  0.2369  0.0724
    8MOL   H199 2733   5.777   1.436   4.885  0.9982  1.0362 -0.4833
    8MOL   C200 2734   5.835   1.826   4.766 -0.2264 -0.3377  0.1073
    8MOL   C201 2735   5.956   1.739   4.819 -0.1990 -0.5352  1.0686
    8MOL   C202 2736   6.015   1.793   4.948 -0.4566 -0.4254 -0.5360
    8MOL   C203 2737   6.118   1.698   5.019  0.5133  0.2877  0.1600
    8MOL   C204 2738   6.166   1.769   5.145 -0.2852 -0.0105 -0.3003
    8MOL   C205 2739   6.055   1.555   5.040 -0.7084 -0.8088 -0.2432
    8MOL   H206 2740   5.857   1.931   4.784 -0.6226 -0.1950 -0.2292
    8MOL   H207 2741   5.813   1.817   4.659  0.9767  1.5308 -0.3125
    8MOL   H208 2742   5.911   1.646   4.852 -0.8265 -0.6861 -0.1952
    8MOL   H209 2743   6.062   1.890   4.934 -1.1026  0.1880  1.3821
    8MOL   H210 2744   5.929   1.809   5.013  0.4069  0.2119  0.4465
    8MOL   H211 2745   6.205   1.682   4.955 -0.0136 -0.6035 -0.3414
    8MOL   H212 2746   6.275   1.769   5.152 -0.2637  0.4522 -0.6323
    8MOL   H213 2747   6.115   1.724   5.230  0.4380  0.8705  0.5917
    8MOL   H214 2748   6.141   1.874   5.156 -2.6537 -0.5151 -0.5605
    8MOL   H215 2749   6.129   1.504   5.100 -1.6286 -1.0054  0.7476
    8MOL   H216 2750   6.048   1.496   4.949 -0.0536  0.9140 -1.4359
    8MOL   H217 2751   5.949   1.564   5.064 -0.9640  0.0679 -1.6196
    8MOL   C218 2752   6.074   1.713   4.707  0.1306  0.0345 -0.2227
    8MOL   C219 2753   6.030   1.619   4.592 -0.7114  0.6794 -0.1592
    8MOL   C220 2754   6.007   1.474   4.643 -0.0664 -0.2062 -0.0144
    8MOL   C221 2755   5.956   1.359   4.562 -0.0346 -0.4913 -0.4338
    8MOL   C222 2756   5.903   1.240   4.652  0.3164  0.1838  0.3321
    8MOL   C223 2757   5.853   1.404   4.460  1.0455 -0.2137  0.1911
    8MOL   H224 2758   6.101   1.809   4.662  0.4250 -0.5240 -1.2406
    8MOL   H225 2759   6.168   1.677   4.749 -0.7565 -2.4368 -0.2779
    8MOL   H226 2760   5.938   1.665   4.557 -1.2911  0.0751  0.5753
    8MOL   H227 2761   6.098   1.443   4.694 -0.0512  0.0958  0.1424
    8MOL   H228 2762   5.935   1.504   4.719  0.1879  1.7056 -0.5146
    8MOL   H229 2763   6.046   1.330   4.507 -1.4521 -2.5474 -1.7575
    8MOL   H230 2764   5.815   1.270   4.709  0.4342 -2.7981  2.1937
    8MOL   H231 2765   5.854   1.154   4.609 -0.5343 -0.1407  1.8931
    8MOL   H232 2766   5.979   1.216   4.727 -1.4660  0.1921  2.1966
    8MOL   H233 2767   5.811   1.327   4.395 -0.5913  0.9574 -0.1728
    8MOL   H234 2768   5.773   1.458   4.511 -0.9010 -0.8095 -2.1388
    8MOL   H235 2769   5.894   1.475   4.388  1.3618 -0.0787  0.5054
    8MOL   C236 2770   6.134   1.622   4.477 -0.1728  0.0214 -0.1698
    8MOL   C237 2771   6.148   1.755   4.393 -0.5860 -0.0019  0.3580
    8MOL   C238 2772   6.027   1.777   4.299  0.1504  1.0509  0.6506
    8MOL   C239 2773   6.008   1.919   4.243  0.0453 -0.3148 -0.5975
    8MOL   C240 2774   5.981   1.904   4.087 -0.4450  0.6207 -0.3694
    8MOL   C241 2775   5.893   1.993   4.311  0.0851 -0.4377 -0.4918
    8MOL   H242 2776   6.103   1.546   4.405 -1.5894 -0.9919  1.4724
    8MOL   H243 2777   6.224   1.587   4.529  0.6053  2.1390 -0.0496
    8MOL   H244 2778   6.153   1.828   4.474  2.5725 -2.1232  2.1905
    8MOL   H245 2779   5.929   1.747   4.338  0.9576 -1.4201  0.8763
    8MOL   H246 2780   6.036   1.698   4.225  0.6124  0.1542  1.6559
    8MOL   H247 2781   6.102   1.965   4.271 -0.7398  1.8431 -1.4539
    8MOL   H248 2782   5.885   1.854   4.075  0.3445 -1.0631  0.0349
    8MOL   H249 2783   6.068   1.856   4.044  0.0998 -0.0295  1.4091
    8MOL   H250 2784   5.959   1.994   4.030 -1.2919 -0.1108 -1.1997
    8MOL   H251 2785   5.805   1.930   4.322 -1.1250  1.7115  2.7394
    8MOL   H252 2786   5.849   2.080   4.263 -0.6037 -0.3413  0.3047
    8MOL   H253 2787   5.919   2.013   4.415 -1.3690  0.9111 -0.3821
    8MOL   C254 2788   6.277   1.769   4.323  0.2443  0.1894  0.9756
    8MOL   C255 2789   6.391   1.792   4.419  0.0327  0.0421 -0.2400
    8MOL   C256 2790   6.527   1.737   4.350  0.1207 -0.0434 -0.1364
    8MOL   C257 2791   6.632   1.673   4.451 -0.5682  0.1342  0.3350
    8MOL   C258 2792   6.771   1.655   4.380  0.0628 -0.5977  0.3978
    8MOL   C259 2793   6.584   1.539   4.510  0.0086 -0.3076 -0.1518
    8MOL   H260 2794   6.293   1.674   4.271  0.8331 -1.3245  3.8523
    8MOL   H261 2795   6.278   1.838   4.239 -0.6886 -2.0538 -0.9364
    8MOL   H262 2796   6.378   1.728   4.507 -1.3435 -0.1283 -0.5615
    8MOL   H263 2797   6.564   1.818   4.287 -1.5442  1.5574  0.9208
    8MOL   H264 2798   6.514   1.662   4.272 -1.3453 -0.5109  0.5549
    8MOL   H265 2799   6.658   1.746   4.528  0.3904  0.5623 -0.4015
    8MOL   H266 2800   6.771   1.582   4.300  0.3125 -0.1626  0.0010
    8MOL   H267 2801   6.841   1.610   4.450  1.8285 -1.6843 -2.0408
    8MOL   H268 2802   6.821   1.747   4.349  0.6996 -1.6754 -1.8710
    8MOL   H269 2803   6.639   1.454   4.470  1.0358  0.1432  0.2627
    8MOL   H270 2804   6.602   1.539   4.617 -1.7654  0.6347  0.1688
    8MOL   H271 2805   6.478   1.519   4.498 -0.3791  1.2092  0.6065
    8MOL   C272 2806   6.400   1.946   4.451 -0.3396  0.7740  0.5590
    8MOL   C273 2807   6.488   1.969   4.576 -0.7410  0.3438  0.4259
    8MOL   C274 2808   6.542   2.108   4.584  0.1447 -0.5953  0.5610
    8MOL   C275 2809   6.669   2.139   4.511 -0.0943 -0.0549  0.4304
    8MOL   C276 2810   6.789   2.125   4.610  0.9645 -0.5360 -0.2318
    8MOL   C277 2811   6.671   2.289   4.459  0.3285 -0.7908 -0.2235
    8MOL   H278 2812   6.441   2.004   4.368  0.0838 -1.1120 -0.5892
    8MOL   H279 2813   6.299   1.983   4.468 -0.2856  0.7023  1.0302
    8MOL   H280 2814   6.580   1.911   4.581 -1.8009 -1.3222  0.8183
    8MOL   H281 2815   6.539   2.158   4.680  2.0107  1.3366 -0.3505
    8MOL   H282 2816   6.466   2.169   4.535 -0.3463  0.6269  2.7861
    8MOL   H283 2817   6.678   2.070   4.427  0.6251  0.0940  0.3763
    8MOL   H284 2818   6.816   2.020   4.626 -0.8421 -1.5858 -3.5475
    8MOL   H285 2819   6.866   2.179   4.555 -0.8486  2.3405 -0.0313
    8MOL   H286 2820   6.788   2.165   4.711  0.2371  1.0146 -0.8520
    8MOL   H287 2821   6.602   2.309   4.377 -0.4058 -0.7665  0.3835
    8MOL   H288 2822   6.636   2.365   4.530 -1.3882 -0.2780 -1.5753
    8MOL   H289 2823   6.767   2.313   4.414 -0.4167  1.8692 -0.4742
    8MOL   C290 2824   6.407   1.936   4.703  0.5141 -0.6790  0.7435
    8MOL   C291 2825   6.484   1.926   4.838  0.6976  0.0208  0.6009
    8MOL   C292 2826   6.401   1.973   4.949  0.0598  0.4984  0.5067
    8MOL   C293 2827   6.386   2.126   4.956  0.3190  0.8859 -0.6043
    8MOL   C294 2828   6.269   2.156   5.058  0.2737 -0.3579  0.0368
    8MOL   C295 2829   6.516   2.192   4.999  0.0363  0.0645 -0.1112
    8MOL   H296 2830   6.341   2.023   4.712  1.6659  0.1962  0.8225
    8MOL   H297 2831   6.361   1.838   4.690 -0.5059 -0.3300  1.6941
    8MOL   H298 2832   6.578   1.979   4.824  0.2999  0.0816 -2.0160
    8MOL   H299 2833   6.447   1.943   5.043  1.6179 -0.1618 -0.4377
    8MOL   H300 2834   6.303   1.926   4.944 -0.0462  0.8812 -1.2711
    8MOL   H301 2835   6.356   2.161   4.857  1.9570 -0.1412 -1.4913
    8MOL   H302 2836   6.319   2.123   5.149  0.3100 -1.1342 -0.2592
    8MOL   H303 2837   6.174   2.106   5.037  1.0779 -2.0403  0.3550
    8MOL   H304 2838   6.252   2.264   5.056 -0.7506 -0.5174 -0.2114
    8MOL   H305 2839   6.485   2.291   5.033 -0.0170 -0.2426  0.7400
    8MOL   H306 2840   6.589   2.208   4.920  0.4825  1.5216  0.5812
    8MOL   H307 2841   6.569   2.143   5.080 -1.3039  0.6590  1.1531
    8MOL   C308 2842   6.526   1.779   4.846  0.0158  0.3324  0.2636
    8MOL   C309 2843   6.648   1.760   4.944 -0.1556 -0.6291 -0.3256
    8MOL   C310 2844   6.643   1.617   5.001 -0.2210  0.1852  0.0464
    8MOL   C311 2845   6.555   1.608   5.134  1.1047  0.1518 -0.3709
    8MOL   C312 2846   6.486   1.466   5.159 -0.0081  0.2159  0.0208
    8MOL   C313 2847   6.639   1.652   5.257 -0.3457  0.4644 -0.0849
    8MOL   H314 2848   6.444   1.711   4.871  2.0014 -2.1882  0.1348
    8MOL   H315 2849   6.565   1.753   4.748 -1.9760  0.3611 -0.5561
    8MOL   H316 2850   6.646   1.835   5.023  0.0303 -0.8017 -0.1592
    8MOL   H317 2851   6.743   1.580   5.020 -0.8753 -0.6006  2.0773
    8MOL   H318 2852   6.605   1.546   4.927  1.1499  1.0461 -1.5074
    8MOL   H319 2853   6.482   1.688   5.138  0.7611 -0.2420  1.7478
    8MOL   H320 2854   6.444   1.427   5.066  1.2855 -1.1571 -0.0184
    8MOL   H321 2855   6.413   1.471   5.239 -0.3665 -0.4674 -0.2587
    8MOL   H322 2856   6.557   1.387   5.187  0.3440  1.3363  2.3782
    8MOL   H323 2857   6.584   1.621   5.347 -2.2101  2.0706 -0.6278
    8MOL   H324 2858   6.728   1.589   5.261  0.0877  0.9303 -2.0982
    8MOL   H325 2859   6.668   1.756   5.268 -0.5612  0.4879  0.2749
    8MOL   C326 2860   6.783   1.793   4.876  0.5077  0.0580 -0.0214
    8MOL   C327 2861   6.891   1.814   4.982 -0.9457 -0.6318 -0.3831
    8MOL   C328 2862   6.884   1.968   5.015  0.2519  0.0936  0.7429
    8MOL   C329 2863   6.957   2.017   5.137 -0.1134 -0.6914  0.0989
    8MOL   C330 2864   6.953   2.170   5.135 -0.2269  0.2062 -0.0127
    8MOL   C331 2865   6.878   1.984   5.270 -0.2683  0.3699 -0.1048
    8MOL   H332 2866   6.782   1.874   4.804  0.1989 -0.8937 -1.1042
    8MOL   H333 2867   6.812   1.709   4.812 -0.8517 -0.5401  0.1440
    8MOL   H334 2868   6.872   1.762   5.075  1.2410  1.1845  1.1437
    8MOL   H335 2869   6.917   2.026   4.928  0.0770  1.8047  1.7928
    8MOL   H336 2870   6.780   1.998   5.020 -0.0565 -0.7823 -0.2909
    8MOL   H337 2871   7.055   1.970   5.150  0.6529  0.4468 -1.4295
    8MOL   H338 2872   7.025   2.213   5.206 -0.9666  1.8873 -0.2640
    8MOL   H339 2873   6.853   2.211   5.145 -1.5346 -2.6505 -0.9092
    8MOL   H340 2874   6.991   2.219   5.045 -0.0911  0.2742  0.0802
    8MOL   H341 2875   6.858   1.878   5.281 -3.3055  0.8983 -0.0801
    8MOL   H342 2876   6.913   2.037   5.359 -0.2838  0.4874 -0.1675
    8MOL   H343 2877   6.781   2.032   5.259  0.8407  3.0761  1.3645
    8MOL   C344 2878   7.026   1.770   4.924  0.4108 -1.0646  0.2548
    8MOL   C345 2879   7.059   1.617   4.942  0.1854 -0.2009  0.0241
    8MOL   C346 2880   7.208   1.566   4.909  0.0689  0.2625 -0.1890
    8MOL   C347 2881   7.252   1.579   4.760  0.3039 -0.0393 -0.9144
    8MOL   C348 2882   7.162   1.508   4.648  0.0967  0.1320 -0.0879
    8MOL   C349 2883   7.393   1.530   4.745 -0.2050  0.0299  0.0499
    8MOL   H350 2884   7.099   1.843   4.958 -1.0446  0.6974 -0.3011
    8MOL   H351 2885   7.017   1.795   4.818  1.0501  0.6081  0.5883
    8MOL   H352 2886   6.992   1.566   4.872  0.2943  0.0475 -0.2607
    8MOL   H353 2887   7.280   1.622   4.969  0.6497  0.8146 -1.3871
    8MOL   H354 2888   7.221   1.466   4.952 -0.5593  0.1152 -0.3430
    8MOL   H355 2889   7.251   1.685   4.735  3.1660  0.0859 -0.6222
    8MOL   H356 2890   7.203   1.523   4.549 -0.3974  0.0888 -0.2996
    8MOL   H357 2891   7.140   1.404   4.672 -2.8303  0.8347  0.3936
    8MOL   H358 2892   7.063   1.553   4.647  0.4575  0.9150 -1.8905
    8MOL   H359 2893   7.402   1.422   4.760 -2.3176 -0.2504 -0.5115
    8MOL   H360 2894   7.468   1.568   4.813  1.2232 -2.4119 -0.0798
    8MOL   H361 2895   7.429   1.549   4.643  0.4150  0.8401  0.4165
    8MOL   H362 2896   7.026   1.579   5.039 -0.4389  0.9673  0.2858
    9MOL     C1 2897   0.194   6.303   6.085  0.0659  0.0052 -1.0278
    9MOL     C2 2898   0.110   6.195   6.016 -0.2059  0.7134  0.6446
    9MOL     C3 2899   0.063   6.235   5.877 -0.2580 -0.3645  0.0254
    9MOL     C4 2900   0.176   6.225   5.770  0.2255 -0.8601  0.1817
    9MOL     C5 2901   0.132   6.291   5.636  0.2972  0.1917  0.1136
    9MOL     C6 2902   0.215   6.078   5.743  0.2563  0.0818  0.2907
    9MOL     H7 2903   0.281   6.320   6.023  1.4809  0.9843  1.1689
    9MOL     H8 2904   0.144   6.398   6.105 -1.6789 -0.6999 -1.9198
    9MOL     H9 2905   0.163   6.101   6.003  0.1653  1.0213 -0.0703
    9MOL    H10 2906   7.728   6.180   5.842 -0.9403  0.5385  0.3025
    9MOL    H11 2907   0.034   6.339   5.886 -2.0145 -0.9432  1.3499
    9MOL    H12 2908   0.272   6.269   5.797  0.2449 -1.1395  0.5769
    9MOL    H13 2909   0.035   6.246   5.612  0.7995 -0.2045 -1.2352
    9MOL    H14 2910   0.135   6.400   5.635 -0.3684  0.2244  1.2257
    9MOL    H15 2911   0.200   6.247   5.563 -0.2724 -0.3860 -0.0749
    9MOL    H16 2912   0.293   6.069   5.667  0.2046 -2.6768  0.5057
    9MOL    H17 2913   0.127   6.023   5.709 -1.1657  1.2146  2.0202
    9MOL    H18 2914   0.254   6.022   5.829 -0.2780 -0.7252  0.0102
    9MOL    H19 2915   0.217   6.257   6.181  0.7749 -0.6177 -1.4912
    9MOL    C20 2916   7.732   6.169   6.100  0.3034  0.5988  0.5139
    9MOL    C21 2917   7.659   6.035   6.080  0.6198  0.4225 -0.2714
    9MOL    C22 2918   7.749   5.922   6.131 -0.0787 -0.4937  0.3498
    9MOL    C23 2919   7.714   5.787   6.066 -0.2543  0.2549 -0.1668
    9MOL    C24 2920   0.048   5.744   5.946  0.1635 -0.5671  0.2140
    9MOL    C25 2921   7.686   5.669   6.168  0.0693 -0.0862 -0.2438
    9MOL    H26 2922   0.014   6.173   6.204  1.3014  0.1497  0.2087
    9MOL    H27 2923   7.665   6.253   6.081  0.1771 -0.1240 -2.4483
    9MOL    H28 2924   7.653   6.023   5.972  0.9717  0.1667 -0.2631
    9MOL    H29 2925   7.741   5.914   6.239  1.3830 -2.8693  0.3217
    9MOL    H30 2926   0.098   5.951   6.105 -0.4181  0.8925  0.5017
    9MOL    H31 2927   7.620   5.803   6.012 -0.0976 -1.5624 -1.0191
    9MOL    H32 2928   0.063   5.830   5.881 -1.8254 -0.8039 -0.5651
    9MOL    H33 2929   0.004   5.670   5.880 -0.6337  0.4167 -0.3657
    9MOL    H34 2930   0.146   5.715   5.986  0.0107  0.1057  1.0923
    9MOL    H35 2931   7.667   5.571   6.125 -0.1056  0.2903 -1.0170
    9MOL    H36 2932   0.009   5.664   6.247 -1.2792 -1.3224  0.9919
    9MOL    H37 2933   7.595   5.688   6.226  1.0112  0.0768  1.2007
    9MOL    C38 2934   7.515   6.029   6.150 -0.3046  0.1293  0.3846
    9MOL    C39 2935   7.397   6.075   6.058  0.3089 -0.5104 -0.3212
    9MOL    C40 2936   7.355   5.961   5.959  0.0414 -0.6256  0.3977
    9MOL    C41 2937   7.317   5.827   6.005  1.2362 -1.0368  0.1272
    9MOL    C42 2938   7.306   5.730   5.887  0.0941  0.3667 -1.1440
    9MOL    C43 2939   7.192   5.830   6.095 -0.4664  0.1235 -0.3208
    9MOL    H44 2940   7.519   6.096   6.236  1.4557  1.6672 -0.8492
    9MOL    H45 2941   7.498   5.938   6.207 -0.5804  0.3238  0.6191
    9MOL    H46 2942   7.317   6.089   6.131  0.9062  1.4584 -0.0169
    9MOL    H47 2943   7.440   5.938   5.895 -0.7344 -3.5712  0.3511
    9MOL    H48 2944   7.280   5.996   5.888  1.7832  0.1032 -1.1475
    9MOL    H49 2945   7.402   5.790   6.063  1.9567  3.1756  1.9585
    9MOL    H50 2946   7.394   5.735   5.823  0.1386  2.8009 -0.9532
    9MOL    H51 2947   7.292   5.632   5.932  0.6973  0.9841  0.4386
    9MOL    H52 2948   7.216   5.734   5.825  0.0627  0.0778 -1.1157
    9MOL    H53 2949   7.162   5.726   6.108 -0.7189  0.5075  2.4178
    9MOL    H54 2950   7.109   5.876   6.042  0.3849  1.4672 -0.5034
    9MOL    H55 2951   7.221   5.886   6.184  0.7607  2.5212 -2.1953
    9MOL    C56 2952   7.409   6.202   5.971 -0.1436 -0.4366 -0.1285
    9MOL    C57 2953   7.292   6.258   5.882  0.0046  0.4548 -0.0201
    9MOL    C58 2954   7.344   6.401   5.848 -0.7955  0.1474  0.0086
    9MOL    C59 2955   7.457   6.406   5.745 -0.2619 -0.0192  0.1469
    9MOL    C60 2956   7.548   6.528   5.770  0.4613 -0.2346  0.1703
    9MOL    C61 2957   7.398   6.400   5.610  0.6371 -0.2844  0.2913
    9MOL    H62 2958   7.492   6.181   5.904  0.5411 -2.2545  1.2407
    9MOL    H63 2959   7.421   6.276   6.050  0.6430  0.7332 -1.3360
    9MOL    H64 2960   7.282   6.198   5.792  1.6091  1.0855 -0.6211
    9MOL    H65 2961   7.266   6.464   5.806  0.8833  1.0268 -1.8551
    9MOL    H66 2962   7.378   6.454   5.937  1.4762 -1.5011  0.1619
    9MOL    H67 2963   7.532   6.327   5.748  0.6771  0.8811  0.6038
    9MOL    H68 2964   7.499   6.623   5.748  0.9632  0.5898  2.4962
    9MOL    H69 2965   7.630   6.526   5.698 -0.8015 -0.4127 -1.3140
    9MOL    H70 2966   7.595   6.534   5.868 -2.4331  2.5906  1.4754
    9MOL    H71 2967   7.336   6.489   5.595  1.2192 -0.1525 -1.4157
    9MOL    H72 2968   7.330   6.316   5.597 -1.0974  1.3342 -1.4845
    9MOL    H73 2969   7.475   6.402   5.534  0.4010 -1.0418  0.0294
    9MOL    C74 2970   7.155   6.257   5.964 -0.7555 -0.5559 -0.4527
    9MOL    C75 2971   7.025   6.293   5.886 -0.4357 -0.5643  0.0581
    9MOL    C76 2972   7.014   6.213   5.752 -0.0653  0.0612  0.0115
    9MOL    C77 2973   7.015   6.058   5.765  1.3224  0.5776  1.0920
    9MOL    C78 2974   7.046   5.976   5.635 -0.1035 -0.8224  0.3338
    9MOL    C79 2975   6.879   6.006   5.813  0.1560 -0.1744 -0.0430
    9MOL    H80 2976   7.161   6.321   6.052 -1.5748 -0.7727 -0.2300
    9MOL    H81 2977   7.133   6.160   6.010 -1.1814  0.3385  1.2716
    9MOL    H82 2978   6.951   6.256   5.957 -1.0303  1.2055  0.3897
    9MOL    H83 2979   6.921   6.226   5.697 -0.8697  0.7424  1.5146
    9MOL    H84 2980   7.098   6.241   5.689  0.6222 -2.4808 -0.2594
    9MOL    H85 2981   7.086   6.018   5.838  2.2580  0.1205 -0.0483
    9MOL    H86 2982   6.962   5.976   5.566  1.8474  1.2884 -2.1284
    9MOL    H87 2983   7.078   5.874   5.658  0.0368 -1.4973 -2.7013
    9MOL    H88 2984   7.135   6.023   5.594  0.0294  0.4207  1.9691
    9MOL    H89 2985   6.887   5.906   5.854  0.0083 -0.6624 -1.1953
    9MOL    H90 2986   6.836   6.068   5.891  1.6376  2.0209 -0.8906
    9MOL    H91 2987   6.800   5.996   5.738 -2.2385 -0.7231  2.5076
    9MOL    C92 2988   6.994   6.440   5.875  0.0582  0.5460 -0.0147
    9MOL    C93 2989   6.876   6.499   5.959 -0.4447  0.0528 -0.0984
    9MOL    C94 2990   6.868   6.651   5.948 -0.4345  0.3950  1.1410
    9MOL    C95 2991   6.955   6.733   6.045  0.1664 -0.2601  0.5549
    9MOL    C96 2992   7.107   6.728   6.020  0.1946 -0.6164 -0.2472
    9MOL    C97 2993   6.907   6.879   6.048  0.1626 -0.5736  0.0377
    9MOL    H98 2994   7.084   6.490   5.910 -0.2227  1.9705 -1.2911
    9MOL    H99 2995   6.984   6.449   5.767 -1.5260 -0.7118  0.0167
    9MOL   H100 2996   6.892   6.478   6.064  2.2662  0.0517 -0.4783
    9MOL   H101 2997   6.765   6.684   5.965 -0.7280 -1.6707  3.6367
    9MOL   H102 2998   6.894   6.691   5.850 -0.0443  0.4764  1.2748
    9MOL   H103 2999   6.931   6.695   6.144 -1.5934  1.3126  0.7600
    9MOL   H104 3000   7.150   6.639   6.064 -0.4603 -1.4640 -1.2800
    9MOL   H105 3001   7.159   6.818   6.051  0.1703 -0.5861 -0.2936
    9MOL   H106 3002   7.129   6.716   5.914 -1.9216  2.5336 -1.1293
    9MOL   H107 3003   6.817   6.897   6.106 -0.4697  1.4513 -1.5078
    9MOL   H108 3004   6.891   6.923   5.950 -0.2353  1.4896  1.0131
    9MOL   H109 3005   6.987   6.931   6.100 -0.8444  0.1407  0.8886
    9MOL   C110 3006   6.734   6.440   5.914 -0.3326  0.1666  0.1043
    9MOL   C111 3007   6.614   6.415   6.010 -0.7241  0.3086 -0.0326
    9MOL   C112 3008   6.491   6.356   5.933 -0.1538 -0.2874  0.3594
    9MOL   C113 3009   6.424   6.453   5.839  0.4117  0.5862 -0.4704
    9MOL   C114 3010   6.343   6.549   5.918 -0.2761  0.0280  0.0944
    9MOL   C115 3011   6.334   6.375   5.746 -0.0619 -0.1154 -0.3172
    9MOL   H116 3012   6.755   6.345   5.864 -0.8910  0.7186 -1.1964
    9MOL   H117 3013   6.695   6.498   5.831 -0.1725 -1.1081 -0.8819
    9MOL   H118 3014   6.592   6.511   6.058  0.6262  0.4659  0.3031
    9MOL   H119 3015   6.423   6.321   6.010  0.6617 -1.6457  0.4674
    9MOL   H120 3016   6.525   6.264   5.887  1.5442 -0.4690  1.9372
    9MOL   H121 3017   6.497   6.508   5.780 -0.5052  0.5759 -1.6276
    9MOL   H122 3018   6.280   6.496   5.989 -1.1465 -2.4568 -2.4249
    9MOL   H123 3019   6.288   6.613   5.850  0.0483  0.9100  0.6516
    9MOL   H124 3020   6.410   6.612   5.976  2.8054 -3.8731  0.9698
    9MOL   H125 3021   6.381   6.295   5.688  1.0048 -0.3724  0.8736
    9MOL   H126 3022   6.290   6.443   5.673 -1.2738 -1.8041 -1.2004
    9MOL   H127 3023   6.256   6.322   5.802 -0.3365 -0.1886 -0.7634
    9MOL   C128 3024   6.657   6.321   6.125 -0.5782 -0.1869  1.0349
    9MOL   C129 3025   6.631   6.363   6.271 -0.8713 -0.5125 -0.3407
    9MOL   C130 3026   6.664   6.505   6.308  0.6349 -0.4081 -0.0710
    9MOL   C131 3027   6.543   6.603   6.306  0.7349 -0.0214 -0.0122
    9MOL   C132 3028   6.442   6.592   6.431 -0.5174 -0.4149  0.5562
    9MOL   C133 3029   6.597   6.741   6.281  0.3824  0.6467  0.0051
    9MOL   H134 3030   6.763   6.303   6.109 -0.5112  0.9522  0.1691
    9MOL   H135 3031   6.614   6.223   6.105 -1.3358  0.6409 -1.6015
    9MOL   H136 3032   6.523   6.354   6.274 -0.8646 -2.2300 -3.6623
    9MOL   H137 3033   6.708   6.523   6.406  0.0916  2.2379 -0.2867
    9MOL   H138 3034   6.744   6.533   6.239  0.1091 -1.7554 -1.2539
    9MOL   H139 3035   6.480   6.581   6.219 -0.1588  0.3009  0.5406
    9MOL   H140 3036   6.409   6.488   6.441  1.4701 -1.2828 -1.5977
    9MOL   H141 3037   6.356   6.658   6.417  0.0019  0.0190 -0.5951
    9MOL   H142 3038   6.492   6.613   6.525  2.1655 -0.7086 -0.7592
    9MOL   H143 3039   6.527   6.824   6.276  1.2511  1.4506  0.9865
    9MOL   H144 3040   6.665   6.754   6.365 -1.0822 -1.2704  1.5452
    9MOL   H145 3041   6.663   6.741   6.195  0.3651 -0.1752 -0.0145
    9MOL   C146 3042   6.702   6.268   6.367  0.0235  0.0520 -0.4750
    9MOL   C147 3043   6.659   6.258   6.518 -0.2674  0.1818 -0.5969
    9MOL   C148 3044   6.765   6.308   6.622  0.0616  0.2846 -0.2013
    9MOL   C149 3045   6.706   6.323   6.768  0.0818  0.7222 -0.5159
    9MOL   C150 3046   6.829   6.343   6.859  0.2194 -0.0267  0.3856
    9MOL   C151 3047   6.605   6.430   6.795 -0.2596 -0.4126 -0.0738
    9MOL   H152 3048   6.810   6.284   6.360  0.0017  0.2284 -0.4264
    9MOL   H153 3049   6.693   6.171   6.319  1.8217 -1.1522  1.5072
    9MOL   H154 3050   6.579   6.327   6.546 -1.6727 -2.6288  2.7485
    9MOL   H155 3051   6.839   6.229   6.624  0.6453  0.8151 -0.9036
    9MOL   H156 3052   6.810   6.395   6.575  1.7744 -1.8041 -2.5085
    9MOL   H157 3053   6.669   6.226   6.803 -2.4811  1.8418 -0.0512
    9MOL   H158 3054   6.807   6.353   6.965  0.3453 -3.4736  0.7948
    9MOL   H159 3055   6.870   6.439   6.828  0.7974 -0.4736 -0.2709
    9MOL   H160 3056   6.903   6.265   6.840 -0.5934 -0.6603 -0.2464
    9MOL   H161 3057   6.514   6.418   6.737 -0.2992  3.1389 -0.8716
    9MOL   H162 3058   6.652   6.526   6.773 -3.3305  0.8861 -1.2754
    9MOL   H163 3059   6.564   6.433   6.896  0.5772  0.7174  0.2387
    9MOL   C164 3060   6.600   6.115   6.543  0.0434 -1.1353  0.7637
    9MOL   C165 3061   6.479   6.062   6.454 -0.6595 -0.1211  0.0050
    9MOL   C166 3062   6.459   5.907   6.476  0.6178  0.2125  0.1819
    9MOL   C167 3063   6.415   5.842   6.608  0.1802 -0.2694  0.4657
    9MOL   C168 3064   6.309   5.733   6.593 -0.2038  1.3779  0.1709
    9MOL   C169 3065   6.544   5.790   6.676  0.3013  0.2505  0.1921
    9MOL   H170 3066   6.684   6.046   6.537  1.5780  0.5739  2.1502
    9MOL   H171 3067   6.561   6.101   6.645  0.0263  1.4677  1.1471
    9MOL   H172 3068   6.512   6.071   6.350 -0.4095  2.6686  0.2889
    9MOL   H173 3069   6.377   5.890   6.406  0.8537  0.8995 -0.2623
    9MOL   H174 3070   6.537   5.845   6.432  1.2981  1.0562  0.2122
    9MOL   H175 3071   6.384   5.925   6.671  0.3378  0.7403 -0.7475
    9MOL   H176 3072   6.222   5.770   6.539  0.2197  2.8862  0.5021
    9MOL   H177 3073   6.263   5.685   6.679  1.3486 -1.4664 -0.5307
    9MOL   H178 3074   6.351   5.655   6.530 -2.0644  0.5854 -0.1101
    9MOL   H179 3075   6.511   5.732   6.762  0.2479 -2.0743 -1.3254
    9MOL   H180 3076   6.602   5.873   6.715  1.0756  0.6407 -1.7248
    9MOL   H181 3077   6.599   5.721   6.610  0.3618  1.0736 -0.6312
    9MOL   C182 3078   6.350   6.147   6.480  0.0976  0.1671  0.5874
    9MOL   C183 3079   6.231   6.124   6.384 -0.2731  0.0380 -0.2895
    9MOL   C184 3080   6.104   6.206   6.426  0.1669  0.0822  0.0702
    9MOL   C185 3081   6.008   6.142   6.532  0.0675 -0.0269 -0.1012
    9MOL   C186 3082   5.892   6.241   6.548 -0.5028  0.1929  0.4845
    9MOL   C187 3083   5.953   5.993   6.518  0.3012 -0.0816 -0.0062
    9MOL   H188 3084   6.368   6.255   6.480  1.8074 -0.0708 -1.5327
    9MOL   H189 3085   6.315   6.134   6.582  2.5697  1.8441  1.6921
    9MOL   H190 3086   6.206   6.018   6.382  0.1868 -0.0666 -0.9514
    9MOL   H191 3087   6.041   6.207   6.337  0.8290  0.7386 -0.4024
    9MOL   H192 3088   6.142   6.305   6.451  0.3798  0.4917 -1.8094
    9MOL   H193 3089   6.055   6.133   6.630 -2.1804  1.2397  1.1461
    9MOL   H194 3090   5.926   6.335   6.592  0.7188  0.8070 -1.6727
    9MOL   H195 3091   5.822   6.199   6.620 -1.3268  0.3907 -0.1982
    9MOL   H196 3092   5.840   6.257   6.454 -1.1120  2.4107  1.1739
    9MOL   H197 3093   6.043   5.933   6.515  1.0372  1.0474 -0.5362
    9MOL   H198 3094   5.886   5.979   6.433  1.3110 -0.5333 -0.7258
    9MOL   H199 3095   5.893   5.959   6.603 -1.5798  2.6768 -0.1302
    9MOL   C200 3096   6.273   6.150   6.238 -0.4459 -0.8960  1.2539
    9MOL   C201 3097   6.275   6.029   6.147 -0.0733 -0.9027  0.4059
    9MOL   C202 3098   6.353   6.071   6.024  0.0510  0.5946  0.2206
    9MOL   C203 3099   6.392   5.954   5.929  0.6186  0.6045 -0.0898
    9MOL   C204 3100   6.456   6.007   5.797 -0.5282 -0.3314 -0.6587
    9MOL   C205 3101   6.492   5.853   5.984  0.0885 -0.1000 -0.6838
    9MOL   H206 3102   6.378   6.180   6.243 -0.5479  0.1673 -1.7939
    9MOL   H207 3103   6.237   6.238   6.184  0.0390 -1.6765 -0.3897
    9MOL   H208 3104   6.328   5.950   6.199 -3.3741 -2.6396  1.2952
    9MOL   H209 3105   6.297   6.156   5.986  0.9026  1.8682  1.7636
    9MOL   H210 3106   6.449   6.113   6.052 -0.2588  0.1455  2.0207
    9MOL   H211 3107   6.305   5.896   5.899  1.2571 -0.6540  0.4656
    9MOL   H212 3108   6.400   6.092   5.759 -0.2562  0.5160  0.7801
    9MOL   H213 3109   6.463   5.934   5.716  0.9859  0.5113 -1.2898
    9MOL   H214 3110   6.557   6.039   5.821 -0.0885 -0.9056 -1.7493
    9MOL   H215 3111   6.595   5.877   5.958 -0.2039  1.2511 -0.6205
    9MOL   H216 3112   6.469   5.755   5.943  1.4221 -0.0548 -1.5900
    9MOL   H217 3113   6.489   5.841   6.092  1.0099  0.8299 -0.5507
    9MOL   C218 3114   6.133   5.983   6.107 -0.0014 -0.0837  0.1846
    9MOL   C219 3115   6.110   5.832   6.087 -0.0782 -0.0740  0.3998
    9MOL   C220 3116   5.975   5.806   6.009 -0.2961  0.8302 -0.5293
    9MOL   C221 3117   5.958   5.864   5.860 -0.3857 -0.5951  0.0093
    9MOL   C222 3118   5.866   5.763   5.780  0.9250  0.7391 -0.6405
    9MOL   C223 3119   5.902   6.008   5.849  0.3965 -0.3276 -0.2318
    9MOL   H224 3120   6.065   6.010   6.188 -2.0019  0.3072 -1.5849
    9MOL   H225 3121   6.114   6.045   6.019  1.6125 -1.3347 -1.0826
    9MOL   H226 3122   6.188   5.789   6.024  0.3023  0.6692  0.3649
    9MOL   H227 3123   5.949   5.702   5.988  1.8741  0.8359 -3.6208
    9MOL   H228 3124   5.887   5.833   6.067  0.0089  0.5530  0.0632
    9MOL   H229 3125   6.062   5.858   5.826 -0.2698  0.4670  0.1609
    9MOL   H230 3126   5.845   5.802   5.681 -0.4080  1.8573  0.0542
    9MOL   H231 3127   5.912   5.666   5.764  2.5472  1.6881 -1.8812
    9MOL   H232 3128   5.770   5.738   5.825  2.3370 -0.1574  1.9680
    9MOL   H233 3129   5.978   6.084   5.868  0.5987 -0.0661 -2.0151
    9MOL   H234 3130   5.861   6.027   5.750  0.6623 -0.7848 -0.4318
    9MOL   H235 3131   5.821   6.034   5.917 -1.1952 -2.9262 -1.0433
    9MOL   C236 3132   6.113   5.758   6.220 -0.7613 -0.2532 -0.9712
    9MOL   C237 3133   6.107   5.607   6.208  0.1688 -0.4649  0.3720
    9MOL   C238 3134   6.087   5.540   6.354  0.0414  0.2033  0.1617
    9MOL   C239 3135   5.948   5.574   6.418  0.5705  0.5064  0.4490
    9MOL   C240 3136   5.830   5.534   6.323  0.4357 -0.5106 -0.1027
    9MOL   C241 3137   5.929   5.496   6.555 -0.0242 -0.4734  0.0915
    9MOL   H242 3138   6.026   5.783   6.283 -1.6447 -2.3978 -1.3172
    9MOL   H243 3139   6.203   5.787   6.274 -0.9874 -0.6186 -0.3857
    9MOL   H244 3140   6.025   5.572   6.145 -0.1612 -0.3182  0.7199
    9MOL   H245 3141   6.163   5.563   6.428 -0.1892 -0.0463  0.4747
    9MOL   H246 3142   6.098   5.433   6.338 -2.6853 -0.0147 -0.4667
    9MOL   H247 3143   5.952   5.679   6.447 -1.6642  0.7685 -0.0923
    9MOL   H248 3144   5.738   5.541   6.380  1.1742  0.1741  1.0068
    9MOL   H249 3145   5.844   5.431   6.288  0.7141  0.0004 -1.5420
    9MOL   H250 3146   5.835   5.604   6.240 -0.6525  0.5124  0.6814
    9MOL   H251 3147   5.909   5.391   6.532 -1.4873 -0.4945  1.3565
    9MOL   H252 3148   5.841   5.529   6.610  0.0028 -0.0189 -0.1411
    9MOL   H253 3149   6.021   5.508   6.613  0.5223 -1.3989 -0.5678
    9MOL   C254 3150   6.234   5.547   6.147  0.0061  1.1955  0.8897
    9MOL   C255 3151   6.226   5.417   6.058 -0.1021  0.2219  0.1490
    9MOL   C256 3152   6.136   5.436   5.932 -0.1465  0.2785 -0.0745
    9MOL   C257 3153   6.026   5.333   5.914  0.2385 -0.0386  0.8265
    9MOL   C258 3154   5.977   5.325   5.770 -0.0963 -0.6415 -0.5072
    9MOL   C259 3155   5.908   5.362   6.001  0.3016 -0.0679  0.1468
    9MOL   H260 3156   6.288   5.628   6.096  0.4474  0.2295 -0.2014
    9MOL   H261 3157   6.307   5.535   6.227 -0.1884 -1.3633  0.7171
    9MOL   H262 3158   6.190   5.341   6.127  1.9907 -2.4103 -1.5789
    9MOL   H263 3159   6.199   5.448   5.844 -0.5362 -0.7770 -0.4966
    9MOL   H264 3160   6.086   5.533   5.931 -0.3742  0.1570 -0.7377
    9MOL   H265 3161   6.071   5.239   5.943 -0.3021 -0.2946  0.8462
    9MOL   H266 3162   5.940   5.425   5.746  0.4703  0.3141  2.4667
    9MOL   H267 3163   5.900   5.250   5.751 -1.8685  0.6579  1.3755
    9MOL   H268 3164   6.060   5.313   5.700  0.2391  1.6111 -0.5342
    9MOL   H269 3165   5.862   5.456   5.970  1.9000  1.3816  1.9990
    9MOL   H270 3166   5.829   5.287   6.002  0.0900  0.1421 -0.8427
    9MOL   H271 3167   5.937   5.378   6.105 -0.4710  0.0403  0.3507
    9MOL   C272 3168   6.363   5.360   6.037 -0.0305  0.3151 -0.2361
    9MOL   C273 3169   6.367   5.208   6.000 -0.0460 -0.0148 -0.7132
    9MOL   C274 3170   6.361   5.190   5.844 -0.0233 -0.9097  0.5905
    9MOL   C275 3171   6.344   5.050   5.791  0.3910  0.1500 -0.5627
    9MOL   C276 3172   6.354   5.044   5.632 -0.2904 -0.0049  0.3381
    9MOL   C277 3173   6.207   4.999   5.833  0.2591 -0.2981 -0.4729
    9MOL   H278 3174   6.416   5.424   5.967  0.4829  1.6523  1.3466
    9MOL   H279 3175   6.418   5.370   6.131 -1.4698 -2.4902  0.9702
    9MOL   H280 3176   6.281   5.154   6.040  1.0379 -2.4603 -1.5672
    9MOL   H281 3177   6.449   5.244   5.810  0.2033 -1.7490 -0.1689
    9MOL   H282 3178   6.271   5.237   5.805  0.2962 -1.7446 -1.1963
    9MOL   H283 3179   6.424   4.991   5.836 -1.6464 -0.8681  1.8062
    9MOL   H284 3180   6.452   5.082   5.601 -1.6418  2.4418 -1.1347
    9MOL   H285 3181   6.343   4.942   5.596  1.4240 -0.2631  0.5025
    9MOL   H286 3182   6.279   5.096   5.571  0.4667 -0.7017 -1.2259
    9MOL   H287 3183   6.124   5.054   5.788 -2.4270 -1.6264  2.6498
    9MOL   H288 3184   6.184   4.902   5.789 -0.1601 -0.5024  0.1973
    9MOL   H289 3185   6.186   4.985   5.939 -2.7791 -1.8176 -1.2154
    9MOL   C290 3186   6.490   5.139   6.063 -0.1553  0.4322 -0.4207
    9MOL   C291 3187   6.458   5.088   6.208 -0.9507  0.0233 -0.4653
    9MOL   C292 3188   6.359   4.965   6.214 -0.1539 -0.6831  0.1749
    9MOL   C293 3189   6.251   4.957   6.325  0.2292  0.0384 -0.5091
    9MOL   C294 3190   6.139   5.067   6.312  0.0261 -0.7096 -0.1228
    9MOL   C295 3191   6.174   4.817   6.327  0.1045  0.1571  0.2559
    9MOL   H296 3192   6.507   5.047   6.007  0.3342 -1.3132  2.4651
    9MOL   H297 3193   6.564   5.219   6.062  1.7362 -1.2281  1.9253
    9MOL   H298 3194   6.424   5.178   6.259  0.2818 -0.5085  1.3638
    9MOL   H299 3195   6.427   4.879   6.220 -0.4017 -0.8167  1.0643
    9MOL   H300 3196   6.303   4.960   6.121  1.2401 -2.4263 -0.6002
    9MOL   H301 3197   6.310   4.957   6.416 -0.0621 -0.1134 -0.3167
    9MOL   H302 3198   6.076   5.061   6.223 -1.8015 -1.6467  1.1874
    9MOL   H303 3199   6.182   5.167   6.320  1.9824 -1.7251  2.5022
    9MOL   H304 3200   6.080   5.051   6.402 -0.5534  2.2976  0.0850
    9MOL   H305 3201   6.104   4.808   6.244 -1.0442  2.4197  0.9378
    9MOL   H306 3202   6.111   4.800   6.415  1.6056 -2.8680  0.8482
    9MOL   H307 3203   6.242   4.732   6.337 -0.1834 -0.0402  0.5637
    9MOL   C308 3204   6.593   5.054   6.289  0.4176 -0.2761 -1.1480
    9MOL   C309 3205   6.653   5.182   6.351 -0.5072 -0.0935 -0.7729
    9MOL   C310 3206   6.621   5.224   6.499  0.1099 -0.2614  0.0582
    9MOL   C311 3207   6.474   5.248   6.530 -0.6112 -0.6399  0.3870
    9MOL   C312 3208   6.449   5.254   6.680  0.2652 -0.0811 -0.3296
    9MOL   C313 3209   6.417   5.374   6.466 -0.2858 -0.0001 -0.2105
    9MOL   H314 3210   6.565   4.994   6.376 -0.0057 -0.8274 -1.6652
    9MOL   H315 3211   6.673   5.000   6.238 -0.7191 -0.5431 -2.6923
    9MOL   H316 3212   6.617   5.266   6.292 -0.0601  0.7650  0.1827
    9MOL   H317 3213   6.667   5.321   6.516 -1.3797  0.4675 -0.0361
    9MOL   H318 3214   6.675   5.148   6.555 -1.5569 -1.2963  0.3140
    9MOL   H319 3215   6.417   5.160   6.500 -1.0819 -0.4065  0.6044
    9MOL   H320 3216   6.469   5.154   6.720 -0.0437 -0.4577 -1.1014
    9MOL   H321 3217   6.343   5.269   6.700  0.3999  0.4740 -0.0339
    9MOL   H322 3218   6.503   5.325   6.742 -2.0157  0.3998  1.1658
    9MOL   H323 3219   6.467   5.453   6.522  0.4766 -0.3894 -0.3431
    9MOL   H324 3220   6.454   5.382   6.364  1.0427 -2.0028  0.0973
    9MOL   H325 3221   6.308   5.377   6.473 -0.3692 -2.3726 -0.0876
    9MOL   C326 3222   6.803   5.173   6.330 -0.9612 -0.6241  0.6657
    9MOL   C327 3223   6.878   5.311   6.334 -0.4250 -1.0217 -0.0593
    9MOL   C328 3224   6.834   5.411   6.227  0.0699 -0.6201  0.6170
    9MOL   C329 3225   6.836   5.568   6.250 -0.5441  0.8470 -0.0119
    9MOL   C330 3226   6.809   5.645   6.123  0.1347  0.3181 -0.6982
    9MOL   C331 3227   6.736   5.620   6.353  0.2028 -0.1719 -0.0089
    9MOL   H332 3228   6.824   5.137   6.229  0.8262  0.3582  0.6637
    9MOL   H333 3229   6.843   5.106   6.407  1.3580  0.4546  0.4335
    9MOL   H334 3230   6.859   5.359   6.430  2.9280  0.9432 -0.3181
    9MOL   H335 3231   6.893   5.387   6.138 -1.2787 -2.1821  0.1143
    9MOL   H336 3232   6.741   5.379   6.179  0.7488  0.2343 -1.3515
    9MOL   H337 3233   6.934   5.590   6.291  0.6537 -3.0106 -0.5867
    9MOL   H338 3234   6.813   5.754   6.128  1.9272  0.2865 -0.8316
    9MOL   H339 3235   6.719   5.617   6.069 -1.1957 -0.8239  2.0118
    9MOL   H340 3236   6.902   5.619   6.071  0.1071  0.0063 -0.5916
    9MOL   H341 3237   6.642   5.583   6.311  0.2793  0.7869 -1.0536
    9MOL   H342 3238   6.751   5.579   6.453  1.4915  1.0899  0.3264
    9MOL   H343 3239   6.745   5.728   6.363  0.4544 -0.3296  1.5126
    9MOL   C344 3240   7.030   5.276   6.334  0.0329  0.2850 -0.4890
    9MOL   C345 3241   7.128   5.389   6.349 -0.6400  0.2664 -0.1672
    9MOL   C346 3242   7.273   5.327   6.347 -0.2033 -0.0236 -0.2341
    9MOL   C347 3243   7.385   5.437   6.364  0.1746 -1.2247 -0.0684
    9MOL   C348 3244   7.526   5.378   6.346  0.0069  0.4134 -0.2500
    9MOL   C349 3245   7.371   5.526   6.491  0.6821 -0.0505 -0.0951
    9MOL   H350 3246   7.051   5.221   6.242  1.0957 -2.3573  1.2542
    9MOL   H351 3247   7.038   5.213   6.422 -0.7416  2.6663  1.3222
    9MOL   H352 3248   7.091   5.441   6.437  0.2364 -0.3082  0.5503
    9MOL   H353 3249   7.280   5.242   6.415 -0.5454  0.4506  0.3973
    9MOL   H354 3250   7.285   5.283   6.248  0.6588 -0.3029 -0.0127
    9MOL   H355 3251   7.375   5.516   6.290  1.2262 -2.8811 -2.0078
    9MOL   H356 3252   7.554   5.302   6.419  1.0211  1.9897  1.0316
    9MOL   H357 3253   7.534   5.318   6.255  1.4703  1.0710 -0.5773
    9MOL   H358 3254   7.610   5.446   6.330  1.1242 -0.7040  0.6961
    9MOL   H359 3255   7.334   5.468   6.575 -0.5752  0.7109 -0.1114
    9MOL   H360 3256   7.282   5.588   6.478 -1.0136 -1.7956  2.7492
    9MOL   H361 3257   7.452   5.593   6.521  1.3192 -1.2151  0.8555
    9MOL   H362 3258   7.109   5.457   6.266 -0.5559 -1.3375 -1.5442
   10MOL     C1 3259   3.582   3.982   5.996  0.1315 -0.1412  0.1683
   10MOL     C2 3260   3.474   3.894   6.067  0.4940  0.5191  0.7723
   10MOL     C3 3261   3.363   3.865   5.955  0.1970 -0.3254 -0.1995
   10MOL     C4 3262   3.265   3.740   5.979 -0.3102 -0.6051 -0.0535
   10MOL     C5 3263   3.347   3.611   5.974  0.1083 -0.1761 -0.1143
   10MOL     C6 3264   3.153   3.735   5.883 -0.9337 -0.5496  0.1390
   10MOL     H7 3265   3.547   4.066   5.936 -0.8429 -0.0933  0.8013
   10MOL     H8 3266   3.653   4.019   6.070 -2.0343 -1.2495  2.8554
   10MOL     H9 3267   3.504   3.795   6.101 -1.4782 -0.2257  0.3968
   10MOL    H10 3268   3.305   3.957   5.940  1.0662  0.4086  0.8734
   10MOL    H11 3269   3.413   3.855   5.859  0.8000  1.1943 -0.0614
   10MOL    H12 3270   3.218   3.763   6.075  2.2892  0.3803  1.0438
   10MOL    H13 3271   3.438   3.612   6.035  0.9442 -1.1455 -1.3294
   10MOL    H14 3272   3.291   3.529   6.017  0.2474 -0.1419  0.1336
   10MOL    H15 3273   3.376   3.582   5.873  0.2762  1.2854 -0.5052
   10MOL    H16 3274   3.109   3.835   5.878 -1.5890 -0.8255  0.3123
   10MOL    H17 3275   3.074   3.674   5.926  0.0338 -0.7582  1.6617
   10MOL    H18 3276   3.176   3.687   5.788  3.5880 -0.6182  1.1277
   10MOL    H19 3277   3.639   3.917   5.929 -0.4055 -2.2822  1.7416
   10MOL    C20 3278   3.405   3.972   6.180 -0.3545  0.3628 -0.3638
   10MOL    C21 3279   3.360   3.876   6.296 -0.2916 -0.6011  0.2111
   10MOL    C22 3280   3.480   3.841   6.382  0.7134  0.5369 -0.1923
   10MOL    C23 3281   3.470   3.722   6.474 -0.2438  0.4670 -0.2789
   10MOL    C24 3282   3.479   3.596   6.389 -0.1705 -0.0301 -0.3369
   10MOL    C25 3283   3.588   3.734   6.571 -0.3920  0.1555 -0.0377
   10MOL    H26 3284   3.470   4.051   6.219 -1.4295 -0.3190  2.9868
   10MOL    H27 3285   3.306   4.009   6.153 -0.3614  0.5203 -0.1286
   10MOL    H28 3286   3.319   3.785   6.253  2.7042 -2.6918  1.6408
   10MOL    H29 3287   3.509   3.922   6.450 -3.1545  2.2087 -0.4463
   10MOL    H30 3288   3.564   3.815   6.318  1.1494  4.1431 -1.1645
   10MOL    H31 3289   3.374   3.714   6.527  2.0814 -0.6585  4.0399
   10MOL    H32 3290   3.398   3.579   6.318 -0.2300 -0.8279 -0.0804
   10MOL    H33 3291   3.481   3.516   6.463 -1.9396  1.4126  1.3536
   10MOL    H34 3292   3.567   3.583   6.326 -1.9249 -1.5585 -2.5519
   10MOL    H35 3293   3.601   3.644   6.630 -0.0727 -0.0793 -0.4603
   10MOL    H36 3294   3.686   3.742   6.523  0.3620  0.0483  1.4674
   10MOL    H37 3295   3.578   3.825   6.630 -0.5709 -0.5947  1.0800
   10MOL    C38 3296   3.248   3.943   6.380 -1.0788  0.4177  0.0478
   10MOL    C39 3297   3.094   3.912   6.335  0.5045 -0.6975 -0.3748
   10MOL    C40 3298   3.004   4.022   6.381 -0.6024 -0.1553  0.9963
   10MOL    C41 3299   3.004   4.157   6.301 -0.7927 -0.1331  0.1797
   10MOL    C42 3300   2.978   4.280   6.393  0.2422 -0.4566  0.9037
   10MOL    C43 3301   2.913   4.150   6.182 -0.4434  0.3409 -0.8706
   10MOL    H44 3302   3.262   4.051   6.391  1.0061 -0.0147  1.8315
   10MOL    H45 3303   3.255   3.908   6.483 -0.5917  0.7029  0.1126
   10MOL    H46 3304   3.096   3.918   6.227 -1.8340 -0.7796 -0.4331
   10MOL    H47 3305   3.024   4.044   6.485 -1.3604  2.1448  0.6849
   10MOL    H48 3306   2.901   3.985   6.379 -0.4526 -0.5689  0.8439
   10MOL    H49 3307   3.103   4.172   6.258  0.1367 -3.7973  0.8622
   10MOL    H50 3308   2.878   4.258   6.430 -0.0630 -0.0997  0.2953
   10MOL    H51 3309   3.050   4.279   6.475  0.4863  0.0115  0.7012
   10MOL    H52 3310   2.986   4.371   6.333 -3.2620 -0.1455  0.8242
   10MOL    H53 3311   2.940   4.077   6.105 -0.3461  0.6812 -1.1622
   10MOL    H54 3312   2.908   4.245   6.130 -0.9834  0.8467  0.0938
   10MOL    H55 3313   2.813   4.143   6.225  1.0807 -1.9843  2.5214
   10MOL    C56 3314   3.070   3.773   6.381 -0.0927 -0.1386  1.1358
   10MOL    C57 3315   2.937   3.698   6.338  0.3446  0.1317  0.3753
   10MOL    C58 3316   2.904   3.563   6.409  0.5058 -0.4187 -0.5052
   10MOL    C59 3317   2.983   3.433   6.371  0.5194 -0.0245  0.2564
   10MOL    C60 3318   2.923   3.317   6.464  0.0942  0.5132 -0.5116
   10MOL    C61 3319   3.137   3.451   6.388  0.5867 -0.1036 -0.3871
   10MOL    H62 3320   3.069   3.784   6.490 -0.7218 -1.2657  1.2494
   10MOL    H63 3321   3.157   3.712   6.356 -2.5364 -3.9668  1.5717
   10MOL    H64 3322   2.857   3.769   6.357  3.3498  3.8614 -0.2336
   10MOL    H65 3323   2.913   3.583   6.516 -1.1340  1.2612 -0.6556
   10MOL    H66 3324   2.796   3.553   6.397  0.1099 -0.1120  2.3934
   10MOL    H67 3325   2.969   3.401   6.268 -2.4090 -2.0776  1.2222
   10MOL    H68 3326   2.910   3.354   6.566 -0.7428  0.9939 -0.7962
   10MOL    H69 3327   2.985   3.228   6.470  0.9180  1.2009  2.5685
   10MOL    H70 3328   2.831   3.286   6.416  1.6292 -1.8011 -2.0258
   10MOL    H71 3329   3.159   3.520   6.469 -1.6790 -0.2450  0.3801
   10MOL    H72 3330   3.177   3.499   6.299  0.7118  2.7414  1.1686
   10MOL    H73 3331   3.192   3.357   6.397 -1.8008 -1.4968 -0.0286
   10MOL    C74 3332   2.938   3.680   6.178  0.0235 -0.8387  0.2542
   10MOL    C75 3333   2.809   3.611   6.125 -0.0803  0.2019 -0.3858
   10MOL    C76 3334   2.822   3.567   5.980  0.4869  0.4511  1.1407
   10MOL    C77 3335   2.895   3.430   5.959 -0.4245  0.5996 -0.0492
   10MOL    C78 3336   2.950   3.413   5.808  0.6769  0.6338 -0.4562
   10MOL    C79 3337   2.813   3.309   6.009  0.3621 -0.1815  0.0809
   10MOL    H80 3338   3.026   3.621   6.154  0.0631 -0.4578 -0.5396
   10MOL    H81 3339   2.952   3.773   6.123  0.3464 -1.9484 -1.5650
   10MOL    H82 3340   2.780   3.529   6.192  1.4307  0.8712  1.1000
   10MOL    H83 3341   2.722   3.562   5.938  0.8197  2.0257  0.1289
   10MOL    H84 3342   2.869   3.644   5.919 -2.7730  1.5470 -0.0784
   10MOL    H85 3343   2.985   3.429   6.020 -0.4988  1.4626  0.0816
   10MOL    H86 3344   3.022   3.489   5.777  1.2414 -0.4832 -1.9195
   10MOL    H87 3345   2.871   3.410   5.733 -0.2506  2.3734  0.4120
   10MOL    H88 3346   2.999   3.316   5.806 -1.9078 -0.7299  1.0540
   10MOL    H89 3347   2.878   3.222   6.017 -0.6037 -1.2721 -3.0562
   10MOL    H90 3348   2.768   3.328   6.106  0.9050 -0.3586  0.3650
   10MOL    H91 3349   2.738   3.273   5.938  0.5747  1.6201 -1.0874
   10MOL    C92 3350   2.687   3.715   6.136  0.8621  1.0162  0.0192
   10MOL    C93 3351   2.575   3.669   6.227  0.1156 -0.1013  0.2995
   10MOL    C94 3352   2.471   3.789   6.256 -0.4020 -0.0726 -0.1353
   10MOL    C95 3353   2.491   3.870   6.384 -0.3563 -0.3630 -0.3093
   10MOL    C96 3354   2.599   3.982   6.377  0.8862 -0.1971 -0.0463
   10MOL    C97 3355   2.363   3.937   6.436 -0.1182 -0.3048  0.1677
   10MOL    H98 3356   2.722   3.809   6.178  1.3511  1.3649 -1.1433
   10MOL    H99 3357   2.641   3.747   6.042  0.6521  1.3982  0.2496
   10MOL   H100 3358   2.606   3.633   6.325  1.1160  0.9524  0.3851
   10MOL   H101 3359   2.369   3.751   6.251 -0.1317 -1.1309  1.7445
   10MOL   H102 3360   2.484   3.863   6.177 -1.4414  0.1547 -0.0960
   10MOL   H103 3361   2.521   3.801   6.462 -1.5062 -1.9598 -1.2448
   10MOL   H104 3362   2.563   4.070   6.323  0.0316 -0.5903 -0.1326
   10MOL   H105 3363   2.692   3.951   6.330  0.9873 -0.4834  0.3423
   10MOL   H106 3364   2.622   4.026   6.474  0.0096  1.8721 -0.7390
   10MOL   H107 3365   2.331   4.009   6.361  0.1714  2.5036  2.6468
   10MOL   H108 3366   2.383   3.999   6.523  0.6239 -0.8540  0.3882
   10MOL   H109 3367   2.286   3.863   6.458 -1.7123  0.7466 -1.6907
   10MOL   C110 3368   2.510   3.549   6.155 -0.7330  0.3238 -0.5166
   10MOL   C111 3369   2.415   3.470   6.248  0.6197  0.4243 -0.5263
   10MOL   C112 3370   2.312   3.390   6.169 -0.4264  0.4558  0.4888
   10MOL   C113 3371   2.189   3.468   6.126  0.8712  0.2523  0.7303
   10MOL   C114 3372   2.101   3.498   6.245  0.0546 -0.6308  0.0805
   10MOL   C115 3373   2.101   3.390   6.029  0.2454 -0.2330  0.4427
   10MOL   H116 3374   2.574   3.480   6.101 -0.7058  0.4836 -0.6898
   10MOL   H117 3375   2.455   3.591   6.071 -1.1964 -1.3469 -1.0717
   10MOL   H118 3376   2.372   3.536   6.323  1.4239 -0.3591  0.6262
   10MOL   H119 3377   2.280   3.299   6.220  1.6128 -0.1562  0.7032
   10MOL   H120 3378   2.352   3.360   6.072 -1.6405 -0.1571  0.1653
   10MOL   H121 3379   2.219   3.562   6.081  0.6601  0.0382  0.1349
   10MOL   H122 3380   2.064   3.411   6.299  0.0136 -1.2384 -0.9123
   10MOL   H123 3381   2.022   3.572   6.234  0.5173 -0.2408 -0.6916
   10MOL   H124 3382   2.154   3.535   6.333 -2.3847 -0.0791  1.3717
   10MOL   H125 3383   2.018   3.459   6.014 -0.1936 -0.5811  1.2964
   10MOL   H126 3384   2.067   3.292   6.060  1.7374 -0.4653  1.3805
   10MOL   H127 3385   2.154   3.375   5.935 -0.5807  2.2773 -0.4733
   10MOL   C128 3386   2.498   3.378   6.335 -0.0296 -1.0665  0.4278
   10MOL   C129 3387   2.450   3.336   6.480  0.1204  0.8276  0.4990
   10MOL   C130 3388   2.428   3.458   6.582  0.2337 -0.1714  0.4740
   10MOL   C131 3389   2.336   3.430   6.701 -0.6647 -0.5830  0.4280
   10MOL   C132 3390   2.382   3.523   6.820 -0.1579  0.7123  0.7259
   10MOL   C133 3391   2.190   3.449   6.668  0.1220 -0.0426 -0.5341
   10MOL   H134 3392   2.593   3.423   6.362  1.0954 -2.6360 -0.7633
   10MOL   H135 3393   2.520   3.290   6.274 -2.1901  0.4866 -2.7728
   10MOL   H136 3394   2.354   3.286   6.469 -0.0502  0.9520  1.3418
   10MOL   H137 3395   2.525   3.493   6.615  2.5420 -2.7753 -3.1511
   10MOL   H138 3396   2.385   3.541   6.527 -0.5563 -0.7164  0.2555
   10MOL   H139 3397   2.358   3.329   6.736  1.4403 -0.9059 -1.7032
   10MOL   H140 3398   2.339   3.478   6.910 -0.4533 -2.2503 -0.8540
   10MOL   H141 3399   2.352   3.628   6.814  0.6963  0.9274  0.0991
   10MOL   H142 3400   2.491   3.516   6.824 -0.2018 -0.9636 -0.4968
   10MOL   H143 3401   2.147   3.550   6.663 -1.1753 -0.3380  2.7908
   10MOL   H144 3402   2.173   3.410   6.568  1.7860  0.8443 -1.1803
   10MOL   H145 3403   2.121   3.404   6.739  0.2823 -0.5656 -0.7105
   10MOL   C146 3404   2.544   3.229   6.546 -0.4122 -0.0460  0.2144
   10MOL   C147 3405   2.545   3.088   6.485  0.3975 -0.6360 -0.6073
   10MOL   C148 3406   2.410   3.007   6.499  0.2797 -0.2467  0.0651
   10MOL   C149 3407   2.324   2.983   6.376 -0.0123 -0.3078 -0.1955
   10MOL   C150 3408   2.391   2.894   6.271 -0.1023 -0.1857 -0.0330
   10MOL   C151 3409   2.180   2.949   6.408  0.0802  0.0417  0.0180
   10MOL   H152 3410   2.510   3.216   6.649 -1.4100  0.7676 -0.0036
   10MOL   H153 3411   2.645   3.264   6.570 -1.1936  1.3946  1.4804
   10MOL   H154 3412   2.572   3.088   6.379  1.4692  2.1319 -0.3652
   10MOL   H155 3413   2.425   2.911   6.549  0.5440  0.3980  1.2656
   10MOL   H156 3414   2.353   3.058   6.577  0.8034 -3.6248  2.8066
   10MOL   H157 3415   2.332   3.079   6.326 -1.3209 -1.1873 -2.1798
   10MOL   H158 3416   2.496   2.924   6.259 -0.5697  2.3269  1.8641
   10MOL   H159 3417   2.341   2.911   6.176  1.4147  1.8089 -0.5029
   10MOL   H160 3418   2.384   2.793   6.313 -1.3580 -0.2849 -0.4589
   10MOL   H161 3419   2.135   3.022   6.476  0.0044 -1.0556  1.1537
   10MOL   H162 3420   2.164   2.854   6.458 -0.2049 -0.5641 -1.2015
   10MOL   H163 3421   2.125   2.951   6.314 -1.3385  0.4291  0.8473
   10MOL   C164 3422   2.661   3.014   6.559 -0.0744  1.0705 -0.2885
   10MOL   C165 3423   2.714   2.886   6.497  0.4624 -0.0772 -1.3472
   10MOL   C166 3424   2.813   2.921   6.380  0.1393  0.2455 -0.4139
   10MOL   C167 3425   2.869   2.802   6.296 -0.2623 -0.1075 -0.3056
   10MOL   C168 3426   2.763   2.701   6.254 -0.4852  0.2578  0.0217
   10MOL   C169 3427   2.942   2.848   6.168 -0.1839 -0.4323  0.3286
   10MOL   H170 3428   2.752   3.074   6.566  1.6645 -1.3165 -1.3984
   10MOL   H171 3429   2.622   2.993   6.658 -0.8512 -0.0205 -0.8101
   10MOL   H172 3430   2.628   2.830   6.460 -2.1926  1.3902  2.3323
   10MOL   H173 3431   2.766   2.992   6.312 -0.6158 -0.9068 -1.0956
   10MOL   H174 3432   2.900   2.979   6.413  0.9958  0.7513 -3.4451
   10MOL   H175 3433   2.955   2.766   6.352 -0.1605 -0.9464 -0.9960
   10MOL   H176 3434   2.756   2.628   6.335 -0.8391  1.6447  1.2661
   10MOL   H177 3435   2.781   2.638   6.167 -0.7698 -0.9754  0.8385
   10MOL   H178 3436   2.663   2.743   6.244 -0.3367  0.7296  0.5078
   10MOL   H179 3437   3.017   2.922   6.195 -1.0794  0.3874  0.5995
   10MOL   H180 3438   2.896   2.903   6.086  0.9113  0.9593  0.6412
   10MOL   H181 3439   3.009   2.770   6.132 -0.4453 -0.5580  0.1047
   10MOL   C182 3440   2.773   2.793   6.608 -0.0594 -0.3370 -0.8050
   10MOL   C183 3441   2.668   2.728   6.698  0.4648 -0.1848  0.2933
   10MOL   C184 3442   2.644   2.576   6.664 -0.0025  0.2885 -0.0783
   10MOL   C185 3443   2.499   2.542   6.660  0.2156  0.4815  0.0764
   10MOL   C186 3444   2.448   2.564   6.515  0.0416 -0.8233  0.2719
   10MOL   C187 3445   2.464   2.403   6.711 -0.1988  1.0434  0.0530
   10MOL   H188 3446   2.836   2.857   6.669 -1.7409 -0.1012  0.7593
   10MOL   H189 3447   2.835   2.716   6.562  2.8577  1.7301 -0.4171
   10MOL   H190 3448   2.574   2.779   6.679  1.2437  1.5511  1.0413
   10MOL   H191 3449   2.693   2.518   6.743  2.6211  1.9826 -0.3771
   10MOL   H192 3450   2.690   2.541   6.572  1.2821  0.3841  0.5136
   10MOL   H193 3451   2.442   2.608   6.725  0.4923 -0.3050  1.1357
   10MOL   H194 3452   2.346   2.533   6.490  0.1950 -0.8572 -0.3120
   10MOL   H195 3453   2.516   2.521   6.441 -0.1759 -1.8859  0.6827
   10MOL   H196 3454   2.448   2.673   6.501  1.7600 -0.4009  3.0744
   10MOL   H197 3455   2.356   2.396   6.710 -0.0626 -2.7199  2.4660
   10MOL   H198 3456   2.500   2.391   6.813  1.7956 -1.1743 -0.8606
   10MOL   H199 3457   2.506   2.332   6.639 -2.8078  0.3422 -0.8049
   10MOL   C200 3458   2.708   2.748   6.842  0.5504 -0.2478  0.6241
   10MOL   C201 3459   2.593   2.769   6.942 -0.8175 -0.1617 -0.2933
   10MOL   C202 3460   2.513   2.902   6.917  0.3052 -0.7040  0.0569
   10MOL   C203 3461   2.370   2.923   6.971  0.5700  0.4132 -0.0945
   10MOL   C204 3462   2.325   3.069   6.938 -0.3169 -0.4297  0.5188
   10MOL   C205 3463   2.269   2.814   6.925  0.4606 -0.0388  0.2204
   10MOL   H206 3464   2.766   2.839   6.856 -2.5605  1.6691  1.3640
   10MOL   H207 3465   2.774   2.671   6.881 -0.6131 -1.0851  0.9724
   10MOL   H208 3466   2.518   2.692   6.921 -0.9032  0.2278 -1.4384
   10MOL   H209 3467   2.579   2.989   6.926  0.8114 -1.2580  1.9909
   10MOL   H210 3468   2.476   2.891   6.815  1.5542 -1.9858 -0.2857
   10MOL   H211 3469   2.376   2.923   7.080 -2.2098  1.8537  0.1112
   10MOL   H212 3470   2.409   3.138   6.952 -0.1632 -0.2357 -1.2281
   10MOL   H213 3471   2.236   3.093   6.995 -1.2098 -2.3616 -0.0211
   10MOL   H214 3472   2.297   3.076   6.832  0.1125  0.3627  0.4569
   10MOL   H215 3473   2.249   2.807   6.818  3.4277 -2.9323 -0.2532
   10MOL   H216 3474   2.168   2.833   6.961  0.6043 -0.1846  0.6984
   10MOL   H217 3475   2.293   2.715   6.965 -0.2813 -0.7975 -1.1624
   10MOL   C218 3476   2.626   2.744   7.093  0.2235 -0.1128  0.2538
   10MOL   C219 3477   2.668   2.603   7.129  0.6782 -0.2471 -0.4768
   10MOL   C220 3478   2.605   2.561   7.265  0.1250 -0.1484 -0.8813
   10MOL   C221 3479   2.462   2.508   7.261  0.1125  0.1063 -0.0449
   10MOL   C222 3480   2.459   2.355   7.222 -0.4154 -0.8058  0.0205
   10MOL   C223 3481   2.398   2.523   7.405  0.2544  0.1212 -0.2515
   10MOL   H224 3482   2.694   2.818   7.134  0.2321  0.2458 -0.3975
   10MOL   H225 3483   2.531   2.768   7.140  0.8252 -0.1908  1.5144
   10MOL   H226 3484   2.622   2.539   7.054  0.1989  2.0177 -2.1648
   10MOL   H227 3485   2.666   2.477   7.298 -1.3220 -0.4408  1.1402
   10MOL   H228 3486   2.614   2.632   7.347 -2.3191 -0.0265 -0.6628
   10MOL   H229 3487   2.403   2.575   7.199  2.5575  0.9213 -1.5761
   10MOL   H230 3488   2.484   2.331   7.119  0.3250  0.3043 -0.0572
   10MOL   H231 3489   2.508   2.292   7.297 -0.1847  0.3022  0.8133
   10MOL   H232 3490   2.354   2.331   7.241 -0.6005 -1.3648 -1.6473
   10MOL   H233 3491   2.455   2.464   7.477  0.3740  0.5979  0.0419
   10MOL   H234 3492   2.385   2.625   7.441  1.8696 -0.3016  1.6562
   10MOL   H235 3493   2.295   2.488   7.412  0.5492 -0.6670  0.2368
   10MOL   C236 3494   2.820   2.582   7.132 -0.5430  0.4362  0.5929
   10MOL   C237 3495   2.865   2.433   7.111 -0.4683  0.3422  1.1966
   10MOL   C238 3496   3.009   2.407   7.154  0.6957 -0.0340 -0.2370
   10MOL   C239 3497   3.030   2.364   7.299  0.0933 -0.1631 -0.4609
   10MOL   C240 3498   3.174   2.319   7.323  0.8973 -0.0115 -0.3827
   10MOL   C241 3499   2.987   2.457   7.413 -0.7665 -0.1036  0.5266
   10MOL   H242 3500   2.847   2.616   7.232  0.9639  0.9000  0.0347
   10MOL   H243 3501   2.873   2.654   7.069  0.9509  1.0810  2.5438
   10MOL   H244 3502   2.791   2.372   7.163  0.3758 -0.7589  1.1180
   10MOL   H245 3503   3.064   2.500   7.141 -0.7820  1.0134  0.7368
   10MOL   H246 3504   3.054   2.327   7.096  2.6268  0.3162  0.7231
   10MOL   H247 3505   2.964   2.279   7.317 -0.1193  0.4075  1.5682
   10MOL   H248 3506   3.218   2.253   7.249  2.5958 -0.1791  0.7513
   10MOL   H249 3507   3.188   2.254   7.410  0.6971 -0.2743 -0.5427
   10MOL   H250 3508   3.249   2.398   7.324  0.6538  0.2186 -0.1522
   10MOL   H251 3509   2.886   2.497   7.402  0.0961  1.9752  0.0769
   10MOL   H252 3510   3.051   2.544   7.426 -1.9074  1.1584 -1.9714
   10MOL   H253 3511   2.983   2.400   7.506  0.8030  0.9964  1.2799
   10MOL   C254 3512   2.856   2.398   6.963 -0.3956  0.5994  0.2251
   10MOL   C255 3513   2.851   2.251   6.920  0.0959  0.4780 -0.3243
   10MOL   C256 3514   2.716   2.188   6.943 -0.2640 -0.3944  0.0520
   10MOL   C257 3515   2.733   2.041   6.999 -0.1499 -0.2889  0.0184
   10MOL   C258 3516   2.597   1.974   6.985 -0.3080  0.3880  0.0545
   10MOL   C259 3517   2.790   2.038   7.144  0.2967  0.5825  0.1562
   10MOL   H260 3518   2.767   2.440   6.915  0.0960  0.5208 -0.7846
   10MOL   H261 3519   2.937   2.452   6.912 -0.7246  0.1458 -0.7980
   10MOL   H262 3520   2.924   2.196   6.979 -1.1312 -0.2312  0.5467
   10MOL   H263 3521   2.649   2.203   6.858  0.5601 -1.9442 -0.8954
   10MOL   H264 3522   2.674   2.258   7.016  1.2433  0.8630 -0.2418
   10MOL   H265 3523   2.796   1.989   6.928  2.9645  2.1818  0.8460
   10MOL   H266 3524   2.591   1.867   7.000 -4.9120  0.2940 -1.5018
   10MOL   H267 3525   2.553   1.985   6.885  0.7011  2.7118 -0.1791
   10MOL   H268 3526   2.515   2.009   7.048 -0.6229 -0.9157  0.3837
   10MOL   H269 3527   2.824   1.936   7.162 -0.2864  0.1753 -1.0249
   10MOL   H270 3528   2.883   2.091   7.163  0.6441 -0.7202  2.3170
   10MOL   H271 3529   2.716   2.077   7.214  1.2030  1.0043  0.8958
   10MOL   C272 3530   2.896   2.230   6.771  0.1410 -0.5309 -0.4814
   10MOL   C273 3531   3.047   2.243   6.748 -0.0446  0.3269  0.2494
   10MOL   C274 3532   3.114   2.098   6.750 -0.3400  0.4571 -0.1627
   10MOL   C275 3533   3.181   2.050   6.873  0.0082  0.1592  0.2806
   10MOL   C276 3534   3.265   2.161   6.954  0.3778  0.4340  0.0363
   10MOL   C277 3535   3.256   1.922   6.846 -0.0955  0.0728 -0.0611
   10MOL   H278 3536   2.855   2.132   6.746 -0.0733 -0.2651 -1.1970
   10MOL   H279 3537   2.848   2.299   6.701 -0.4525 -0.0556  0.3779
   10MOL   H280 3538   3.086   2.310   6.825  0.5219  0.8954 -0.5188
   10MOL   H281 3539   3.195   2.101   6.677 -0.0333 -1.5986  0.0667
   10MOL   H282 3540   3.042   2.028   6.707  0.1431  0.5732 -1.1894
   10MOL   H283 3541   3.099   2.028   6.941  0.5179 -2.2203  0.1700
   10MOL   H284 3542   3.293   2.121   7.052 -1.2873  1.3910  0.9336
   10MOL   H285 3543   3.359   2.179   6.901 -0.6134  1.0248 -1.5210
   10MOL   H286 3544   3.211   2.254   6.970  0.6636  1.0542 -2.4464
   10MOL   H287 3545   3.291   1.883   6.942  0.8159 -1.1506 -0.8750
   10MOL   H288 3546   3.187   1.848   6.806 -0.7499  0.5013  0.2582
   10MOL   H289 3547   3.342   1.929   6.779 -0.3033  2.1112 -0.1422
   10MOL   C290 3548   3.074   2.304   6.607  0.5028  0.6322  0.3597
   10MOL   C291 3549   3.210   2.380   6.589 -0.4129 -0.3328  0.2737
   10MOL   C292 3550   3.241   2.392   6.439 -0.4495 -0.3708  0.1394
   10MOL   C293 3551   3.274   2.260   6.366  0.2363  0.0296 -0.8761
   10MOL   C294 3552   3.244   2.268   6.210  0.3405 -0.3800 -0.3647
   10MOL   C295 3553   3.417   2.201   6.385  0.0338 -0.4271 -0.7875
   10MOL   H296 3554   3.054   2.226   6.533 -4.6073  2.4202 -0.3261
   10MOL   H297 3555   2.998   2.377   6.580  1.6930  1.8067  0.1284
   10MOL   H298 3556   3.291   2.317   6.624  0.2062 -0.2345 -0.9554
   10MOL   H299 3557   3.323   2.462   6.426 -1.2501  0.6789  0.6583
   10MOL   H300 3558   3.158   2.441   6.390  0.1932 -0.5008 -1.1062
   10MOL   H301 3559   3.213   2.182   6.412 -0.6592 -0.2358 -2.4860
   10MOL   H302 3560   3.255   2.176   6.154  0.0957 -0.6176 -0.0208
   10MOL   H303 3561   3.324   2.329   6.166 -1.2540  1.5856 -0.6386
   10MOL   H304 3562   3.144   2.308   6.188  0.3523  0.1246  0.4857
   10MOL   H305 3563   3.488   2.248   6.318  0.2220  2.5554  1.4169
   10MOL   H306 3564   3.408   2.096   6.356 -2.9851 -0.4106 -0.1482
   10MOL   H307 3565   3.455   2.203   6.487 -1.8757  0.7747 -0.0689
   10MOL   C308 3566   3.202   2.515   6.661  0.4461  0.0257 -0.0840
   10MOL   C309 3567   3.333   2.586   6.679  0.5897  0.2753 -0.5833
   10MOL   C310 3568   3.308   2.734   6.715  0.2773  0.2768 -0.2653
   10MOL   C311 3569   3.259   2.814   6.593 -0.1621 -0.5807 -0.3853
   10MOL   C312 3570   3.159   2.917   6.629  0.2084  0.0357 -0.4271
   10MOL   C313 3571   3.390   2.863   6.525  0.2338 -0.1423 -0.4343
   10MOL   H314 3572   3.128   2.578   6.611 -0.6835 -1.1595  0.0709
   10MOL   H315 3573   3.155   2.493   6.757  0.5376  1.0827  0.2143
   10MOL   H316 3574   3.388   2.577   6.585 -0.6095 -3.1827 -1.0387
   10MOL   H317 3575   3.397   2.778   6.761  0.0516  0.1360  0.3050
   10MOL   H318 3576   3.232   2.732   6.793  0.7600  2.1581  0.2656
   10MOL   H319 3577   3.216   2.747   6.520  0.6899 -1.1210 -0.3966
   10MOL   H320 3578   3.087   2.879   6.702  0.2019 -1.5412 -1.2138
   10MOL   H321 3579   3.112   2.965   6.543 -0.7379 -0.8611 -0.4247
   10MOL   H322 3580   3.210   3.002   6.673 -1.0345  0.6012 -0.0494
   10MOL   H323 3581   3.463   2.905   6.594  0.3855 -1.0953 -0.0046
   10MOL   H324 3582   3.444   2.780   6.478  0.9702  0.4605 -0.6736
   10MOL   H325 3583   3.368   2.930   6.442 -1.0396 -1.1562 -0.9255
   10MOL   C326 3584   3.420   2.516   6.793 -0.1309 -0.5972  0.3860
   10MOL   C327 3585   3.574   2.528   6.768  0.7145  0.4225 -0.1324
   10MOL   C328 3586   3.627   2.459   6.639  0.3757  0.1728  0.0593
   10MOL   C329 3587   3.766   2.506   6.585  0.0961 -0.2183 -0.1536
   10MOL   C330 3588   3.805   2.414   6.471  0.1714  0.3910 -0.0317
   10MOL   C331 3589   3.761   2.651   6.545  0.2430 -0.3818  0.2234
   10MOL   H332 3590   3.392   2.411   6.793  1.7240 -1.1384 -1.8001
   10MOL   H333 3591   3.387   2.555   6.889  2.0520  0.2793  0.8181
   10MOL   H334 3592   3.600   2.633   6.756 -0.6370  1.0275  1.9632
   10MOL   H335 3593   3.634   2.355   6.669 -0.4317 -0.2158 -1.0547
   10MOL   H336 3594   3.553   2.449   6.560  0.5057  0.4708 -0.1014
   10MOL   H337 3595   3.847   2.497   6.656  0.1846 -0.4738 -0.2861
   10MOL   H338 3596   3.800   2.315   6.514  0.3749  0.1522 -0.5577
   10MOL   H339 3597   3.903   2.450   6.438 -0.1502  2.2188  0.9248
   10MOL   H340 3598   3.744   2.414   6.381 -0.0274 -0.4543  0.1000
   10MOL   H341 3599   3.769   2.728   6.622  0.6197  1.5457 -1.7116
   10MOL   H342 3600   3.849   2.673   6.484  0.3681  3.7385  1.6997
   10MOL   H343 3601   3.672   2.666   6.485  1.7396 -1.0310 -2.2236
   10MOL   C344 3602   3.645   2.506   6.901 -0.0083  0.6835  0.5588
   10MOL   C345 3603   3.648   2.368   6.962 -0.1554 -0.1696  0.2542
   10MOL   C346 3604   3.742   2.360   7.083 -0.0461 -0.8426  0.1572
   10MOL   C347 3605   3.702   2.258   7.186 -0.2230  0.5439  0.0299
   10MOL   C348 3606   3.819   2.247   7.287 -0.4717  0.3698 -0.0059
   10MOL   C349 3607   3.682   2.121   7.118 -0.3617  0.0079 -0.2111
   10MOL   H350 3608   3.597   2.571   6.975  0.3970  1.0483  0.5062
   10MOL   H351 3609   3.741   2.556   6.885  0.3811 -0.0205  0.6864
   10MOL   H352 3610   3.672   2.291   6.889 -0.2092  1.9336 -2.0528
   10MOL   H353 3611   3.834   2.328   7.034 -1.2251 -0.7521 -2.1847
   10MOL   H354 3612   3.771   2.454   7.129  0.5687 -0.8006 -0.3001
   10MOL   H355 3613   3.609   2.290   7.235  1.0507  0.5842  2.4863
   10MOL   H356 3614   3.852   2.348   7.314  3.4677 -0.5836 -0.8840
   10MOL   H357 3615   3.795   2.191   7.378  0.3642 -2.5134 -1.4929
   10MOL   H358 3616   3.902   2.195   7.240 -1.0102 -0.8045  0.3288
   10MOL   H359 3617   3.767   2.074   7.068 -1.0779  0.7669 -2.2083
   10MOL   H360 3618   3.595   2.118   7.052  0.4132  0.5588 -1.2697
   10MOL   H361 3619   3.661   2.044   7.193  0.7106 -2.0409 -1.9585
   10MOL   H362 3620   3.547   2.350   6.999  0.8596 -2.0093  2.2466
   11MOL     C1 3621   7.358   0.494   4.433 -0.4079  0.1909 -0.4421
   11MOL     C2 3622   7.224   0.436   4.476  0.4882 -0.0476  0.1546
   11MOL     C3 3623   7.231   0.282   4.487  0.8164 -0.4196 -0.2058
   11MOL     C4 3624   7.333   0.230   4.592  0.0236 -0.9481 -0.0253
   11MOL     C5 3625   7.332   0.078   4.598 -0.1180  0.2777 -0.3399
   11MOL     C6 3626   7.317   0.289   4.734  0.7835 -0.0546 -0.3007
   11MOL     H7 3627   7.360   0.602   4.447  0.9624  0.2543 -1.0824
   11MOL     H8 3628   7.435   0.453   4.497  1.1549 -0.4278 -2.6724
   11MOL     H9 3629   7.214   0.463   4.581 -0.8704 -1.2195  0.3267
   11MOL    H10 3630   7.133   0.249   4.523  0.7335  1.4731  1.3909
   11MOL    H11 3631   7.249   0.240   4.388  1.6131  0.7192 -0.5518
   11MOL    H12 3632   7.430   0.261   4.555  0.1809 -0.0476  1.1067
   11MOL    H13 3633   7.408   0.031   4.659  0.8736  0.3558 -1.4936
   11MOL    H14 3634   7.238   0.036   4.635  1.1942 -1.6529  0.9000
   11MOL    H15 3635   7.343   0.044   4.495  2.0396  0.2998 -0.1269
   11MOL    H16 3636   7.377   0.231   4.804  0.3563  2.1443  1.9157
   11MOL    H17 3637   7.213   0.282   4.762  0.2079 -0.8959 -2.4857
   11MOL    H18 3638   7.347   0.394   4.739 -1.9420  0.7356  0.1100
   11MOL    H19 3639   7.376   0.474   4.328  3.8400 -2.0125  0.5859
   11MOL    C20 3640   7.106   0.498   4.414  0.2853 -0.0050  0.2602
   11MOL    C21 3641   7.067   0.645   4.448  0.0318  0.4127 -0.0572
   11MOL    C22 3642   6.998   0.712   4.321 -0.2883  0.4419  0.2837
   11MOL    C23 3643   7.102   0.734   4.204  0.2722  0.1293  1.0382
   11MOL    C24 3644   7.064   0.692   4.060  0.5812 -0.3247  0.0100
   11MOL    C25 3645   7.137   0.882   4.204 -0.0982  0.1926 -0.2368
   11MOL    H26 3646   7.123   0.486   4.307 -0.1359 -0.3857  0.2335
   11MOL    H27 3647   7.021   0.434   4.438  1.5909 -2.3627 -1.2596
   11MOL    H28 3648   7.158   0.702   4.462  1.5804 -2.5323  2.5738
   11MOL    H29 3649   6.942   0.803   4.345  0.2867  0.8897 -0.0309
   11MOL    H30 3650   6.910   0.655   4.291  0.1135  0.7362 -1.5680
   11MOL    H31 3651   7.194   0.677   4.217  0.0320 -1.1188 -2.3490
   11MOL    H32 3652   6.972   0.742   4.030  0.7884 -0.4417 -0.8310
   11MOL    H33 3653   7.054   0.584   4.045 -4.3386  0.4552 -3.2840
   11MOL    H34 3654   7.143   0.721   3.991  0.3191 -0.8711 -0.5312
   11MOL    H35 3655   7.053   0.951   4.215 -0.5295 -0.2892 -0.5054
   11MOL    H36 3656   7.196   0.913   4.290 -1.3765  0.8839  0.4018
   11MOL    H37 3657   7.184   0.914   4.111  0.4537  1.2011  0.3822
   11MOL    C38 3658   6.984   0.669   4.576 -0.0281 -0.1503 -0.4760
   11MOL    C39 3659   7.049   0.653   4.714 -0.2509 -0.5627 -0.0301
   11MOL    C40 3660   6.944   0.657   4.820  0.4527 -0.0124  0.1003
   11MOL    C41 3661   6.852   0.529   4.832 -0.4876 -0.2982  0.2052
   11MOL    C42 3662   6.778   0.541   4.969 -0.3051 -0.3999  0.3390
   11MOL    C43 3663   6.939   0.403   4.830  0.1335  0.1499 -0.2948
   11MOL    H44 3664   6.885   0.623   4.573  0.6307 -1.6939  0.4874
   11MOL    H45 3665   6.950   0.773   4.575  0.3063 -0.0467 -1.8532
   11MOL    H46 3666   7.115   0.566   4.721  0.0916 -0.1959  1.4931
   11MOL    H47 3667   6.883   0.745   4.800  1.8661  0.6110 -1.5736
   11MOL    H48 3668   6.992   0.677   4.915 -1.5456  0.8048  0.9801
   11MOL    H49 3669   6.770   0.523   4.761 -0.6340  0.0993  0.3439
   11MOL    H50 3670   6.844   0.530   5.055 -0.6439  1.1546  0.8197
   11MOL    H51 3671   6.732   0.640   4.979 -1.2737 -0.9005  0.9175
   11MOL    H52 3672   6.700   0.468   4.989 -0.8251  0.0656  0.0272
   11MOL    H53 3673   6.975   0.378   4.730  0.3146  1.2262 -0.5061
   11MOL    H54 3674   6.900   0.318   4.885  0.3457 -0.5523 -1.2123
   11MOL    H55 3675   7.023   0.417   4.897  1.0648  0.4757 -1.5110
   11MOL    C56 3676   7.141   0.776   4.731 -0.1981 -0.8819  0.6627
   11MOL    C57 3677   7.214   0.807   4.864  0.2288 -0.5521 -0.1841
   11MOL    C58 3678   7.271   0.952   4.850  0.3630 -0.0428  0.0598
   11MOL    C59 3679   7.164   1.065   4.859 -0.5301 -0.4064 -0.2642
   11MOL    C60 3680   7.227   1.191   4.898  0.5297 -0.5682  0.7553
   11MOL    C61 3681   7.060   1.052   4.966 -0.0783 -0.2352  0.1332
   11MOL    H62 3682   7.082   0.866   4.716  0.4000 -0.4699  0.7549
   11MOL    H63 3683   7.221   0.782   4.657  0.3641  1.4229  1.4121
   11MOL    H64 3684   7.143   0.807   4.946  0.5304 -0.8870  0.0794
   11MOL    H65 3685   7.333   0.970   4.938  0.5841 -1.3144  0.1646
   11MOL    H66 3686   7.329   0.950   4.758  1.5459 -0.2354  0.7895
   11MOL    H67 3687   7.109   1.078   4.766  1.3939  1.9516 -1.1269
   11MOL    H68 3688   7.290   1.234   4.820  1.7267 -0.6718  1.6451
   11MOL    H69 3689   7.286   1.191   4.990  0.4410  1.7026  0.8248
   11MOL    H70 3690   7.156   1.269   4.926  2.3777  1.3546  0.1845
   11MOL    H71 3691   7.100   1.018   5.062 -3.2310 -2.5075  0.7235
   11MOL    H72 3692   6.976   0.992   4.929  0.1257 -2.0641  2.4368
   11MOL    H73 3693   7.011   1.147   4.987  1.5778  0.8403 -0.8120
   11MOL    C74 3694   7.314   0.699   4.908  0.0204 -0.0381  0.3964
   11MOL    C75 3695   7.326   0.677   5.059  0.2287  0.2981 -1.1530
   11MOL    C76 3696   7.463   0.634   5.101 -0.4769  0.0526 -0.4124
   11MOL    C77 3697   7.565   0.753   5.109 -0.0164  0.3542 -0.0407
   11MOL    C78 3698   7.714   0.695   5.114  0.5029 -0.2233  0.6377
   11MOL    C79 3699   7.535   0.845   5.226 -0.5710 -0.9512 -0.9293
   11MOL    H80 3700   7.411   0.718   4.864 -0.1461 -1.6020 -0.6674
   11MOL    H81 3701   7.273   0.607   4.867 -0.3734  0.9086 -1.4028
   11MOL    H82 3702   7.302   0.772   5.108 -2.7635 -0.5711 -0.8851
   11MOL    H83 3703   7.447   0.599   5.203  1.6469  3.4138  1.1984
   11MOL    H84 3704   7.500   0.549   5.044 -0.0125  0.2849 -0.4633
   11MOL    H85 3705   7.559   0.824   5.027 -0.0013 -0.9840 -1.2141
   11MOL    H86 3706   0.040   0.768   5.096  0.5391 -0.0232  1.6177
   11MOL    H87 3707   7.732   0.613   5.044  0.2919 -1.6485  2.2051
   11MOL    H88 3708   7.722   0.648   5.212 -1.3736  0.7105  1.2535
   11MOL    H89 3709   7.513   0.797   5.321 -2.8129  1.0180 -0.3968
   11MOL    H90 3710   7.617   0.912   5.251 -1.6070 -0.3131  0.8419
   11MOL    H91 3711   7.442   0.896   5.201 -0.3015 -0.0573 -0.1516
   11MOL    C92 3712   7.219   0.568   5.095 -0.4782  0.2639 -0.6822
   11MOL    C93 3713   7.150   0.585   5.240  0.5573 -0.2828  0.1353
   11MOL    C94 3714   7.055   0.709   5.252  0.5649  0.2839  0.0252
   11MOL    C95 3715   7.034   0.767   5.392  0.0682  0.6291  0.5280
   11MOL    C96 3716   7.161   0.819   5.448 -0.2936 -0.1372  0.6450
   11MOL    C97 3717   6.924   0.870   5.388  0.1980 -0.0606  0.1558
   11MOL    H98 3718   7.139   0.548   5.024 -0.9122 -1.7158  0.3096
   11MOL    H99 3719   7.264   0.469   5.085  0.3178  0.6017 -0.4649
   11MOL   H100 3720   7.232   0.579   5.311  1.3489 -0.3900 -0.7675
   11MOL   H101 3721   6.963   0.705   5.193  0.8167  0.4340 -0.3806
   11MOL   H102 3722   7.107   0.795   5.209 -0.4299  1.2060  0.6078
   11MOL   H103 3723   7.001   0.693   5.465  0.0970  1.2376  1.1672
   11MOL   H104 3724   7.154   0.845   5.553  1.5851  1.7781  0.3187
   11MOL   H105 3725   7.188   0.917   5.408 -0.2346 -0.4680 -0.1396
   11MOL   H106 3726   7.249   0.754   5.444 -0.0943  0.1712 -0.0275
   11MOL   H107 3727   6.939   0.938   5.304 -1.2365 -0.0782 -0.1267
   11MOL   H108 3728   6.904   0.933   5.475  0.9281  2.7455 -1.6415
   11MOL   H109 3729   6.830   0.818   5.368 -0.0586  0.3347  0.3188
   11MOL   C110 3730   7.058   0.470   5.271  0.1145 -0.4687  0.4159
   11MOL   C111 3731   7.142   0.348   5.316 -0.3241 -0.2415  0.4064
   11MOL   C112 3732   7.178   0.365   5.466  0.2091  0.6457  0.2530
   11MOL   C113 3733   7.331   0.392   5.506  0.0927  0.1179 -0.3803
   11MOL   C114 3734   7.427   0.295   5.436  0.4054 -0.4909  0.1679
   11MOL   C115 3735   7.344   0.379   5.658 -0.2549 -0.3083  0.2428
   11MOL   H116 3736   6.995   0.453   5.183 -0.4745  1.0728  0.5300
   11MOL   H117 3737   6.979   0.496   5.342 -0.9975  2.0743 -1.6830
   11MOL   H118 3738   7.227   0.343   5.249  1.3717 -0.2790  2.4866
   11MOL   H119 3739   7.138   0.282   5.524 -1.0142 -0.4517 -2.1307
   11MOL   H120 3740   7.113   0.444   5.506 -0.9342 -0.1167 -0.0651
   11MOL   H121 3741   7.359   0.495   5.483 -0.1534 -0.1779 -2.1206
   11MOL   H122 3742   7.528   0.319   5.471 -0.3269 -0.6845  2.5270
   11MOL   H123 3743   7.426   0.299   5.327  2.8711  1.8839  0.1713
   11MOL   H124 3744   7.400   0.194   5.470 -2.7475  0.1137 -0.4233
   11MOL   H125 3745   7.441   0.415   5.691 -0.0715 -0.2118 -0.3898
   11MOL   H126 3746   7.332   0.282   5.705 -0.8199 -0.2258  0.2749
   11MOL   H127 3747   7.268   0.437   5.711 -0.6110 -2.4245  2.0972
   11MOL   C128 3748   7.065   0.221   5.275 -0.4403  0.7227  0.4077
   11MOL   C129 3749   7.146   0.092   5.272  0.0184  0.8315  0.0663
   11MOL   C130 3750   7.217   0.077   5.131 -0.1692 -0.4059 -0.2244
   11MOL   C131 3751   7.331   7.727   5.127  0.1699 -0.4100  0.1192
   11MOL   C132 3752   7.363   7.701   4.980  0.1455  0.1810  0.3348
   11MOL   C133 3753   7.456   0.037   5.195 -0.2136 -0.2721  0.4292
   11MOL   H134 3754   7.013   0.245   5.183  1.4940 -0.1762 -0.9728
   11MOL   H135 3755   6.986   0.207   5.349 -1.3684  0.6069 -0.5899
   11MOL   H136 3756   7.217   0.100   5.355  0.0365 -3.2164  0.5682
   11MOL   H137 3757   7.135   0.055   5.063  0.3661  0.0729 -1.0348
   11MOL   H138 3758   7.252   0.178   5.110  1.8186 -0.5710  2.0707
   11MOL   H139 3759   7.305   7.634   5.178  4.1615 -1.9521 -0.4914
   11MOL   H140 3760   7.404   0.044   4.949 -1.3154  0.1459 -1.8385
   11MOL   H141 3761   7.279   7.673   4.916  0.5847  1.5357 -0.8451
   11MOL   H142 3762   7.432   7.617   4.967 -1.0942 -0.4327 -2.9071
   11MOL   H143 3763   7.548   0.009   5.144  0.2972 -0.3237  1.3662
   11MOL   H144 3764   7.461   0.145   5.177  0.4570 -0.4437 -0.4636
   11MOL   H145 3765   7.463   0.026   5.303 -2.9891  1.5272  0.8442
   11MOL   C146 3766   7.055   7.724   5.302 -0.2798  0.1740 -0.5143
   11MOL   C147 3767   7.021   7.691   5.444 -0.6974 -0.4131  0.0472
   11MOL   C148 3768   7.113   7.589   5.514  0.1249  0.0118  0.5318
   11MOL   C149 3769   7.260   7.612   5.498  0.0185 -0.2899 -0.8019
   11MOL   C150 3770   7.291   7.728   5.594 -0.5722  0.7128  0.3916
   11MOL   C151 3771   7.338   7.485   5.529 -0.6523 -0.4152 -0.3373
   11MOL   H152 3772   7.094   7.632   5.258 -0.1252 -0.4018  0.7696
   11MOL   H153 3773   6.966   0.001   5.247 -2.2850 -0.8479  2.0576
   11MOL   H154 3774   7.015   0.034   5.497 -0.5273 -0.3163 -0.1098
   11MOL   H155 3775   7.095   7.572   5.620 -0.4314  0.5363  0.5210
   11MOL   H156 3776   7.092   7.492   5.469 -2.5196  0.7661  0.0736
   11MOL   H157 3777   7.272   7.628   5.391 -0.9377 -0.9227 -1.0061
   11MOL   H158 3778   7.288   7.700   5.700 -0.2464  1.1048  0.5062
   11MOL   H159 3779   7.227   0.060   5.568  0.6157  0.8023 -2.3965
   11MOL   H160 3780   7.394   0.005   5.575 -0.1568 -1.1619 -0.4242
   11MOL   H161 3781   7.324   7.445   5.630  2.8759 -0.5127  0.1873
   11MOL   H162 3782   7.446   7.502   5.534 -0.6753  0.0430 -1.3966
   11MOL   H163 3783   7.324   7.406   5.456  1.3999 -0.8636 -0.2815
   11MOL   C164 3784   6.878   7.637   5.457 -0.2835  0.1971  0.1401
   11MOL   C165 3785   6.782   0.009   5.457  0.0071  0.2781  0.1903
   11MOL   C166 3786   6.650   7.728   5.386 -0.9068 -0.2277 -0.5838
   11MOL   C167 3787   6.655   7.735   5.234 -0.4372 -0.0729 -0.1613
   11MOL   C168 3788   6.543   7.664   5.170 -0.1183  0.5801  0.8444
   11MOL   C169 3789   6.654   0.125   5.180 -0.0989 -0.3310 -0.2030
   11MOL   H170 3790   6.865   7.560   5.381 -0.5245 -2.2197  2.5837
   11MOL   H171 3791   6.868   7.595   5.557 -0.6957 -0.4906 -0.1875
   11MOL   H172 3792   6.817   0.100   5.408 -1.8240  1.4822  1.0677
   11MOL   H173 3793   6.613   7.638   5.436 -0.9054 -2.3609 -4.1858
   11MOL   H174 3794   6.582   0.051   5.425 -1.3215 -0.5791 -0.6294
   11MOL   H175 3795   6.749   7.690   5.200  0.2789  0.9334  0.4410
   11MOL   H176 3796   6.444   7.710   5.172 -0.2774  0.2265  1.3315
   11MOL   H177 3797   6.531   7.571   5.227 -1.1274  0.9354  1.2381
   11MOL   H178 3798   6.560   7.643   5.065  0.1758 -1.3072  1.2409
   11MOL   H179 3799   6.753   0.168   5.199 -0.5907  1.3754 -1.3790
   11MOL   H180 3800   6.580   0.188   5.228 -1.0220 -0.7964 -0.9982
   11MOL   H181 3801   6.642   0.119   5.072 -1.2554  0.2414 -0.1080
   11MOL   C182 3802   6.762   0.051   5.601 -0.5196 -0.1952 -0.4240
   11MOL   C183 3803   6.677   0.183   5.626  0.2336 -0.3333  0.2206
   11MOL   C184 3804   6.579   0.171   5.748  0.2854 -0.2595  0.5563
   11MOL   C185 3805   6.452   0.088   5.716  1.2830  0.0529  0.4138
   11MOL   C186 3806   6.391   0.030   5.847 -0.1466 -0.2213 -0.4139
   11MOL   C187 3807   6.346   0.170   5.639 -0.4385  0.3661 -0.7593
   11MOL   H188 3808   6.857   0.080   5.643 -1.6943  1.7191  0.9680
   11MOL   H189 3809   6.723   7.720   5.660  1.2455 -0.8168 -0.1153
   11MOL   H190 3810   6.609   0.207   5.545  1.0789 -1.8498 -0.9826
   11MOL   H191 3811   6.562   0.265   5.800 -2.7610 -0.8629  0.7362
   11MOL   H192 3812   6.631   0.115   5.825  1.4901 -1.1743 -0.8858
   11MOL   H193 3813   6.489   0.000   5.664  0.4125  1.2654 -2.3191
   11MOL   H194 3814   6.319   7.700   5.835  0.8560 -1.2323  0.3386
   11MOL   H195 3815   6.339   0.105   5.906 -1.2614 -0.1144 -1.4986
   11MOL   H196 3816   6.471   7.734   5.903  0.2607  0.5547 -0.3367
   11MOL   H197 3817   6.316   0.250   5.708 -0.5755 -1.1045  0.9199
   11MOL   H198 3818   6.266   0.112   5.594 -0.6526 -1.1286  1.4486
   11MOL   H199 3819   6.396   0.229   5.562  2.5930  1.6667  2.0305
   11MOL   C200 3820   6.770   0.305   5.632  0.0263 -0.6784 -0.1447
   11MOL   C201 3821   6.703   0.445   5.657  0.3297 -0.6240 -0.2325
   11MOL   C202 3822   6.710   0.536   5.525 -0.4090 -0.0345 -0.0534
   11MOL   C203 3823   6.594   0.513   5.423  0.2221  0.2560 -0.1119
   11MOL   C204 3824   6.454   0.552   5.485 -0.0221 -0.0630  0.2675
   11MOL   C205 3825   6.622   0.577   5.294  0.2112 -0.4975  0.8601
   11MOL   H206 3826   6.837   0.304   5.547 -0.0907  0.8097 -0.2658
   11MOL   H207 3827   6.832   0.286   5.720  0.9679 -1.7223 -1.0132
   11MOL   H208 3828   6.597   0.426   5.675 -0.5592  2.5480 -1.7454
   11MOL   H209 3829   6.721   0.641   5.551  2.0482 -0.4954  0.8937
   11MOL   H210 3830   6.803   0.507   5.476  1.3914  1.6215  2.2577
   11MOL   H211 3831   6.594   0.405   5.411 -0.2325  0.2030  0.3681
   11MOL   H212 3832   6.457   0.632   5.559 -0.4173  1.7611 -1.6315
   11MOL   H213 3833   6.403   0.472   5.538 -2.8583  0.0324 -2.2237
   11MOL   H214 3834   6.396   0.587   5.400  1.0908  1.0869 -0.0480
   11MOL   H215 3835   6.718   0.548   5.252  1.4776  0.2584  3.1564
   11MOL   H216 3836   6.618   0.685   5.304 -1.1836 -0.1506 -2.6703
   11MOL   H217 3837   6.550   0.563   5.213 -0.8877  0.3359  1.6765
   11MOL   C218 3838   6.759   0.525   5.774  0.6134  0.5900  0.3917
   11MOL   C219 3839   6.716   0.486   5.919  1.3399 -0.1384 -0.0363
   11MOL   C220 3840   6.589   0.547   5.986  0.4755 -0.7926  0.3840
   11MOL   C221 3841   6.453   0.531   5.909  0.6326 -0.0267 -0.1102
   11MOL   C222 3842   6.381   0.413   5.970 -0.4905  0.5553 -0.9404
   11MOL   C223 3843   6.367   0.651   5.918  0.0846  0.1298  0.4229
   11MOL   H224 3844   6.866   0.533   5.754  0.5833  1.2374  0.4634
   11MOL   H225 3845   6.737   0.631   5.763 -0.5243  0.1336 -2.1460
   11MOL   H226 3846   6.695   0.379   5.927 -0.2431  0.0809 -1.0923
   11MOL   H227 3847   6.587   0.500   6.084 -0.0520  0.1916  0.8527
   11MOL   H228 3848   6.600   0.653   6.010 -2.1934 -0.6019  0.8502
   11MOL   H229 3849   6.465   0.499   5.806  1.0245  0.5577 -0.2448
   11MOL   H230 3850   6.445   0.325   5.979 -0.9972  0.2069 -0.7533
   11MOL   H231 3851   6.354   0.440   6.072  0.2761  0.8320 -0.8075
   11MOL   H232 3852   6.289   0.379   5.922  0.9719 -3.1110 -1.3406
   11MOL   H233 3853   6.325   0.676   6.015 -1.8045 -1.6765  0.1039
   11MOL   H234 3854   6.412   0.740   5.874 -0.8530  0.5917  0.3803
   11MOL   H235 3855   6.275   0.636   5.861  1.2462 -0.0627 -1.4501
   11MOL   C236 3856   6.838   0.496   6.012  0.1224 -0.1232  0.7601
   11MOL   C237 3857   6.908   0.635   6.019  0.0877  0.7714 -0.8255
   11MOL   C238 3858   7.061   0.609   6.047 -0.5233 -0.3227  0.0176
   11MOL   C239 3859   7.146   0.560   5.930  0.5269 -0.2704  0.5760
   11MOL   C240 3860   7.143   0.661   5.817 -0.4143 -0.4781 -0.3279
   11MOL   C241 3861   7.295   0.546   5.967 -0.1235 -0.1278  0.2528
   11MOL   H242 3862   6.914   0.437   5.961 -1.1664  0.5811 -2.0866
   11MOL   H243 3863   6.824   0.452   6.111  1.6103 -0.6728  0.7314
   11MOL   H244 3864   6.888   0.695   5.930 -1.7916 -1.6045 -2.0556
   11MOL   H245 3865   7.068   0.539   6.131 -1.2068  1.3252  1.4943
   11MOL   H246 3866   7.114   0.691   6.096 -1.4176  0.9126 -1.0575
   11MOL   H247 3867   7.117   0.461   5.896 -1.4104  0.6544 -0.5331
   11MOL   H248 3868   7.180   0.762   5.837  2.0711 -1.1184 -1.5285
   11MOL   H249 3869   7.040   0.678   5.788 -0.2461  0.6350 -0.3002
   11MOL   H250 3870   7.201   0.630   5.731 -0.7998  0.3171 -0.8830
   11MOL   H251 3871   7.334   0.643   5.997  0.2458 -0.2003  0.0062
   11MOL   H252 3872   7.367   0.504   5.897 -0.4191 -1.3367  0.6646
   11MOL   H253 3873   7.304   0.483   6.056  2.1607  1.1845  0.9791
   11MOL   C254 3874   6.844   0.712   6.142 -0.0997  0.2963  0.2218
   11MOL   C255 3875   6.794   0.854   6.109 -0.2136  0.3098 -0.2397
   11MOL   C256 3876   6.699   0.920   6.215  0.2358  0.2313 -0.3505
   11MOL   C257 3877   6.554   0.872   6.220  0.6225  0.0678  0.0812
   11MOL   C258 3878   6.465   0.928   6.111 -0.0690  0.1045 -0.3686
   11MOL   C259 3879   6.496   0.898   6.360 -0.3527  0.2354 -0.0289
   11MOL   H260 3880   6.765   0.652   6.189  1.2757 -0.2839  1.8489
   11MOL   H261 3881   6.916   0.711   6.223 -1.1329 -1.8849  1.1609
   11MOL   H262 3882   6.735   0.848   6.017  0.0501  1.3345 -0.4872
   11MOL   H263 3883   6.708   1.028   6.215 -2.1200  0.4814 -3.0559
   11MOL   H264 3884   6.745   0.887   6.309 -0.1513 -2.3428 -1.0354
   11MOL   H265 3885   6.555   0.763   6.211  2.0635  0.0639  0.1721
   11MOL   H266 3886   6.458   1.036   6.104  3.4766  0.3907 -0.1175
   11MOL   H267 3887   6.365   0.886   6.116 -0.4435  0.7038 -2.1898
   11MOL   H268 3888   6.506   0.890   6.017  0.7186  1.3206 -0.5198
   11MOL   H269 3889   6.403   0.841   6.369  0.4112 -1.0440 -0.1593
   11MOL   H270 3890   6.552   0.858   6.445 -2.7953 -1.1749  0.9843
   11MOL   H271 3891   6.478   1.002   6.388  2.5539  0.8612 -0.3751
   11MOL   C272 3892   6.912   0.952   6.083 -0.5822  0.3365  0.4763
   11MOL   C273 3893   6.877   1.081   6.003  0.6751  0.0085  0.0988
   11MOL   C274 3894   6.993   1.181   6.005 -0.2627 -0.1181 -0.0120
   11MOL   C275 3895   7.006   1.271   6.128  0.3714  0.0543  0.1947
   11MOL   C276 3896   6.939   1.406   6.099  0.4455 -0.5259  0.1603
   11MOL   C277 3897   7.147   1.292   6.160 -0.0848 -0.0459 -0.0902
   11MOL   H278 3898   6.959   0.984   6.176 -0.3084  2.8158 -0.4835
   11MOL   H279 3899   6.988   0.895   6.029 -0.8069  0.4809  0.0069
   11MOL   H280 3900   6.779   1.113   6.040  1.2207  0.6090  1.0376
   11MOL   H281 3901   6.984   1.249   5.920 -2.0738  0.1471  0.3706
   11MOL   H282 3902   7.087   1.126   5.999  0.2038  0.7439 -0.6921
   11MOL   H283 3903   6.963   1.218   6.213 -2.1758 -1.1713 -1.7871
   11MOL   H284 3904   6.957   1.448   6.000 -0.3594  1.2066  0.7275
   11MOL   H285 3905   6.831   1.396   6.112  0.4586  1.9216  2.4799
   11MOL   H286 3906   6.977   1.483   6.165 -3.1622  1.2868  0.2508
   11MOL   H287 3907   7.207   1.202   6.175  0.4391  0.3800  0.4268
   11MOL   H288 3908   7.194   1.350   6.080 -0.0313  0.9257  0.6368
   11MOL   H289 3909   7.166   1.351   6.250 -0.0429 -1.8773  1.1140
   11MOL   C290 3910   6.858   1.052   5.851 -0.0542 -0.3668 -0.1018
   11MOL   C291 3911   6.761   1.159   5.796  0.2207  0.0357 -0.5533
   11MOL   C292 3912   6.785   1.186   5.643  0.4387 -0.6047  0.4556
   11MOL   C293 3913   6.922   1.254   5.612 -0.0870 -0.2141  0.6291
   11MOL   C294 3914   6.987   1.211   5.485  0.9702  0.2365 -0.4668
   11MOL   C295 3915   6.910   1.402   5.616  0.2617 -0.3418 -0.2101
   11MOL   H296 3916   6.958   1.046   5.807 -0.6962 -0.3159 -1.5916
   11MOL   H297 3917   6.808   0.957   5.838 -0.5381 -0.3968  1.8972
   11MOL   H298 3918   6.776   1.253   5.850  0.1410  0.2552 -0.9073
   11MOL   H299 3919   6.710   1.256   5.605 -0.1758  0.0207  2.7233
   11MOL   H300 3920   6.772   1.092   5.589 -1.5206 -0.4370  0.5938
   11MOL   H301 3921   6.979   1.222   5.700  0.0600  1.3131  1.0935
   11MOL   H302 3922   7.070   1.276   5.458  2.4579 -1.0537  0.9466
   11MOL   H303 3923   6.926   1.191   5.396 -0.5242  1.4057  0.2719
   11MOL   H304 3924   7.047   1.126   5.516 -0.7383 -0.2838  1.5580
   11MOL   H305 3925   6.876   1.447   5.522 -0.4205  1.5830  0.9410
   11MOL   H306 3926   7.006   1.442   5.647  0.1622 -1.5907  1.8238
   11MOL   H307 3927   6.833   1.432   5.687 -0.8644  0.3645 -1.6947
   11MOL   C308 3928   6.612   1.132   5.835  0.2711 -0.0775  0.4138
   11MOL   C309 3929   6.501   1.234   5.783 -0.6385 -0.2784  1.1571
   11MOL   C310 3930   6.407   1.168   5.681  0.1215 -0.4949  0.2020
   11MOL   C311 3931   6.319   1.272   5.600 -0.0522  0.4695  0.3947
   11MOL   C312 3932   6.396   1.369   5.504  0.3699 -0.6261 -0.4109
   11MOL   C313 3933   6.202   1.195   5.520 -0.2383  0.2918 -0.1489
   11MOL   H314 3934   6.578   1.040   5.786  2.2283 -0.5120 -0.1577
   11MOL   H315 3935   6.602   1.118   5.942  1.7760  2.7394  0.9731
   11MOL   H316 3936   6.555   1.316   5.735  0.5556 -0.1113  2.7102
   11MOL   H317 3937   6.336   1.102   5.729  0.7683 -0.7284  0.8414
   11MOL   H318 3938   6.469   1.114   5.608  2.5899  1.8211  0.4845
   11MOL   H319 3939   6.258   1.328   5.672 -0.7917 -1.4374  1.3006
   11MOL   H320 3940   6.464   1.436   5.556 -0.2352 -0.9544  0.8202
   11MOL   H321 3941   6.329   1.444   5.463  1.5882  1.0476  0.5975
   11MOL   H322 3942   6.454   1.322   5.425  0.2140  1.3025 -1.7031
   11MOL   H323 3943   6.142   1.127   5.580  0.6573 -0.0231  0.3906
   11MOL   H324 3944   6.133   1.267   5.476 -0.3595  0.6179  0.5622
   11MOL   H325 3945   6.238   1.133   5.439  0.5621 -1.6834  1.6821
   11MOL   C326 3946   6.424   1.287   5.907 -0.0736  0.0188  0.8595
   11MOL   C327 3947   6.502   1.374   6.002 -0.9887  0.8007 -0.6116
   11MOL   C328 3948   6.425   1.410   6.133 -0.4927 -0.2525  0.2131
   11MOL   C329 3949   6.422   1.305   6.244  0.1433  0.5693  0.0503
   11MOL   C330 3950   6.563   1.288   6.299 -0.2698 -0.0388 -0.3270
   11MOL   C331 3951   6.325   1.355   6.348 -0.0754  0.6030 -0.1928
   11MOL   H332 3952   6.394   1.200   5.965  0.3024 -1.2981 -0.8634
   11MOL   H333 3953   6.330   1.334   5.878  0.9027  1.4008 -0.1335
   11MOL   H334 3954   6.599   1.324   6.015 -1.4438  0.6430  2.3659
   11MOL   H335 3955   6.459   1.504   6.179  0.9388 -1.5696  1.9333
   11MOL   H336 3956   6.324   1.438   6.103 -0.8280 -1.0154  0.6039
   11MOL   H337 3957   6.383   1.215   6.197  0.9154 -0.1262  0.7296
   11MOL   H338 3958   6.611   1.381   6.329  2.2465 -1.1880 -0.6661
   11MOL   H339 3959   6.615   1.217   6.235 -0.7019 -2.3923  1.8333
   11MOL   H340 3960   6.563   1.235   6.395  1.6811  0.6808  0.0865
   11MOL   H341 3961   6.347   1.298   6.438 -0.9341 -0.0317 -0.3753
   11MOL   H342 3962   6.343   1.457   6.384 -1.6051  0.8102  0.0265
   11MOL   H343 3963   6.218   1.350   6.324 -0.1128 -1.0667  0.2781
   11MOL   C344 3964   6.518   1.506   5.927 -0.3364 -0.7929 -0.1978
   11MOL   C345 3965   6.655   1.570   5.922  0.1211  0.5480 -0.2842
   11MOL   C346 3966   6.650   1.713   5.853  0.1283  0.1291 -1.1117
   11MOL   C347 3967   6.776   1.797   5.850 -0.6454 -0.1487 -0.2844
   11MOL   C348 3968   6.752   1.927   5.781 -0.0071  0.1250 -0.0774
   11MOL   C349 3969   6.898   1.709   5.800 -0.6329 -0.1375 -0.2536
   11MOL   H350 3970   6.459   1.584   5.975  2.1135  3.0252 -3.0533
   11MOL   H351 3971   6.478   1.497   5.827  2.0324 -1.6644 -1.1057
   11MOL   H352 3972   6.722   1.511   5.859 -0.2204  0.2786 -0.3957
   11MOL   H353 3973   6.608   1.704   5.752 -1.4879 -1.3351 -0.3342
   11MOL   H354 3974   6.579   1.770   5.912  0.2262  0.1747 -1.0401
   11MOL   H355 3975   6.788   1.820   5.956 -0.1392  3.4245 -1.0648
   11MOL   H356 3976   6.649   1.958   5.760 -0.3447 -0.6069  0.5022
   11MOL   H357 3977   6.799   2.007   5.839 -0.1381  1.4243 -1.7214
   11MOL   H358 3978   6.806   1.940   5.687  0.5498  0.3109  0.2705
   11MOL   H359 3979   6.989   1.762   5.772  1.4324 -2.9547  0.8667
   11MOL   H360 3980   6.879   1.670   5.700  0.6910 -1.1806 -0.1167
   11MOL   H361 3981   6.926   1.623   5.861 -0.2976  0.4063  0.3733
   11MOL   H362 3982   6.695   1.581   6.023  0.6811 -1.0364 -0.3196
   12MOL     C1 3983   6.064   3.451   7.273  0.2941 -0.4785  0.0923
   12MOL     C2 3984   6.047   3.556   7.157 -0.4821  0.3016 -0.1202
   12MOL     C3 3985   6.168   3.526   7.059  0.2747 -0.8333 -0.5465
   12MOL     C4 3986   6.147   3.401   6.970 -0.2405 -0.6373 -0.1702
   12MOL     C5 3987   6.283   3.344   6.927 -0.5586 -0.2265  0.7766
   12MOL     C6 3988   6.061   3.439   6.841 -0.4967  0.0535  0.4985
   12MOL     H7 3989   5.964   3.434   7.314  0.2323  0.4929  0.3455
   12MOL     H8 3990   6.116   3.358   7.250  0.8956  0.1342 -1.0556
   12MOL     H9 3991   5.953   3.528   7.109  1.9445 -4.7346 -2.3032
   12MOL    H10 3992   6.202   3.613   7.002 -1.2783  1.1250  1.4199
   12MOL    H11 3993   6.253   3.519   7.126 -0.1584 -1.1044 -0.0208
   12MOL    H12 3994   6.093   3.326   7.028  2.1112 -1.0422  1.5556
   12MOL    H13 3995   6.271   3.254   6.868 -0.0554 -0.3621  0.8791
   12MOL    H14 3996   6.341   3.416   6.870 -0.8206  0.2964  1.1627
   12MOL    H15 3997   6.345   3.323   7.014 -0.8968 -1.5147  0.7127
   12MOL    H16 3998   5.967   3.384   6.840 -0.9425  0.8175 -1.7837
   12MOL    H17 3999   6.110   3.435   6.744  0.3053 -1.0616  0.9456
   12MOL    H18 4000   6.032   3.544   6.845  1.0675  0.4494  2.0245
   12MOL    H19 4001   6.130   3.492   7.349 -2.0178  1.0733  1.3629
   12MOL    C20 4002   6.043   3.706   7.201  0.5331 -0.1029  0.2462
   12MOL    C21 4003   5.962   3.785   7.099  0.0421 -1.1585 -0.1361
   12MOL    C22 4004   5.808   3.777   7.124 -0.4363 -0.1190 -0.1637
   12MOL    C23 4005   5.715   3.809   7.007  0.2993  0.2811 -0.0335
   12MOL    C24 4006   5.713   3.700   6.902  0.3869 -0.2345  0.3933
   12MOL    C25 4007   5.565   3.820   7.055 -0.0830  1.4302 -0.3624
   12MOL    H26 4008   6.004   3.697   7.302  3.4363  2.9459  1.7413
   12MOL    H27 4009   6.147   3.736   7.213  0.8340  0.1225 -2.5740
   12MOL    H28 4010   5.976   3.736   7.003 -0.5193 -1.2322 -0.1780
   12MOL    H29 4011   5.793   3.830   7.218  1.0042  1.3083 -0.6925
   12MOL    H30 4012   5.785   3.676   7.156  1.1573 -0.4222  0.0773
   12MOL    H31 4013   5.749   3.902   6.963  0.0910  0.7577  0.8016
   12MOL    H32 4014   5.649   3.724   6.817 -3.7111 -1.2093  3.1020
   12MOL    H33 4015   5.687   3.604   6.945 -0.2806  0.1707  0.9059
   12MOL    H34 4016   5.812   3.675   6.863 -0.5095 -0.3971 -1.8597
   12MOL    H35 4017   5.498   3.825   6.970  0.8792 -1.2700 -1.3421
   12MOL    H36 4018   5.530   3.732   7.109  1.2136 -0.5848 -2.7027
   12MOL    H37 4019   5.551   3.900   7.128  0.5878  1.4062 -0.2010
   12MOL    C38 4020   6.011   3.932   7.117 -0.2149  0.7499  0.2200
   12MOL    C39 4021   6.114   3.971   7.002  0.8293  0.2026 -0.5369
   12MOL    C40 4022   6.194   4.107   7.038 -0.3120  0.3697  0.8872
   12MOL    C41 4023   6.280   4.102   7.169  0.0278  0.0008  0.2976
   12MOL    C42 4024   6.333   4.242   7.188  0.4517  0.3156 -0.9954
   12MOL    C43 4025   6.389   3.993   7.167  0.1906 -0.0442 -0.0184
   12MOL    H44 4026   6.062   3.940   7.213  0.5562  1.6732 -0.2611
   12MOL    H45 4027   5.941   4.015   7.126 -0.2791  0.9812 -2.1832
   12MOL    H46 4028   6.190   3.893   7.000  0.6793 -0.0386  1.7380
   12MOL    H47 4029   6.125   4.191   7.050  1.0490  1.3923  1.6768
   12MOL    H48 4030   6.261   4.146   6.962  0.8859 -2.4215  0.4439
   12MOL    H49 4031   6.214   4.064   7.248 -0.0785 -1.7044 -0.5801
   12MOL    H50 4032   6.412   4.232   7.263 -1.9879 -2.5048  1.3446
   12MOL    H51 4033   6.380   4.282   7.098  1.9727 -0.5318 -0.5982
   12MOL    H52 4034   6.266   4.320   7.224  0.8506 -0.2699  1.1031
   12MOL    H53 4035   6.448   3.987   7.259 -0.9011 -0.2171  0.6818
   12MOL    H54 4036   6.455   4.009   7.082 -0.3743 -2.9559 -1.0727
   12MOL    H55 4037   6.334   3.900   7.178 -0.2861  0.4177  1.6977
   12MOL    C56 4038   6.056   3.990   6.859  0.1912  0.5204  0.3619
   12MOL    C57 4039   6.150   3.966   6.740 -0.2877 -0.2675 -0.5595
   12MOL    C58 4040   6.108   4.032   6.609 -0.5483 -0.4081  0.1990
   12MOL    C59 4041   5.959   4.042   6.579 -0.5179 -0.3691  0.6873
   12MOL    C60 4042   5.893   3.902   6.540 -0.0982  0.7001  0.5353
   12MOL    C61 4043   5.932   4.137   6.465 -0.0067 -0.5539  0.0177
   12MOL    H62 4044   6.023   4.094   6.851  0.2215  0.3572 -2.3154
   12MOL    H63 4045   5.972   3.922   6.846  0.6589  0.3126 -1.6295
   12MOL    H64 4046   6.236   4.015   6.784 -0.1293 -0.4902 -0.6197
   12MOL    H65 4047   6.145   4.135   6.606 -0.2079 -0.5704 -4.1628
   12MOL    H66 4048   6.167   4.000   6.524 -0.9551 -0.2133 -0.1603
   12MOL    H67 4049   5.908   4.077   6.669 -3.0370  0.0566 -0.8701
   12MOL    H68 4050   5.923   3.872   6.439  0.2999  2.7395  0.0364
   12MOL    H69 4051   5.785   3.910   6.538 -0.0476  1.1920 -0.8627
   12MOL    H70 4052   5.918   3.823   6.612  0.7212  0.6133  0.1705
   12MOL    H71 4053   5.825   4.147   6.450  0.0031 -2.2297 -1.1903
   12MOL    H72 4054   5.976   4.105   6.371 -1.5184 -0.9026 -0.5774
   12MOL    H73 4055   5.963   4.240   6.485  0.2724 -0.9709  1.8919
   12MOL    C74 4056   6.189   3.816   6.718 -0.3140  0.2125 -0.6387
   12MOL    C75 4057   6.334   3.769   6.690  0.7766  0.2126 -0.0861
   12MOL    C76 4058   6.431   3.836   6.787  0.1289  0.6977 -0.0386
   12MOL    C77 4059   6.578   3.792   6.781  0.0151 -0.1013 -0.8756
   12MOL    C78 4060   6.585   3.644   6.801 -0.0564 -0.2541 -0.1423
   12MOL    C79 4061   6.664   3.875   6.884  0.4430  0.2354  0.0283
   12MOL    H80 4062   6.120   3.764   6.651 -1.0302  3.5185 -2.5542
   12MOL    H81 4063   6.160   3.762   6.808 -0.8683 -1.5903 -1.8546
   12MOL    H82 4064   6.334   3.663   6.716 -1.5353  0.0730 -0.5343
   12MOL    H83 4065   6.424   3.943   6.769  0.3698  0.4843 -1.4871
   12MOL    H84 4066   6.385   3.817   6.884  2.2001 -0.6199  0.7215
   12MOL    H85 4067   6.609   3.825   6.682  1.6373 -1.8147 -0.9768
   12MOL    H86 4068   6.690   3.622   6.821 -0.1779 -0.3382  0.4133
   12MOL    H87 4069   6.558   3.585   6.713 -1.3578 -1.6828  1.1887
   12MOL    H88 4070   6.541   3.600   6.890  2.8164 -2.1644  0.4176
   12MOL    H89 4071   6.767   3.843   6.870  0.4597  0.3039 -0.0047
   12MOL    H90 4072   6.658   3.983   6.873  1.5641  0.0210 -3.0072
   12MOL    H91 4073   6.628   3.849   6.984 -3.6073  1.5791 -0.9758
   12MOL    C92 4074   6.383   3.783   6.547  0.5581 -0.4179 -0.5159
   12MOL    C93 4075   6.292   3.721   6.434  0.0206 -0.7602  0.4232
   12MOL    C94 4076   6.352   3.752   6.297  0.4945 -0.5175 -0.3304
   12MOL    C95 4077   6.357   3.895   6.238  0.4516  0.3262 -0.1813
   12MOL    C96 4078   6.447   3.916   6.116  0.0968  0.3663  0.2972
   12MOL    C97 4079   6.210   3.935   6.200 -0.2211 -0.4059  0.9906
   12MOL    H98 4080   6.378   3.890   6.529  2.3590  0.0472  1.4735
   12MOL    H99 4081   6.485   3.746   6.531  1.5440  1.5238  1.0207
   12MOL   H100 4082   6.197   3.775   6.435 -0.3322 -1.3586 -0.2501
   12MOL   H101 4083   6.295   3.687   6.230 -0.1185  0.3247 -0.6286
   12MOL   H102 4084   6.453   3.711   6.302  0.3025 -0.8186  1.4429
   12MOL   H103 4085   6.393   3.961   6.317  2.8734  0.2466 -1.1751
   12MOL   H104 4086   6.549   3.885   6.139 -0.7737 -0.1815  3.7939
   12MOL   H105 4087   6.461   4.019   6.084  1.8783  0.3882  1.0705
   12MOL   H106 4088   6.417   3.856   6.031  2.7997 -3.1446  1.7109
   12MOL   H107 4089   6.134   3.900   6.270 -2.2937  0.6093 -0.6912
   12MOL   H108 4090   6.163   3.892   6.112 -0.2200 -1.6524  1.5831
   12MOL   H109 4091   6.190   4.042   6.191 -0.1455 -0.2688  2.2885
   12MOL   C110 4092   6.269   3.568   6.464 -0.4207 -0.5655 -0.6192
   12MOL   C111 4093   6.148   3.505   6.389 -0.3002  0.4629 -0.0580
   12MOL   C112 4094   6.155   3.350   6.403  0.2181  0.3474  0.8441
   12MOL   C113 4095   6.262   3.277   6.325 -0.5573  0.1720 -0.3043
   12MOL   C114 4096   6.259   3.324   6.176  0.2451 -0.1812 -0.8873
   12MOL   C115 4097   6.254   3.123   6.352  0.7416 -0.5243 -0.4953
   12MOL   H116 4098   6.246   3.552   6.569  1.1871 -0.6634 -0.2720
   12MOL   H117 4099   6.370   3.529   6.449  0.4615  1.8512 -1.0966
   12MOL   H118 4100   6.152   3.532   6.284 -2.0159  2.3364  0.3309
   12MOL   H119 4101   6.055   3.313   6.380 -0.9727  3.5238  0.6875
   12MOL   H120 4102   6.184   3.322   6.504  0.8317 -1.0820  0.2810
   12MOL   H121 4103   6.362   3.311   6.352 -0.1954  0.0724 -1.4840
   12MOL   H122 4104   6.306   3.247   6.115 -0.8686 -1.8941  0.3776
   12MOL   H123 4105   6.319   3.414   6.162  1.2510 -0.6924  0.0088
   12MOL   H124 4106   6.162   3.348   6.133  0.2128 -0.0657 -0.7512
   12MOL   H125 4107   6.331   3.087   6.283  0.1389  1.1192 -2.0673
   12MOL   H126 4108   6.152   3.095   6.327  0.2137 -0.4201  1.4638
   12MOL   H127 4109   6.284   3.090   6.451  0.1825 -2.4563 -0.9489
   12MOL   C128 4110   6.010   3.560   6.439  0.5334 -0.0457 -0.0062
   12MOL   C129 4111   5.894   3.556   6.332  1.0343 -0.3029  0.3253
   12MOL   C130 4112   5.901   3.679   6.233 -0.0848  0.1227 -0.5609
   12MOL   C131 4113   5.862   3.646   6.088 -0.6225  0.2360  0.4284
   12MOL   C132 4114   5.809   3.761   6.001 -0.0783  0.2835 -0.3133
   12MOL   C133 4115   5.962   3.572   5.998 -0.5567  0.0428 -1.2031
   12MOL   H134 4116   6.021   3.666   6.461  1.2491 -0.2665  0.7565
   12MOL   H135 4117   5.978   3.511   6.531  0.4589 -2.0283 -1.0454
   12MOL   H136 4118   5.911   3.471   6.266 -0.0555  0.3326 -0.7986
   12MOL   H137 4119   5.827   3.747   6.273 -0.3591 -1.6759  2.1071
   12MOL   H138 4120   6.002   3.720   6.235  0.4646 -1.2369  0.6124
   12MOL   H139 4121   5.772   3.586   6.087 -0.0838 -0.5706 -0.8563
   12MOL   H140 4122   5.765   3.728   5.907  0.9012 -0.7052 -0.4372
   12MOL   H141 4123   5.883   3.837   5.974 -0.3876  0.3062 -1.1375
   12MOL   H142 4124   5.740   3.818   6.063  1.2753  0.3657  1.1504
   12MOL   H143 4125   5.927   3.564   5.895 -0.7919 -0.8457 -1.0497
   12MOL   H144 4126   6.058   3.624   5.985  0.1207 -0.9286 -0.1496
   12MOL   H145 4127   5.999   3.475   6.029  1.9362  0.9917 -1.0460
   12MOL   C146 4128   5.753   3.550   6.387 -0.5786 -0.2514 -0.2172
   12MOL   C147 4129   5.709   3.412   6.443  0.0632  0.0076  0.2565
   12MOL   C148 4130   5.603   3.336   6.362  0.1486  0.2904 -0.7940
   12MOL   C149 4131   5.637   3.307   6.215  0.1449 -0.1402 -0.1122
   12MOL   C150 4132   5.761   3.218   6.191  0.2281 -0.2226  0.7324
   12MOL   C151 4133   5.516   3.236   6.145  0.1276  0.3572  0.2201
   12MOL   H152 4134   5.681   3.595   6.317 -0.1525 -1.7152 -1.6243
   12MOL   H153 4135   5.742   3.630   6.460 -2.6656  2.0139 -2.8679
   12MOL   H154 4136   5.797   3.351   6.424 -1.4892 -2.1083 -0.2214
   12MOL   H155 4137   5.592   3.241   6.415  3.1741  0.0810 -0.4527
   12MOL   H156 4138   5.511   3.392   6.378  1.8883  2.8275  0.7271
   12MOL   H157 4139   5.658   3.401   6.165  1.6832  0.0605  0.8571
   12MOL   H158 4140   5.743   3.126   6.248 -3.0759 -0.6597 -0.8731
   12MOL   H159 4141   5.861   3.251   6.217  1.3169 -3.0457  0.2607
   12MOL   H160 4142   5.770   3.197   6.084 -0.8812 -0.5139  0.6847
   12MOL   H161 4143   5.509   3.239   6.036 -0.0021 -2.6086  0.0872
   12MOL   H162 4144   5.421   3.280   6.175 -0.1041  1.6061 -2.2427
   12MOL   H163 4145   5.527   3.136   6.187 -0.9114  0.0144 -0.3110
   12MOL   C164 4146   5.691   3.419   6.599  0.6216 -0.1131  0.1403
   12MOL   C165 4147   5.670   3.285   6.676 -0.0485 -0.4339  0.3256
   12MOL   C166 4148   5.799   3.206   6.679 -0.0344  0.0846  0.0207
   12MOL   C167 4149   5.796   3.087   6.579 -0.1466  0.7846 -0.2330
   12MOL   C168 4150   5.946   3.043   6.557  0.5219  0.3133  0.2625
   12MOL   C169 4151   5.714   2.974   6.645  0.2322  0.8160  0.5016
   12MOL   H170 4152   5.769   3.470   6.654 -0.2943 -0.0474  1.4085
   12MOL   H171 4153   5.606   3.483   6.624  1.6694  0.4194  2.5211
   12MOL   H172 4154   5.592   3.232   6.622  0.3538 -1.3424  0.6381
   12MOL   H173 4155   5.879   3.273   6.648 -1.5682  1.4039 -1.2402
   12MOL   H174 4156   5.829   3.167   6.776 -0.4254  0.2803  0.2234
   12MOL   H175 4157   5.750   3.110   6.482 -2.0152 -0.5073  0.3275
   12MOL   H176 4158   5.984   3.007   6.652 -1.2474  2.7667  1.9501
   12MOL   H177 4159   6.007   3.125   6.517  0.7798  0.2672  0.5650
   12MOL   H178 4160   5.966   2.952   6.499  0.5417  1.4653 -1.5968
   12MOL   H179 4161   5.748   2.956   6.747 -3.4598 -1.2688  1.4567
   12MOL   H180 4162   5.723   2.879   6.592  1.6574  1.9142 -1.2579
   12MOL   H181 4163   5.607   2.997   6.638 -1.0804 -4.2931  1.9101
   12MOL   C182 4164   5.625   3.314   6.820 -0.8347 -0.4004  0.0421
   12MOL   C183 4165   5.556   3.203   6.901 -0.0698 -0.5266  0.4505
   12MOL   C184 4166   5.528   3.272   7.039 -0.0349  0.0896 -0.8071
   12MOL   C185 4167   5.608   3.252   7.172  1.2062  0.1981 -0.4593
   12MOL   C186 4168   5.608   3.119   7.233  0.3283 -0.1610  0.2560
   12MOL   C187 4169   5.747   3.305   7.162  0.2277  0.6796 -0.0361
   12MOL   H188 4170   5.554   3.397   6.826 -0.9444 -0.5099  0.2632
   12MOL   H189 4171   5.711   3.358   6.870  0.5407 -1.6238 -1.2270
   12MOL   H190 4172   5.631   3.124   6.910  0.6856  0.0952 -0.3132
   12MOL   H191 4173   5.429   3.233   7.065  0.6509 -0.8705  0.4132
   12MOL   H192 4174   5.518   3.380   7.031 -1.4828  0.0734  0.4689
   12MOL   H193 4175   5.569   3.315   7.252  0.0784 -1.6238  0.4671
   12MOL   H194 4176   5.625   3.142   7.339 -1.1701  0.9722  0.2751
   12MOL   H195 4177   5.680   3.053   7.186 -0.5459  0.0662 -1.4516
   12MOL   H196 4178   5.508   3.074   7.231 -0.5870  1.8766 -1.6604
   12MOL   H197 4179   5.802   3.255   7.082  1.3037 -0.4915  1.4151
   12MOL   H198 4180   5.796   3.315   7.259  0.1768 -1.0920  0.1775
   12MOL   H199 4181   5.749   3.406   7.119 -0.5628  0.4339 -0.6741
   12MOL   C200 4182   5.441   3.144   6.826  0.3695 -0.2438  0.2671
   12MOL   C201 4183   5.372   3.029   6.897  0.0015  0.2834  0.6958
   12MOL   C202 4184   5.460   2.899   6.889  0.0556  0.3117  0.3596
   12MOL   C203 4185   5.411   2.776   6.966  0.1331  1.0258 -0.2008
   12MOL   C204 4186   5.496   2.651   6.926 -0.0086  0.2285 -0.1262
   12MOL   C205 4187   5.428   2.786   7.117  0.2643 -0.5835 -0.0959
   12MOL   H206 4188   5.464   3.115   6.723  4.6509 -1.5623  1.5168
   12MOL   H207 4189   5.367   3.222   6.805 -0.0282 -0.8794 -0.7661
   12MOL   H208 4190   5.355   3.055   7.001 -0.1799  0.6764  0.5684
   12MOL   H209 4191   5.476   2.868   6.786  0.4758  0.7239  0.2970
   12MOL   H210 4192   5.557   2.940   6.916  1.6423 -1.3963 -2.5474
   12MOL   H211 4193   5.303   2.766   6.953  0.0744 -0.5987  1.2575
   12MOL   H212 4194   5.507   2.646   6.818 -3.8900  0.9628 -0.6072
   12MOL   H213 4195   5.464   2.552   6.960  1.9553 -0.4806 -0.2405
   12MOL   H214 4196   5.600   2.658   6.960  0.5038 -1.1537 -1.3513
   12MOL   H215 4197   5.397   2.695   7.167  1.9016 -0.6398  0.8551
   12MOL   H216 4198   5.362   2.862   7.160  1.6992 -0.0096  1.1588
   12MOL   H217 4199   5.530   2.807   7.149  0.0893 -1.2556  0.9212
   12MOL   C218 4200   5.230   2.999   6.843  0.3244  0.0972  0.1200
   12MOL   C219 4201   5.227   2.982   6.691 -0.4426  0.2421 -0.0769
   12MOL   C220 4202   5.155   3.098   6.619  0.1242 -0.2640  0.4380
   12MOL   C221 4203   5.154   3.093   6.463  0.4812  0.0741  0.3446
   12MOL   C222 4204   5.045   3.183   6.408 -0.8101  0.3941 -0.1630
   12MOL   C223 4205   5.292   3.121   6.401  0.1645 -0.2695  0.1772
   12MOL   H224 4206   5.172   2.931   6.905  1.0209 -1.0187 -0.4471
   12MOL   H225 4207   5.174   3.090   6.865 -0.9253 -0.7915  0.6939
   12MOL   H226 4208   5.324   2.979   6.640 -0.3177  0.0144  0.1705
   12MOL   H227 4209   5.054   3.103   6.658  1.4577 -2.1791  4.4669
   12MOL   H228 4210   5.197   3.191   6.657  2.2045 -0.9720 -0.0201
   12MOL   H229 4211   5.130   2.998   6.416  0.9881 -0.3655  0.9782
   12MOL   H230 4212   4.942   3.160   6.435  0.6512 -1.8329  3.9793
   12MOL   H231 4213   5.065   3.288   6.429 -0.2743  0.2256  0.1874
   12MOL   H232 4214   5.044   3.176   6.299 -1.4643  2.0209 -0.2822
   12MOL   H233 4215   5.293   3.117   6.292  0.8003  1.5619  0.0801
   12MOL   H234 4216   5.331   3.221   6.419  3.3509 -1.3994 -0.1439
   12MOL   H235 4217   5.371   3.059   6.443 -0.4715  1.0203  3.4613
   12MOL   C236 4218   5.179   2.836   6.663  0.1085  0.8409  0.6998
   12MOL   C237 4219   5.029   2.812   6.660 -0.4229 -0.2170 -0.0489
   12MOL   C238 4220   4.978   2.737   6.788 -0.4700  0.2788  0.1566
   12MOL   C239 4221   4.848   2.787   6.848 -0.8929  1.2152 -0.5856
   12MOL   C240 4222   4.783   2.677   6.926  0.0704 -0.5249  0.3834
   12MOL   C241 4223   4.869   2.921   6.929 -0.3818 -0.3765  0.2562
   12MOL   H242 4224   5.226   2.769   6.735  0.4310  1.5052  1.1119
   12MOL   H243 4225   5.223   2.821   6.564 -0.1207 -0.9591  0.8503
   12MOL   H244 4226   4.972   2.905   6.662  0.9897  0.6655 -0.2600
   12MOL   H245 4227   5.048   2.739   6.872 -1.1425 -0.3588  0.7440
   12MOL   H246 4228   4.969   2.631   6.764 -0.3081  0.4106 -0.4913
   12MOL   H247 4229   4.777   2.821   6.773  0.5855  1.7079 -1.8108
   12MOL   H248 4230   4.702   2.710   6.991  0.1573  2.5856 -1.0205
   12MOL   H249 4231   4.864   2.633   6.984 -1.0473 -3.5668 -0.2408
   12MOL   H250 4232   4.745   2.609   6.850  0.6121  0.6229 -0.9297
   12MOL   H251 4233   4.773   2.944   6.974 -0.4879 -1.7373  0.7572
   12MOL   H252 4234   4.913   3.007   6.878 -0.7505  1.6823  3.2570
   12MOL   H253 4235   4.935   2.903   7.014 -0.5691  0.9747  0.6921
   12MOL   C254 4236   5.003   2.735   6.528 -0.2163 -0.3126 -0.7674
   12MOL   C255 4237   4.855   2.739   6.472 -0.1828 -0.6027 -0.4186
   12MOL   C256 4238   4.825   2.884   6.421  0.3696 -0.3461 -0.0362
   12MOL   C257 4239   4.680   2.934   6.395  0.6611  0.8239 -0.6664
   12MOL   C258 4240   4.677   3.047   6.293  0.1029  0.1026  0.0952
   12MOL   C259 4241   4.614   2.969   6.525 -0.1841  0.5589  0.6149
   12MOL   H260 4242   5.064   2.776   6.448  0.1573  0.3392 -0.1517
   12MOL   H261 4243   5.043   2.635   6.545  0.9769 -0.1018 -2.2865
   12MOL   H262 4244   4.784   2.712   6.551  0.9135  0.9388  1.1075
   12MOL   H263 4245   4.886   2.889   6.331 -0.0161  2.7005 -0.2067
   12MOL   H264 4246   4.878   2.950   6.490  3.2526 -3.1228  0.5201
   12MOL   H265 4247   4.621   2.847   6.369 -1.1321  1.2636  1.6953
   12MOL   H266 4248   4.575   3.086   6.282 -0.2696 -1.2617 -1.3632
   12MOL   H267 4249   4.708   3.014   6.194 -2.7337  1.5133 -1.3294
   12MOL   H268 4250   4.740   3.130   6.327 -1.2244  1.9439 -1.8159
   12MOL   H269 4251   4.512   3.000   6.501  0.4795  1.4292 -1.2104
   12MOL   H270 4252   4.609   2.882   6.590  0.1090  1.6165  2.0881
   12MOL   H271 4253   4.666   3.050   6.577  1.6461  0.8044 -1.5218
   12MOL   C272 4254   4.832   2.639   6.356 -0.3792 -0.7402 -0.5262
   12MOL   C273 4255   4.837   2.486   6.395  0.3413 -0.1207 -0.0173
   12MOL   C274 4256   4.703   2.450   6.475 -0.8993  0.1047 -0.0391
   12MOL   C275 4257   4.718   2.320   6.552 -0.2557  0.0903  0.9900
   12MOL   C276 4258   4.599   2.304   6.648 -0.0530 -0.1894 -0.4150
   12MOL   C277 4259   4.849   2.312   6.638  0.0126 -0.1726  0.3161
   12MOL   H278 4260   4.745   2.665   6.295 -0.8747  0.6653  0.7592
   12MOL   H279 4261   4.909   2.652   6.280 -0.7770  0.1233 -0.7803
   12MOL   H280 4262   4.927   2.474   6.455  2.4986  2.6256 -2.5536
   12MOL   H281 4263   4.616   2.459   6.408  0.6375  0.9595 -1.9743
   12MOL   H282 4264   4.671   2.522   6.550  0.5595 -0.5386  1.2154
   12MOL   H283 4265   4.715   2.248   6.469  2.2362  1.5813 -0.4638
   12MOL   H284 4266   4.499   2.319   6.608 -0.8219 -1.5687  0.9333
   12MOL   H285 4267   4.592   2.199   6.678 -1.8717 -0.2181 -0.8574
   12MOL   H286 4268   4.600   2.366   6.738  1.6799 -1.3900  0.4194
   12MOL   H287 4269   4.844   2.230   6.709 -0.7387 -0.1705  0.2610
   12MOL   H288 4270   4.934   2.293   6.572 -0.3832 -0.6766 -0.0504
   12MOL   H289 4271   4.879   2.395   6.702  0.0361 -0.4472  0.6614
   12MOL   C290 4272   4.849   2.410   6.262  0.0990 -0.2123 -0.6437
   12MOL   C291 4273   4.981   2.335   6.242  0.4151  0.1992  0.6451
   12MOL   C292 4274   4.968   2.202   6.172  0.1184 -0.2363  0.3020
   12MOL   C293 4275   4.906   2.084   6.252 -0.0555 -0.2263  0.2363
   12MOL   C294 4276   4.852   1.977   6.161  0.0877  0.2607  0.3957
   12MOL   C295 4277   5.017   2.022   6.345  0.1922  0.4958  0.1539
   12MOL   H296 4278   4.771   2.336   6.240 -0.2164 -0.1007  0.0960
   12MOL   H297 4279   4.832   2.475   6.176 -0.2838  0.4620 -0.0629
   12MOL   H298 4280   5.024   2.322   6.341  1.1141 -0.3129  0.2749
   12MOL   H299 4281   5.066   2.170   6.136  1.0760  1.0494  1.6871
   12MOL   H300 4282   4.907   2.222   6.084 -0.8680 -2.7520  0.3807
   12MOL   H301 4283   4.823   2.122   6.312  0.1760 -0.1545  0.5079
   12MOL   H302 4284   4.929   1.962   6.085 -0.2285  1.2583 -0.1290
   12MOL   H303 4285   4.757   2.010   6.118  0.2056 -1.5282 -1.2895
   12MOL   H304 4286   4.847   1.880   6.209  0.2729  1.6414  3.3258
   12MOL   H305 4287   5.094   1.981   6.280  1.8230  2.7815  0.5876
   12MOL   H306 4288   4.981   1.939   6.405 -0.7061 -0.9222 -2.2996
   12MOL   H307 4289   5.045   2.099   6.417 -2.0602 -0.0946  1.6989
   12MOL   C308 4290   5.083   2.433   6.167  0.4110 -0.7158  0.6580
   12MOL   C309 4291   5.232   2.406   6.211 -0.6470  0.2238  0.9784
   12MOL   C310 4292   5.330   2.438   6.095 -0.6251  0.6158  0.4108
   12MOL   C311 4293   5.376   2.307   6.021 -0.1704 -0.1830  0.2537
   12MOL   C312 4294   5.420   2.340   5.878 -0.1876  0.5864 -0.3824
   12MOL   C313 4295   5.488   2.245   6.095 -0.0252  0.0651  0.2079
   12MOL   H314 4296   5.077   2.412   6.061  1.2385  1.9441  0.0613
   12MOL   H315 4297   5.052   2.536   6.182 -0.4419 -1.1937  2.3276
   12MOL   H316 4298   5.242   2.299   6.233  0.0386  0.3911  1.5132
   12MOL   H317 4299   5.409   2.510   6.115 -1.1089  0.8258  1.5687
   12MOL   H318 4300   5.268   2.486   6.020 -0.4691  0.2516  0.0443
   12MOL   H319 4301   5.299   2.231   6.024  1.1235 -1.4255  2.8333
   12MOL   H320 4302   5.483   2.429   5.875  1.0054 -0.2146  0.3844
   12MOL   H321 4303   5.329   2.358   5.820 -0.0679  1.1533 -0.3952
   12MOL   H322 4304   5.461   2.252   5.828 -1.6384  1.0274 -2.3979
   12MOL   H323 4305   5.497   2.142   6.061 -0.4515  0.0879  0.0175
   12MOL   H324 4306   5.582   2.300   6.096 -0.5269  0.9819 -1.7538
   12MOL   H325 4307   5.466   2.218   6.199  0.5094  1.4150  0.6911
   12MOL   C326 4308   5.264   2.475   6.344  0.2153 -0.7072 -0.0368
   12MOL   C327 4309   5.400   2.438   6.409  0.5269  0.8115 -0.5897
   12MOL   C328 4310   5.365   2.306   6.496 -0.2059 -0.2095 -0.3659
   12MOL   C329 4311   5.492   2.230   6.548 -0.2657 -0.0283  0.5582
   12MOL   C330 4312   5.520   2.265   6.691  0.1694  0.0458 -0.4800
   12MOL   C331 4313   5.487   2.084   6.517 -0.0699  0.2911 -0.5383
   12MOL   H332 4314   5.184   2.445   6.411  0.7949  1.7461  1.8441
   12MOL   H333 4315   5.238   2.579   6.323 -1.9676 -1.2042  0.1018
   12MOL   H334 4316   5.470   2.409   6.330  1.7177  1.6183  0.1614
   12MOL   H335 4317   5.300   2.341   6.577 -1.8591  0.2761 -1.8731
   12MOL   H336 4318   5.305   2.234   6.440 -1.1146  1.2654 -1.3112
   12MOL   H337 4319   5.572   2.264   6.482 -1.1676 -0.0926 -0.6051
   12MOL   H338 4320   5.478   2.205   6.772  0.8459 -0.0444 -0.1866
   12MOL   H339 4321   5.493   2.367   6.717  1.3781  0.1880  0.3057
   12MOL   H340 4322   5.628   2.266   6.706 -0.1568  1.6347  2.0258
   12MOL   H341 4323   5.469   2.062   6.412  1.5920 -0.7257 -0.6211
   12MOL   H342 4324   5.570   2.030   6.562  0.9616  1.1173 -1.4130
   12MOL   H343 4325   5.411   2.028   6.570 -0.7636  2.6178  0.9937
   12MOL   C344 4326   5.455   2.560   6.488  0.4207  0.7839 -0.4636
   12MOL   C345 4327   5.527   2.666   6.398 -0.0968  0.5488  0.6415
   12MOL   C346 4328   5.675   2.640   6.384 -0.1993  0.0756  0.5181
   12MOL   C347 4329   5.755   2.733   6.296  0.6320 -0.4545 -1.0095
   12MOL   C348 4330   5.727   2.717   6.144 -0.0255  0.3531  0.0048
   12MOL   C349 4331   5.904   2.721   6.328 -0.2279 -0.0847 -0.0480
   12MOL   H350 4332   5.522   2.528   6.567 -1.2027 -2.7303 -0.4563
   12MOL   H351 4333   5.367   2.606   6.532  2.1083  1.8374  1.9070
   12MOL   H352 4334   5.511   2.764   6.444  0.0609  1.1323 -0.5362
   12MOL   H353 4335   5.714   2.634   6.486 -1.4497  0.9898  1.0616
   12MOL   H354 4336   5.692   2.538   6.352  0.2434  0.3936 -0.2588
   12MOL   H355 4337   5.725   2.832   6.331  0.3607 -1.1301  0.6709
   12MOL   H356 4338   5.752   2.615   6.113  0.3996  0.5054 -0.1537
   12MOL   H357 4339   5.622   2.726   6.117 -0.1174  0.3690  0.3675
   12MOL   H358 4340   5.794   2.790   6.099  0.2912  0.7671  1.1358
   12MOL   H359 4341   5.931   2.619   6.302  1.4820  1.1542 -3.3450
   12MOL   H360 4342   5.907   2.747   6.434  0.6881  1.4816 -0.4467
   12MOL   H361 4343   5.963   2.789   6.267  0.0654 -0.5009 -0.2284
   12MOL   H362 4344   5.493   2.648   6.296 -0.2298  0.4972  0.6950
   13MOL     C1 4345   6.327   5.337   2.252 -0.1082 -0.1311  0.3502
   13MOL     C2 4346   6.326   5.382   2.108 -0.7462 -0.9519 -0.3744
   13MOL     C3 4347   6.233   5.305   2.020 -0.1951 -0.2624 -0.2087
   13MOL     C4 4348   6.082   5.329   2.047  0.5282  1.2492 -0.3508
   13MOL     C5 4349   5.998   5.233   1.955 -0.4373 -0.1992 -0.2018
   13MOL     C6 4350   6.039   5.468   2.013  0.2259 -0.6436  1.0300
   13MOL     H7 4351   6.379   5.421   2.298  0.2315 -0.3931  0.4397
   13MOL     H8 4352   6.224   5.318   2.283  0.3119 -1.4482  0.9558
   13MOL     H9 4353   6.299   5.488   2.102  0.0490 -0.8148 -1.5889
   13MOL    H10 4354   6.243   5.340   1.917  0.8182  0.3245  0.0876
   13MOL    H11 4355   6.256   5.198   2.017  0.1059 -0.1632 -1.4562
   13MOL    H12 4356   6.059   5.292   2.147 -2.1560  0.8325 -1.0865
   13MOL    H13 4357   5.974   5.278   1.859 -2.9276 -1.4204 -0.1773
   13MOL    H14 4358   6.035   5.132   1.937 -0.1812 -0.0135 -0.7162
   13MOL    H15 4359   5.898   5.224   1.998 -0.2746 -0.0271  0.2186
   13MOL    H16 4360   6.070   5.541   2.088 -0.0534 -0.2815  0.7955
   13MOL    H17 4361   5.931   5.471   2.005  0.2190 -1.3245  0.8380
   13MOL    H18 4362   6.072   5.504   1.916 -0.4316 -3.1580 -0.1432
   13MOL    H19 4363   6.384   5.245   2.258 -3.9684 -2.5187  1.9590
   13MOL    C20 4364   6.464   5.382   2.042 -0.0495 -0.1335  0.2309
   13MOL    C21 4365   6.574   5.481   2.103 -0.3508 -0.7120  0.0239
   13MOL    C22 4366   6.706   5.450   2.030 -0.3364  0.0707  0.1415
   13MOL    C23 4367   6.757   5.307   2.031  0.4572 -0.4142  0.0491
   13MOL    C24 4368   6.901   5.304   1.978  0.2541 -0.2685  0.2964
   13MOL    C25 4369   6.755   5.241   2.168  0.0875 -0.4855 -0.5739
   13MOL    H26 4370   6.497   5.280   2.063 -1.5087 -0.6652 -0.0274
   13MOL    H27 4371   6.461   5.399   1.934  0.0682  1.1728  0.4220
   13MOL    H28 4372   6.583   5.453   2.208  0.6986 -0.8581 -0.1052
   13MOL    H29 4373   6.778   5.521   2.070  0.1886  0.5919 -1.6804
   13MOL    H30 4374   6.698   5.476   1.924  1.1572  1.9993  0.4842
   13MOL    H31 4375   6.690   5.250   1.966  1.2034 -1.1715 -0.0670
   13MOL    H32 4376   6.957   5.210   1.983 -1.1288 -1.2052 -1.3840
   13MOL    H33 4377   6.961   5.385   2.021 -1.7706  0.6763  1.4490
   13MOL    H34 4378   6.913   5.325   1.872  2.4325 -0.2417  0.5181
   13MOL    H35 4379   6.798   5.142   2.154  0.5370 -0.3824  0.0613
   13MOL    H36 4380   6.811   5.294   2.245 -1.0481  0.0414 -0.1055
   13MOL    H37 4381   6.658   5.229   2.215 -0.7247 -1.0736 -2.3408
   13MOL    C38 4382   6.533   5.635   2.104 -0.5662  0.2101  0.1793
   13MOL    C39 4383   6.631   5.741   2.164  0.1830 -0.2043  0.2815
   13MOL    C40 4384   6.626   5.739   2.319 -0.2340 -0.0862 -0.4949
   13MOL    C41 4385   6.752   5.681   2.386  0.5105  0.1118 -0.0872
   13MOL    C42 4386   6.725   5.670   2.534 -0.4343  0.4537 -0.2259
   13MOL    C43 4387   6.880   5.753   2.358 -0.0179  0.0059  0.2288
   13MOL    H44 4388   6.441   5.646   2.162  0.7058 -0.1654  2.3149
   13MOL    H45 4389   6.519   5.659   1.999  1.2870  0.0030 -0.1253
   13MOL    H46 4390   6.731   5.700   2.146 -0.5849 -1.9378 -0.0962
   13MOL    H47 4391   6.552   5.668   2.358 -1.2952  1.6996  0.8109
   13MOL    H48 4392   6.591   5.832   2.363 -1.0951 -0.5291 -0.2247
   13MOL    H49 4393   6.767   5.577   2.355  0.4693  0.3134 -0.7912
   13MOL    H50 4394   6.723   5.771   2.576  1.0323  0.2531  0.3405
   13MOL    H51 4395   6.629   5.626   2.560  0.4024 -0.4006  1.4695
   13MOL    H52 4396   6.810   5.627   2.587  0.0898  1.3115 -0.3369
   13MOL    H53 4397   6.914   5.741   2.255 -0.9731 -1.4993  0.0667
   13MOL    H54 4398   6.959   5.723   2.428 -0.5500 -0.6392  0.5618
   13MOL    H55 4399   6.869   5.861   2.366  0.3065  0.1579 -1.2655
   13MOL    C56 4400   6.622   5.883   2.103  0.1764 -0.1777 -0.0905
   13MOL    C57 4401   6.680   5.892   1.961  0.6535  0.0051  0.0333
   13MOL    C58 4402   6.832   5.888   1.948  0.5132 -0.4134 -0.1737
   13MOL    C59 4403   6.905   5.896   1.814  0.0092  0.1260 -0.3354
   13MOL    C60 4404   6.906   5.764   1.739 -1.0100 -0.0866 -0.9415
   13MOL    C61 4405   7.046   5.953   1.822 -0.4678 -0.2727 -0.0341
   13MOL    H62 4406   6.677   5.944   2.174 -0.8552  0.0271  0.5393
   13MOL    H63 4407   6.522   5.921   2.123  0.4206 -0.3079  1.4066
   13MOL    H64 4408   6.651   5.805   1.902 -1.0754  0.9413 -0.5293
   13MOL    H65 4409   6.868   5.971   2.009 -1.3585  1.2744 -1.2822
   13MOL    H66 4410   6.858   5.796   2.000  1.3478  0.0838  0.3001
   13MOL    H67 4411   6.852   5.966   1.750 -1.1901 -0.3635  0.1040
   13MOL    H68 4412   6.806   5.727   1.714 -1.1770  1.3508 -2.4300
   13MOL    H69 4413   6.961   5.696   1.805 -0.1289  0.9166 -0.6371
   13MOL    H70 4414   6.953   5.761   1.641  1.9293  1.0168  0.3813
   13MOL    H71 4415   7.081   5.961   1.720 -2.3991 -0.7064 -0.7526
   13MOL    H72 4416   7.113   5.898   1.888  0.2092 -0.8045 -1.1601
   13MOL    H73 4417   7.055   6.054   1.862  0.8231 -0.6120  0.5564
   13MOL    C74 4418   6.623   6.021   1.894  0.1698 -0.4534  0.2577
   13MOL    C75 4419   6.508   5.992   1.788  0.5017 -0.2844  0.1575
   13MOL    C76 4420   6.452   6.113   1.722 -0.0047  0.1478  0.1143
   13MOL    C77 4421   6.528   6.161   1.593 -0.3040  0.5768  0.1771
   13MOL    C78 4422   6.663   6.221   1.621 -0.0885 -0.3012 -0.2279
   13MOL    C79 4423   6.440   6.245   1.499 -0.8595 -0.6464  0.1576
   13MOL    H80 4424   6.711   6.075   1.860  1.3252 -0.5940  2.8784
   13MOL    H81 4425   6.585   6.083   1.976  2.1873 -0.9097  1.5881
   13MOL    H82 4426   6.548   5.923   1.713 -1.9761 -1.3418 -0.2284
   13MOL    H83 4427   6.348   6.104   1.692 -0.3199  3.7612 -0.0979
   13MOL    H84 4428   6.465   6.190   1.798  1.2388  0.4774 -0.4155
   13MOL    H85 4429   6.548   6.065   1.547  1.3276 -0.1399  2.3015
   13MOL    H86 4430   6.650   6.310   1.683 -0.5806 -0.4385 -0.1376
   13MOL    H87 4431   6.710   6.250   1.527  1.4248  2.2966  1.2590
   13MOL    H88 4432   6.726   6.145   1.667  2.3844  0.0615 -2.8647
   13MOL    H89 4433   6.479   6.248   1.397  1.3043 -1.6682  0.9402
   13MOL    H90 4434   6.336   6.214   1.484 -0.5673 -0.8321 -1.6580
   13MOL    H91 4435   6.437   6.351   1.525  0.4209 -0.4965 -0.2692
   13MOL    C92 4436   6.398   5.918   1.868 -0.4214 -1.0958 -0.1197
   13MOL    C93 4437   6.290   5.844   1.799  0.6091 -0.6875  0.2855
   13MOL    C94 4438   6.345   5.721   1.730 -0.2516 -0.7704 -0.1388
   13MOL    C95 4439   6.284   5.695   1.586  0.3676 -0.9951  0.2006
   13MOL    C96 4440   6.335   5.799   1.484 -0.0029  0.6141  0.4739
   13MOL    C97 4441   6.322   5.556   1.530  0.3053 -0.1805  0.9784
   13MOL    H98 4442   6.440   5.846   1.937  0.5582  1.9085  2.5516
   13MOL    H99 4443   6.345   5.993   1.927  0.3544 -2.2323  2.0287
   13MOL   H100 4444   6.271   5.914   1.718 -0.7128 -0.6553  0.6216
   13MOL   H101 4445   6.325   5.632   1.789  0.2156 -1.1894 -0.6085
   13MOL   H102 4446   6.454   5.720   1.733 -0.1866  2.7913  0.6316
   13MOL   H103 4447   6.175   5.696   1.584  0.2522 -0.1601  3.5775
   13MOL   H104 4448   6.283   5.786   1.389 -3.0010  0.4208  2.0671
   13MOL   H105 4449   6.442   5.788   1.464 -0.2196 -1.3585  0.2353
   13MOL   H106 4450   6.316   5.900   1.520 -0.8078  0.8104 -0.4578
   13MOL   H107 4451   6.270   5.542   1.435 -1.3451  2.3569  1.4750
   13MOL   H108 4452   6.289   5.469   1.588 -0.9609  0.2823  0.9640
   13MOL   H109 4453   6.427   5.542   1.504 -0.1407  1.1770 -1.7423
   13MOL   C110 4454   6.163   5.824   1.889  0.0734 -0.3342 -0.4515
   13MOL   C111 4455   6.066   5.947   1.896 -0.3886  0.0016  0.7992
   13MOL   C112 4456   6.001   5.993   1.763  0.0848  0.4933  0.2060
   13MOL   C113 4457   5.957   6.136   1.740 -0.0633  0.4459  0.0319
   13MOL   C114 4458   5.859   6.136   1.623 -0.4794  0.1386  0.4280
   13MOL   C115 4459   6.073   6.239   1.728 -0.0877 -0.4296 -0.0183
   13MOL   H116 4460   6.212   5.811   1.985 -1.7427 -0.6730  0.4600
   13MOL   H117 4461   6.113   5.731   1.862 -0.9703  0.1295 -0.1533
   13MOL   H118 4462   6.132   6.032   1.913 -0.1076 -0.1435  0.4576
   13MOL   H119 4463   5.921   5.919   1.751  0.3883 -0.0345  1.4487
   13MOL   H120 4464   6.060   5.968   1.675 -0.7117 -0.6356 -0.0138
   13MOL   H121 4465   5.891   6.165   1.822  2.6226 -1.1839  2.8546
   13MOL   H122 4466   5.912   6.092   1.538 -1.6252 -2.8395  1.1945
   13MOL   H123 4467   5.836   6.237   1.590  0.4156  0.6353  1.3201
   13MOL   H124 4468   5.767   6.077   1.627 -0.0788 -0.5285 -0.1455
   13MOL   H125 4469   6.133   6.240   1.819  1.7250 -2.3836 -1.1525
   13MOL   H126 4470   6.031   6.338   1.712 -0.1407 -0.0016  2.5806
   13MOL   H127 4471   6.147   6.206   1.655  0.1905 -0.1718  0.1433
   13MOL   C128 4472   5.971   5.936   2.014 -0.4274  0.2750  0.3579
   13MOL   C129 4473   6.029   5.974   2.151 -0.2173  0.6664  0.3494
   13MOL   C130 4474   5.952   5.905   2.267 -0.3666  0.3512 -0.1227
   13MOL   C131 4475   6.002   5.763   2.296 -0.0096  1.0338 -0.9658
   13MOL   C132 4476   6.145   5.763   2.363  0.2473 -0.7271  0.4103
   13MOL   C133 4477   5.918   5.683   2.399 -0.5410  0.1569  0.5486
   13MOL   H134 4478   5.936   5.834   2.026  0.7255 -0.1050  0.5376
   13MOL   H135 4479   5.884   6.001   1.997 -1.5526 -1.1307  0.6597
   13MOL   H136 4480   6.132   5.938   2.151  0.5455  2.7659 -0.6677
   13MOL   H137 4481   5.960   5.968   2.356  1.7195  0.2761 -0.2453
   13MOL   H138 4482   5.845   5.910   2.247  0.0164  0.3571 -2.2692
   13MOL   H139 4483   5.998   5.720   2.196  1.5693 -1.0077 -0.1999
   13MOL   H140 4484   6.173   5.662   2.391 -2.6020 -1.3693  1.1253
   13MOL   H141 4485   6.149   5.821   2.455  0.5968 -1.1084  0.6377
   13MOL   H142 4486   6.220   5.793   2.290  1.4185 -3.1754  0.5857
   13MOL   H143 4487   5.932   5.713   2.503  1.5601 -2.0176  0.9472
   13MOL   H144 4488   5.812   5.693   2.375 -0.5732  0.9067  0.9804
   13MOL   H145 4489   5.947   5.578   2.402  0.2563  0.3298 -0.7832
   13MOL   C146 4490   6.023   6.127   2.169 -0.1183 -0.0804  0.2068
   13MOL   C147 4491   6.128   6.193   2.267  0.0271 -0.2114  0.7981
   13MOL   C148 4492   6.070   6.313   2.351  0.3504 -0.6143  0.5481
   13MOL   C149 4493   5.966   6.277   2.453 -0.2317 -0.4048  0.1352
   13MOL   C150 4494   6.021   6.207   2.581  0.6826  0.0688 -0.4186
   13MOL   C151 4495   5.899   6.415   2.496 -0.0916 -0.1928 -0.7104
   13MOL   H152 4496   5.923   6.154   2.203  0.3852  0.0944  1.5682
   13MOL   H153 4497   6.034   6.170   2.069  1.8275 -0.8127  0.0717
   13MOL   H154 4498   6.164   6.112   2.330 -2.1164 -2.5435 -0.8590
   13MOL   H155 4499   6.156   6.364   2.395  0.5617  0.4136 -1.0068
   13MOL   H156 4500   6.032   6.385   2.278  2.0784  0.3566  0.5753
   13MOL   H157 4501   5.889   6.220   2.400 -0.0415 -0.6543  0.1258
   13MOL   H158 4502   6.093   6.277   2.623 -0.4479  2.4584 -2.3677
   13MOL   H159 4503   6.076   6.113   2.566 -1.7491 -1.5794  0.7377
   13MOL   H160 4504   5.934   6.185   2.642  0.4576 -0.7601 -1.0260
   13MOL   H161 4505   5.970   6.470   2.558 -0.1368 -0.1795 -0.6701
   13MOL   H162 4506   5.811   6.394   2.557 -0.3262 -1.6782 -1.5458
   13MOL   H163 4507   5.855   6.468   2.411 -0.2408  1.7527  0.5525
   13MOL   C164 4508   6.250   6.253   2.195 -0.2296 -0.1717 -0.2025
   13MOL   C165 4509   6.381   6.301   2.253  0.4106  0.7479 -0.2940
   13MOL   C166 4510   6.452   6.200   2.342 -0.1631 -0.2616 -0.1350
   13MOL   C167 4511   6.405   6.178   2.488 -0.1366  0.2062 -0.2677
   13MOL   C168 4512   6.455   6.045   2.543  0.4670 -0.0711  0.1772
   13MOL   C169 4513   6.435   6.305   2.575  0.0299  0.2298 -0.1122
   13MOL   H170 4514   6.283   6.174   2.127  1.5193 -0.7294  1.2542
   13MOL   H171 4515   6.215   6.326   2.123 -0.2276  1.9637  1.8875
   13MOL   H172 4516   6.359   6.383   2.321  1.6900  0.5640  0.3438
   13MOL   H173 4517   6.463   6.105   2.290  0.9382 -0.2408  0.0447
   13MOL   H174 4518   6.558   6.226   2.343 -0.6258  1.6792  0.0311
   13MOL   H175 4519   6.297   6.164   2.495  0.0384 -0.2409  1.5777
   13MOL   H176 4520   6.562   6.020   2.548  0.6183  0.6597  0.5893
   13MOL   H177 4521   6.419   5.968   2.475  1.4173  0.8401 -1.3754
   13MOL   H178 4522   6.412   6.018   2.640  1.6510 -1.2858  0.3965
   13MOL   H179 4523   6.393   6.400   2.541  0.5190  0.4314 -0.1566
   13MOL   H180 4524   6.542   6.321   2.590 -0.0472 -0.0910  0.8384
   13MOL   H181 4525   6.387   6.300   2.673  0.7234 -1.7792  0.1373
   13MOL   C182 4526   6.472   6.343   2.132  0.2031 -0.1931  0.3482
   13MOL   C183 4527   6.586   6.441   2.160 -0.2524 -1.3855 -0.1336
   13MOL   C184 4528   6.695   6.455   2.055  0.3502  1.2205 -0.7227
   13MOL   C185 4529   6.807   6.357   2.056  0.0597 -0.2066 -0.5614
   13MOL   C186 4530   6.887   6.352   1.924  0.2237  0.7296  0.0878
   13MOL   C187 4531   6.908   6.392   2.165 -0.2083 -0.5184 -1.0039
   13MOL   H188 4532   6.413   6.395   2.058 -1.5328  0.5271  2.1968
   13MOL   H189 4533   6.513   6.252   2.089  0.6291  0.4257 -0.5537
   13MOL   H190 4534   6.635   6.399   2.248  0.2563 -0.3677  0.0695
   13MOL   H191 4535   6.750   6.549   2.053  0.3438  1.3360  2.1110
   13MOL   H192 4536   6.650   6.443   1.957  3.0928  1.5860 -2.0803
   13MOL   H193 4537   6.767   6.259   2.083 -1.2771  0.7890  1.1704
   13MOL   H194 4538   6.911   6.449   1.880 -0.2629  0.3258 -1.0835
   13MOL   H195 4539   6.838   6.287   1.852  1.9878  0.2321 -0.6938
   13MOL   H196 4540   6.984   6.304   1.937 -0.1875 -0.6492 -1.7282
   13MOL   H197 4541   6.952   6.488   2.140 -0.6676  0.4224  1.5580
   13MOL   H198 4542   6.977   6.308   2.173 -0.1859 -0.5477 -1.5247
   13MOL   H199 4543   6.860   6.392   2.264  0.1454  1.1811 -0.8277
   13MOL   C200 4544   6.529   6.586   2.184  0.3815  0.6887  0.5642
   13MOL   C201 4545   6.622   6.678   2.259 -0.3774  0.6298  0.0377
   13MOL   C202 4546   6.596   6.662   2.415  0.4312 -0.0203  0.2514
   13MOL   C203 4547   6.699   6.727   2.514  0.3531 -0.4693 -0.2334
   13MOL   C204 4548   6.668   6.703   2.666 -0.6053 -0.1644  0.6782
   13MOL   C205 4549   6.842   6.669   2.493  0.1652 -0.2915 -0.1166
   13MOL   H206 4550   6.437   6.584   2.243  0.9282 -0.3601  1.3968
   13MOL   H207 4551   6.499   6.628   2.088  1.3085 -0.1243 -0.0782
   13MOL   H208 4552   6.726   6.649   2.243 -1.5648 -3.3669 -0.9419
   13MOL   H209 4553   6.502   6.712   2.438  0.6750  0.4719  0.1961
   13MOL   H210 4554   6.592   6.556   2.441  0.3340 -0.1271 -0.1900
   13MOL   H211 4555   6.702   6.834   2.493  2.3893  0.0179  2.4073
   13MOL   H212 4556   6.753   6.730   2.729 -0.0450  0.8973 -0.5073
   13MOL   H213 4557   6.645   6.599   2.690  0.5764 -0.8198 -0.9309
   13MOL   H214 4558   6.581   6.761   2.696 -0.7027  1.0447 -1.8697
   13MOL   H215 4559   6.912   6.717   2.561  0.2242  0.1703 -0.5031
   13MOL   H216 4560   6.874   6.693   2.391 -1.0217 -0.6589 -0.5846
   13MOL   H217 4561   6.865   6.563   2.506  1.2331  0.0428  0.7885
   13MOL   C218 4562   6.588   6.824   2.213  0.1792  0.4226 -0.4899
   13MOL   C219 4563   6.670   6.876   2.088  0.6290 -0.3299  0.4511
   13MOL   C220 4564   6.814   6.920   2.126  0.0836 -0.5047 -0.3307
   13MOL   C221 4565   6.920   6.903   2.015 -0.5955 -0.1060 -0.2571
   13MOL   C222 4566   7.042   6.986   2.058 -0.4934  0.3295  0.1754
   13MOL   C223 4567   6.953   6.755   1.989  0.2119 -0.7819  0.0266
   13MOL   H224 4568   6.482   6.824   2.186  0.0839  0.9021 -0.1241
   13MOL   H225 4569   6.601   6.898   2.293 -1.4984  0.6329 -0.3906
   13MOL   H226 4570   6.688   6.792   2.022  3.1523  1.0998 -0.7542
   13MOL   H227 4571   6.809   7.026   2.154  0.6267 -0.7110  0.5822
   13MOL   H228 4572   6.846   6.865   2.215 -1.3255 -1.1546 -0.2252
   13MOL   H229 4573   6.886   6.947   1.921 -2.0847 -3.0095 -1.1607
   13MOL   H230 4574   7.075   6.955   2.157 -0.2289  3.5011  1.1456
   13MOL   H231 4575   7.125   6.978   1.989 -1.3479  0.3180 -0.8645
   13MOL   H232 4576   7.018   7.092   2.054 -1.5019  0.1991  1.9380
   13MOL   H233 4577   6.873   6.703   1.934 -0.6732  0.6698 -0.0833
   13MOL   H234 4578   7.042   6.740   1.928 -0.4724 -1.2323 -0.8893
   13MOL   H235 4579   6.971   6.711   2.087  0.1885 -0.5780  0.1231
   13MOL   C236 4580   6.587   6.980   2.006  0.3328 -0.5014  0.2493
   13MOL   C237 4581   6.493   6.910   1.906 -0.8052  0.3199 -0.2388
   13MOL   C238 4582   6.561   6.845   1.780 -0.1657  0.1629  1.0987
   13MOL   C239 4583   6.521   6.693   1.752  0.4841 -0.6341  0.3090
   13MOL   C240 4584   6.395   6.671   1.670  1.0834 -0.9729 -0.6011
   13MOL   C241 4585   6.642   6.624   1.684  0.3578  0.7239 -0.5397
   13MOL   H242 4586   6.648   7.047   1.945  3.9141 -1.8647  2.2147
   13MOL   H243 4587   6.530   7.042   2.076  1.3425  1.4855 -0.6385
   13MOL   H244 4588   6.449   6.823   1.955 -1.8168  1.0215  0.1185
   13MOL   H245 4589   6.668   6.852   1.798  0.5736 -3.9178 -1.2100
   13MOL   H246 4590   6.558   6.904   1.687 -2.0776 -3.3956 -1.2124
   13MOL   H247 4591   6.506   6.654   1.853  0.3003 -1.3146  0.0177
   13MOL   H248 4592   6.391   6.711   1.569  1.3698  2.1564  0.5668
   13MOL   H249 4593   6.310   6.714   1.724  1.0984 -0.8303 -0.6899
   13MOL   H250 4594   6.374   6.564   1.664  1.3020 -0.9102 -2.9739
   13MOL   H251 4595   6.683   6.671   1.594  1.8789  2.6166  1.0983
   13MOL   H252 4596   6.618   6.522   1.654 -0.9141  1.0618 -0.7136
   13MOL   H253 4597   6.721   6.618   1.758 -0.6739 -1.8234  0.4104
   13MOL   C254 4598   6.385   7.008   1.857  0.0333  0.0192  0.6847
   13MOL   C255 4599   6.282   7.039   1.969 -0.1164 -0.6803  0.1083
   13MOL   C256 4600   6.309   7.186   2.022  0.3684  0.1750 -0.5385
   13MOL   C257 4601   6.238   7.238   2.149  0.1042  0.4660 -0.4040
   13MOL   C258 4602   6.265   7.385   2.178  0.2938 -0.9054  0.6197
   13MOL   C259 4603   6.277   7.152   2.266  0.3262 -0.0916  0.1672
   13MOL   H260 4604   6.438   7.102   1.840 -1.2886  0.6594  0.0293
   13MOL   H261 4605   6.331   6.973   1.769 -0.9808  3.0685  0.0194
   13MOL   H262 4606   6.300   6.979   2.057  1.6618 -1.7583 -0.9476
   13MOL   H263 4607   6.276   7.253   1.943 -0.6048 -0.4008 -0.6325
   13MOL   H264 4608   6.415   7.199   2.046  0.2379 -0.3409  0.3861
   13MOL   H265 4609   6.129   7.240   2.135 -0.0628  0.8598  0.8418
   13MOL   H266 4610   6.366   7.402   2.215 -0.3308  0.9109  1.5242
   13MOL   H267 4611   6.206   7.442   2.250 -1.0895 -2.2106  0.5482
   13MOL   H268 4612   6.269   7.440   2.084  1.4473 -0.7156  0.7714
   13MOL   H269 4613   6.386   7.147   2.279  0.1884 -0.0180  1.4402
   13MOL   H270 4614   6.240   7.182   2.364  1.1120  0.6336  0.2518
   13MOL   H271 4615   6.249   7.047   2.259 -0.7926  0.2142 -0.0406
   13MOL   C272 4616   6.138   7.021   1.929  0.5786  0.5595  0.1633
   13MOL   C273 4617   6.090   6.873   1.908  0.5386 -0.4331  0.0643
   13MOL   C274 4618   6.076   6.804   2.040  0.7277 -0.0479  0.8830
   13MOL   C275 4619   6.181   6.691   2.071 -0.5095  0.1737 -0.2436
   13MOL   C276 4620   6.167   6.567   1.983 -0.7526 -0.5659  0.1385
   13MOL   C277 4621   6.167   6.641   2.213  0.9436 -0.3971 -0.2264
   13MOL   H278 4622   6.071   7.055   2.008 -0.2277 -1.8690  0.5500
   13MOL   H279 4623   6.118   7.090   1.847  0.8977 -1.2354 -1.4470
   13MOL   H280 4624   6.161   6.825   1.841  1.0176  2.1721 -1.3445
   13MOL   H281 4625   5.977   6.758   2.048 -0.5998  2.7096  0.9828
   13MOL   H282 4626   6.085   6.875   2.123  2.0394  0.2627  0.4737
   13MOL   H283 4627   6.283   6.727   2.062  0.2261 -1.7845 -0.0668
   13MOL   H284 4628   6.249   6.500   2.008  0.5645  1.6458  1.9947
   13MOL   H285 4629   6.072   6.518   2.004 -1.3129  0.4598  0.0059
   13MOL   H286 4630   6.164   6.589   1.876 -2.5071 -1.1341  0.0454
   13MOL   H287 4631   6.061   6.620   2.224  0.7091  1.6933  1.8990
   13MOL   H288 4632   6.219   6.548   2.234 -1.7521 -1.6330  1.0895
   13MOL   H289 4633   6.201   6.710   2.290  1.6267 -1.4190  0.3992
   13MOL   C290 4634   5.967   6.870   1.817 -0.2094  0.1676  0.4691
   13MOL   C291 4635   5.843   6.954   1.837  0.0329  0.3039 -0.6293
   13MOL   C292 4636   5.736   6.930   1.726 -0.0607  0.3819 -0.6935
   13MOL   C293 4637   5.775   6.979   1.587  0.6787  0.4882 -0.4326
   13MOL   C294 4638   5.666   6.945   1.488  0.2468 -0.2205 -0.1589
   13MOL   C295 4639   5.798   7.137   1.594  0.5060  0.6644 -0.2026
   13MOL   H296 4640   6.006   6.881   1.716  1.2036 -0.4034  0.9346
   13MOL   H297 4641   5.939   6.764   1.814  1.3908 -0.2715  0.3877
   13MOL   H298 4642   5.883   7.056   1.834 -2.3674  1.2464 -2.8111
   13MOL   H299 4643   5.649   6.993   1.746 -0.3704  0.0965 -1.1218
   13MOL   H300 4644   5.701   6.827   1.724 -1.2546  0.7023  1.6240
   13MOL   H301 4645   5.860   6.919   1.554  1.8839  2.1444 -0.3956
   13MOL   H302 4646   5.666   6.837   1.471  5.3016 -0.1358 -1.3964
   13MOL   H303 4647   5.671   7.004   1.397  2.3029 -0.6649 -0.3516
   13MOL   H304 4648   5.569   6.973   1.531 -0.2841 -0.4749 -1.1708
   13MOL   H305 4649   5.887   7.167   1.649 -1.0045 -0.6191  3.0799
   13MOL   H306 4650   5.715   7.193   1.636  0.3884  0.0416  0.3948
   13MOL   H307 4651   5.810   7.178   1.493  3.3406  0.4609  0.0161
   13MOL   C308 4652   5.789   6.935   1.987 -0.2238 -0.7590 -0.1358
   13MOL   C309 4653   5.662   7.023   2.028  0.2927  0.1131  0.0603
   13MOL   C310 4654   5.617   7.010   2.173  0.3300  0.2780  0.1485
   13MOL   C311 4655   5.575   6.869   2.222 -0.6230  0.1648 -0.2800
   13MOL   C312 4656   5.680   6.805   2.309 -0.4682  0.0332  0.0968
   13MOL   C313 4657   5.436   6.879   2.298 -0.1324 -0.8059 -0.6306
   13MOL   H314 4658   5.766   6.829   1.995  1.4075 -1.0999  0.4397
   13MOL   H315 4659   5.869   6.946   2.061  0.1776 -0.7522 -0.5669
   13MOL   H316 4660   5.582   6.983   1.967  0.2417  1.4509 -0.7715
   13MOL   H317 4661   5.540   7.086   2.186  0.3269  0.3100 -0.0631
   13MOL   H318 4662   5.709   7.030   2.228 -0.3160 -1.0308  1.7892
   13MOL   H319 4663   5.556   6.801   2.139  2.9883  0.8818 -1.7905
   13MOL   H320 4664   5.775   6.783   2.261  0.0240  2.2625 -0.0090
   13MOL   H321 4665   5.660   6.707   2.352  3.8785 -0.6472  0.8146
   13MOL   H322 4666   5.712   6.878   2.383 -0.5274 -0.6584  0.8108
   13MOL   H323 4667   5.372   6.795   2.326 -1.5111  0.4940  0.2041
   13MOL   H324 4668   5.452   6.928   2.394 -0.0748 -1.1384 -0.4666
   13MOL   H325 4669   5.368   6.944   2.244  1.7585  0.1646 -1.8954
   13MOL   C326 4670   5.675   7.166   1.975 -0.0623 -0.0530 -0.0643
   13MOL   C327 4671   5.792   7.253   2.038 -0.1424  0.4272  0.3356
   13MOL   C328 4672   5.751   7.323   2.168 -0.3942 -0.2097  0.4418
   13MOL   C329 4673   5.867   7.335   2.274  0.5090 -0.3806  0.4063
   13MOL   C330 4674   5.832   7.431   2.387 -0.2319 -0.0606  1.2948
   13MOL   C331 4675   5.906   7.206   2.347  0.4811  0.2805  0.8388
   13MOL   H332 4676   5.583   7.224   1.983 -0.2983 -0.5100  0.6043
   13MOL   H333 4677   5.693   7.156   1.868  1.0572  0.0036  0.1189
   13MOL   H334 4678   5.878   7.189   2.059  0.1041 -0.6710 -3.5553
   13MOL   H335 4679   5.718   7.425   2.149 -2.6430 -0.9721  0.0687
   13MOL   H336 4680   5.673   7.276   2.228  0.2140  0.4875  1.7852
   13MOL   H337 4681   5.955   7.368   2.218 -0.3214  0.5602 -0.3450
   13MOL   H338 4682   5.758   7.391   2.457 -0.0064 -2.5024  0.1751
   13MOL   H339 4683   5.801   7.530   2.353 -0.9366 -0.9262 -0.6868
   13MOL   H340 4684   5.913   7.453   2.457  0.0676  2.7406  0.1608
   13MOL   H341 4685   5.938   7.129   2.277 -2.0745 -0.4634  0.4639
   13MOL   H342 4686   5.996   7.234   2.401  0.2432  1.5144  0.6097
   13MOL   H343 4687   5.829   7.164   2.411 -0.8598 -0.0444 -0.9411
   13MOL   C344 4688   5.847   7.364   1.924 -0.3887  0.0468 -0.2236
   13MOL   C345 4689   5.956   7.463   1.981 -0.4878  0.2606  0.7501
   13MOL   C346 4690   6.003   7.578   1.884 -0.2757  0.2456  0.2957
   13MOL   C347 4691   6.040   7.536   1.742  0.1441  1.0754 -0.2347
   13MOL   C348 4692   6.167   7.442   1.748 -0.0870  0.1773  0.1641
   13MOL   C349 4693   6.067   7.655   1.660  0.2886 -0.0912  0.3181
   13MOL   H350 4694   5.762   7.424   1.892 -0.7860 -0.1210  0.5218
   13MOL   H351 4695   5.886   7.318   1.833 -1.6693 -0.0127 -0.7537
   13MOL   H352 4696   6.040   7.396   1.998  0.1374  1.3409  1.9676
   13MOL   H353 4697   5.921   7.648   1.867  0.4228  0.8788 -0.4399
   13MOL   H354 4698   6.072   7.646   1.933  1.9879 -2.0280  0.3424
   13MOL   H355 4699   5.960   7.476   1.698  0.2351 -0.1723  1.2705
   13MOL   H356 4700   6.191   7.406   1.648 -2.8976 -1.8826  0.1691
   13MOL   H357 4701   6.250   7.503   1.784  0.1399 -0.3021  0.4572
   13MOL   H358 4702   6.142   7.354   1.808 -2.4640 -0.0675 -1.1243
   13MOL   H359 4703   5.984   7.726   1.660 -0.4184 -0.8688 -1.8693
   13MOL   H360 4704   6.087   7.619   1.559 -2.7896 -1.7956  0.2608
   13MOL   H361 4705   6.148   7.714   1.704 -1.8875  3.5264 -0.3108
   13MOL   H362 4706   5.919   7.516   2.069  0.0012  2.5395 -0.3907
   14MOL     C1 4707   3.822   0.114   6.509 -0.2429  0.2020 -0.0561
   14MOL     C2 4708   3.793   0.236   6.419  0.6095  0.4788 -0.2111
   14MOL     C3 4709   3.922   0.315   6.379 -0.2567  0.6990 -0.1558
   14MOL     C4 4710   4.015   0.232   6.287  0.0678 -0.2911  0.2910
   14MOL     C5 4711   4.155   0.279   6.305  0.2693 -0.2714  0.3473
   14MOL     C6 4712   3.983   0.246   6.138  0.2537  0.6868  0.1580
   14MOL     H7 4713   3.747   0.089   6.584 -0.4030 -2.5467 -1.0629
   14MOL     H8 4714   3.853   0.019   6.465  2.4773  1.0512 -0.0441
   14MOL     H9 4715   3.756   0.188   6.329  0.5624  0.4791 -0.1915
   14MOL    H10 4716   3.914   0.413   6.333  2.4211  0.9657 -0.1603
   14MOL    H11 4717   3.979   0.342   6.468 -1.7945  0.4602  0.9233
   14MOL    H12 4718   4.005   0.132   6.330  1.9461  0.5288  2.7234
   14MOL    H13 4719   4.167   0.385   6.284 -0.1140 -0.1194  0.8641
   14MOL    H14 4720   4.186   0.258   6.408 -2.2930 -1.0485  1.0143
   14MOL    H15 4721   4.223   0.221   6.243  0.2171  1.4891 -1.3955
   14MOL    H16 4722   3.949   0.346   6.113 -2.4175 -0.0029  0.8709
   14MOL    H17 4723   3.913   0.179   6.089 -2.0034  2.2864  1.0961
   14MOL    H18 4724   4.071   0.240   6.073 -0.2637  0.0182 -0.4857
   14MOL    H19 4725   3.908   0.134   6.574  0.3982 -2.7999  0.0834
   14MOL    C20 4726   3.682   0.320   6.481  0.4475  0.2884 -0.8589
   14MOL    C21 4727   3.618   0.417   6.379  0.3115 -0.1111  0.4881
   14MOL    C22 4728   3.511   0.360   6.290  0.0052 -0.3001  0.2929
   14MOL    C23 4729   3.493   0.420   6.151  0.1864  0.5507 -0.4792
   14MOL    C24 4730   3.608   0.371   6.055  0.1107 -0.1100 -0.5980
   14MOL    C25 4731   3.356   0.397   6.097  0.0510  0.5308  0.7712
   14MOL    H26 4732   3.593   0.265   6.513  1.0817 -1.3842 -1.8856
   14MOL    H27 4733   3.723   0.374   6.566 -2.9155  0.2591  0.8787
   14MOL    H28 4734   3.698   0.443   6.310  1.0606  0.5959  1.6021
   14MOL    H29 4735   3.413   0.355   6.337  0.3897  0.2245  1.1800
   14MOL    H30 4736   3.538   0.256   6.269 -1.0540 -0.5614  0.2035
   14MOL    H31 4737   3.494   0.528   6.160 -0.8337  0.5447 -0.1768
   14MOL    H32 4738   3.588   0.269   6.022 -1.3515  0.5822 -1.9518
   14MOL    H33 4739   3.708   0.397   6.091 -0.7948 -0.8834  2.6285
   14MOL    H34 4740   3.597   0.412   5.954  0.8800  0.3903 -0.4886
   14MOL    H35 4741   3.319   0.465   6.020 -0.4949 -2.2409 -1.4774
   14MOL    H36 4742   3.357   0.292   6.068  0.7384 -0.0719  2.8907
   14MOL    H37 4743   3.273   0.411   6.167 -2.2128 -0.4200 -1.6383
   14MOL    C38 4744   3.571   0.552   6.454  1.2209 -0.1852  0.2342
   14MOL    C39 4745   3.676   0.634   6.526 -0.5093  0.2504  0.1310
   14MOL    C40 4746   3.607   0.735   6.621 -0.6846  0.2265  0.1428
   14MOL    C41 4747   3.552   0.665   6.749 -0.6832  0.2994 -0.0287
   14MOL    C42 4748   3.402   0.689   6.790  0.0148 -0.7739  1.1309
   14MOL    C43 4749   3.642   0.679   6.873 -0.0774  0.5096  0.0823
   14MOL    H44 4750   3.503   0.517   6.531 -1.3546 -2.0788 -2.7435
   14MOL    H45 4751   3.511   0.616   6.388 -0.2341 -2.5876 -0.8556
   14MOL    H46 4752   3.738   0.582   6.598 -2.6309 -1.9075  0.4519
   14MOL    H47 4753   3.532   0.781   6.557 -2.3478 -1.8087  0.5756
   14MOL    H48 4754   3.686   0.806   6.644  2.4927 -2.9156 -0.5981
   14MOL    H49 4755   3.548   0.557   6.731 -0.9939  0.9392 -4.3420
   14MOL    H50 4756   3.370   0.638   6.881 -2.7226 -0.5516  0.3453
   14MOL    H51 4757   3.396   0.796   6.812 -0.4159 -0.7621  0.9653
   14MOL    H52 4758   3.326   0.675   6.713 -1.2558  1.6640  1.8839
   14MOL    H53 4759   3.601   0.626   6.959 -0.1346  0.5487  0.0792
   14MOL    H54 4760   3.656   0.782   6.905  1.4007 -0.2981  2.1319
   14MOL    H55 4761   3.737   0.627   6.860 -0.5733 -0.3819  0.0181
   14MOL    C56 4762   3.768   0.711   6.428 -0.0980 -0.7223  0.2740
   14MOL    C57 4763   3.903   0.754   6.490 -0.4651  0.0538  0.1063
   14MOL    C58 4764   3.955   0.882   6.422  0.4675  0.1868 -0.1759
   14MOL    C59 4765   3.890   1.015   6.460  0.1262 -0.3748 -0.1620
   14MOL    C60 4766   3.892   1.108   6.335  0.1748 -0.4085  0.6302
   14MOL    C61 4767   3.952   1.073   6.583 -0.0238 -0.0881 -0.2100
   14MOL    H62 4768   3.718   0.803   6.398 -1.1205 -0.7533  1.8460
   14MOL    H63 4769   3.786   0.654   6.337  2.5891 -0.7101  0.7642
   14MOL    H64 4770   3.885   0.786   6.592 -1.4986 -0.1212 -0.0133
   14MOL    H65 4771   4.062   0.892   6.442  0.7008  1.8350 -2.1918
   14MOL    H66 4772   3.951   0.870   6.314  0.5965  1.7712 -0.3712
   14MOL    H67 4773   3.782   1.005   6.474  0.2770 -1.1512  0.4777
   14MOL    H68 4774   3.834   1.081   6.247  3.0031  0.9506 -1.7535
   14MOL    H69 4775   3.992   1.139   6.304 -0.3565  1.3307  0.5786
   14MOL    H70 4776   3.853   1.206   6.362 -0.0766 -0.2190 -0.3996
   14MOL    H71 4777   3.913   1.172   6.607  0.4678  0.0838 -0.1108
   14MOL    H72 4778   4.061   1.073   6.574 -0.0274 -0.8155 -0.2851
   14MOL    H73 4779   3.927   1.001   6.661 -3.0296 -0.4230 -1.4257
   14MOL    C74 4780   4.006   0.642   6.489  0.7537  0.1704 -0.4900
   14MOL    C75 4781   4.099   0.638   6.614 -1.1854  1.0439  0.3596
   14MOL    C76 4782   4.224   0.558   6.576 -0.2240 -0.1841 -0.2786
   14MOL    C77 4783   4.318   0.634   6.481  0.3757  0.4889 -0.0667
   14MOL    C78 4784   4.420   0.535   6.421 -0.4484  0.4006  0.1962
   14MOL    C79 4785   4.383   0.755   6.547 -0.2098  0.2659  0.6433
   14MOL    H80 4786   4.059   0.636   6.394  3.3225  0.1939  0.8781
   14MOL    H81 4787   3.939   0.556   6.495  2.7864 -1.5039 -0.9237
   14MOL    H82 4788   4.126   0.739   6.644 -1.0241  0.8327  0.9296
   14MOL    H83 4789   4.281   0.541   6.668 -0.2419  1.5989  0.0967
   14MOL    H84 4790   4.198   0.457   6.545 -0.2022 -0.2684 -0.0269
   14MOL    H85 4791   4.271   0.671   6.390  2.0900 -0.8644 -1.5145
   14MOL    H86 4792   4.425   0.464   6.504 -3.2963  1.2675  1.1405
   14MOL    H87 4793   4.512   0.579   6.383  0.3358 -1.6940 -0.4360
   14MOL    H88 4794   4.379   0.492   6.330  1.7219 -0.1260 -0.5583
   14MOL    H89 4795   4.449   0.734   6.632 -0.2954 -1.1371  0.3868
   14MOL    H90 4796   4.448   0.800   6.472 -0.4587  0.0845  0.3186
   14MOL    H91 4797   4.310   0.832   6.569  0.4863  0.5020  2.1863
   14MOL    C92 4798   4.030   0.572   6.736  0.4718  0.3367 -0.6886
   14MOL    C93 4799   4.087   0.627   6.868  0.1757  0.0997 -0.0109
   14MOL    C94 4800   4.059   0.783   6.897  0.5651  0.4358  0.5236
   14MOL    C95 4801   4.179   0.864   6.953 -0.1248 -0.0551  0.2672
   14MOL    C96 4802   4.241   0.818   7.088  0.0243  0.5547 -0.1064
   14MOL    C97 4803   4.292   0.902   6.857 -0.3441  0.7137 -0.4863
   14MOL    H98 4804   3.922   0.579   6.747  0.6049 -0.2861  1.1982
   14MOL    H99 4805   4.037   0.464   6.741  0.1118  0.4292  2.2683
   14MOL   H100 4806   4.196   0.621   6.856  0.4581  1.6228  1.5165
   14MOL   H101 4807   3.977   0.796   6.967  0.2058 -1.7267  0.5442
   14MOL   H102 4808   4.019   0.834   6.810 -0.2960 -0.0815  0.6190
   14MOL   H103 4809   4.133   0.961   6.971 -0.3997 -0.2687  0.7201
   14MOL   H104 4810   4.286   0.719   7.085  1.1627  1.0542  0.2880
   14MOL   H105 4811   4.159   0.806   7.160 -0.4304 -1.2752 -0.8861
   14MOL   H106 4812   4.312   0.889   7.129 -0.1516  0.2053  0.8318
   14MOL   H107 4813   4.352   0.816   6.830 -3.0670 -2.1800  2.1988
   14MOL   H108 4814   4.345   0.984   6.904 -1.1981  0.8153  0.3314
   14MOL   H109 4815   4.247   0.946   6.768 -0.1541  0.1112 -0.8774
   14MOL   C110 4816   4.045   0.550   6.994  0.1922  0.5982  0.4705
   14MOL   C111 4817   4.113   0.410   7.006  0.2160  0.0249 -0.1269
   14MOL   C112 4818   4.037   0.288   6.940 -0.5173  0.1995 -0.6204
   14MOL   C113 4819   3.894   0.264   6.989  0.6756 -0.2672  0.4218
   14MOL   C114 4820   3.874   0.122   7.041  0.1187  0.3026  0.2049
   14MOL   C115 4821   3.797   0.277   6.882 -0.4014  0.5090 -0.3596
   14MOL   H116 4822   3.937   0.536   7.002  0.1938  1.6914  2.5902
   14MOL   H117 4823   4.075   0.609   7.081  1.6624  2.2251 -1.0760
   14MOL   H118 4824   4.109   0.394   7.114 -1.2687  3.0360  0.2936
   14MOL   H119 4825   4.096   0.201   6.967 -0.5886  0.7123  1.2521
   14MOL   H120 4826   4.041   0.283   6.831  0.4614 -0.4944 -0.5632
   14MOL   H121 4827   3.874   0.329   7.074  2.2981 -0.7561  1.2184
   14MOL   H122 4828   3.931   0.108   7.132  1.0611  1.6013 -0.1794
   14MOL   H123 4829   3.892   0.045   6.966 -0.1607  1.1195 -0.7178
   14MOL   H124 4830   3.769   0.102   7.062  0.6157 -1.9852  0.7178
   14MOL   H125 4831   3.808   0.184   6.826  2.0984  1.1210 -0.9579
   14MOL   H126 4832   3.823   0.357   6.813 -2.0575  0.7311 -0.7460
   14MOL   H127 4833   3.692   0.286   6.907 -0.1635  2.3191  0.0285
   14MOL   C128 4834   4.268   0.412   6.987 -0.3145 -0.1843  0.1478
   14MOL   C129 4835   4.352   0.313   7.074  0.2206 -0.1712  0.4391
   14MOL   C130 4836   4.330   0.338   7.225 -0.6072  0.3489 -0.5977
   14MOL   C131 4837   4.335   0.485   7.279  0.1486 -0.4615  0.6177
   14MOL   C132 4838   4.301   0.479   7.428 -0.6249 -0.0936 -0.3988
   14MOL   C133 4839   4.456   0.564   7.243 -0.3404  0.5668 -0.6486
   14MOL   H134 4840   4.315   0.506   7.014 -0.9651  0.6889 -1.6675
   14MOL   H135 4841   4.280   0.390   6.881  0.3192  1.3684 -0.1155
   14MOL   H136 4842   4.299   0.221   7.051 -1.8676  1.0923  0.0864
   14MOL   H137 4843   4.232   0.307   7.261 -0.8411 -0.5717 -1.9747
   14MOL   H138 4844   4.393   0.268   7.279  1.1859  1.0968 -1.6771
   14MOL   H139 4845   4.250   0.536   7.233 -0.9390 -2.5770  0.1893
   14MOL   H140 4846   4.197   0.465   7.457 -0.6206 -0.5024 -0.5708
   14MOL   H141 4847   4.337   0.569   7.477  0.7653 -0.9729  0.2257
   14MOL   H142 4848   4.367   0.411   7.483 -2.7519  0.3389  2.8374
   14MOL   H143 4849   4.480   0.569   7.137  2.5478 -1.2560 -0.1314
   14MOL   H144 4850   4.457   0.659   7.296 -0.9655  0.2969 -0.1528
   14MOL   H145 4851   4.549   0.523   7.282 -0.2981  1.9303  0.7322
   14MOL   C146 4852   4.505   0.311   7.029  0.3540 -0.8056  0.1582
   14MOL   C147 4853   4.546   0.206   6.929  0.1283 -0.5718 -0.3656
   14MOL   C148 4854   4.477   0.199   6.790 -0.7448  1.3033 -0.2789
   14MOL   C149 4855   4.570   0.136   6.676  0.2217  0.3395  0.2037
   14MOL   C150 4856   4.483   0.092   6.546  0.9149 -0.3179  0.1312
   14MOL   C151 4857   4.678   0.238   6.635 -0.5007 -0.0603  1.1134
   14MOL   H152 4858   4.568   0.304   7.118  0.8898  1.0634 -0.0579
   14MOL   H153 4859   4.533   0.409   6.992 -1.5365 -0.6796 -0.9789
   14MOL   H154 4860   4.643   0.247   6.900 -0.6364  1.7510  0.2204
   14MOL   H155 4861   4.385   0.141   6.798  0.8008 -0.8051  3.2417
   14MOL   H156 4862   4.446   0.299   6.758  1.2796  2.2071  0.5022
   14MOL   H157 4863   4.628   0.048   6.702 -1.2153 -0.3014  1.2527
   14MOL   H158 4864   4.413   0.172   6.520 -0.4731 -1.3550  0.5721
   14MOL   H159 4865   4.422   0.005   6.574 -0.0444  0.8996  1.9319
   14MOL   H160 4866   4.541   0.052   6.463  0.6658 -1.1882  0.3621
   14MOL   H161 4867   4.642   0.340   6.625  1.0412  0.6713  2.7536
   14MOL   H162 4868   4.727   0.217   6.541 -1.4419 -2.7994  1.1897
   14MOL   H163 4869   4.756   0.251   6.710  1.6823  1.9157 -1.4018
   14MOL   C164 4870   4.565   0.063   6.995  0.0564  0.1922  0.3973
   14MOL   C165 4871   4.694   0.015   7.072 -0.0400  0.3228 -0.1282
   14MOL   C166 4872   4.817   7.748   6.981  0.0481  0.7437 -0.2944
   14MOL   C167 4873   4.839   7.605   6.926  0.5838 -0.5005 -0.3977
   14MOL   C168 4874   4.869   7.614   6.780 -0.5651 -0.3425 -0.5369
   14MOL   C169 4875   4.935   7.519   7.011  0.2877 -0.9782 -0.0899
   14MOL   H170 4876   4.473   0.025   7.039  0.5218 -1.4418 -0.0034
   14MOL   H171 4877   4.567   7.746   6.911  1.1857  0.4415  0.2128
   14MOL   H172 4878   4.673   7.667   7.112  0.9228  0.3977  0.5859
   14MOL   H173 4879   4.801   0.065   6.899 -2.2186  0.1952 -0.3507
   14MOL   H174 4880   4.908   0.014   7.038  0.9457 -0.5822 -1.2802
   14MOL   H175 4881   4.745   7.549   6.928  0.5569 -0.5626 -2.7476
   14MOL   H176 4882   4.817   7.699   6.735 -2.7404 -0.8890  0.8622
   14MOL   H177 4883   4.857   7.521   6.725 -1.2504 -0.2261 -0.5953
   14MOL   H178 4884   4.973   7.643   6.764 -0.4595 -0.7991 -0.6761
   14MOL   H179 4885   5.036   7.559   7.003  0.1796 -0.8209 -0.6938
   14MOL   H180 4886   4.939   7.419   6.966  0.7600 -2.1365  2.4178
   14MOL   H181 4887   4.903   7.512   7.115 -0.9570  2.1301 -0.2176
   14MOL   C182 4888   4.720   0.103   7.194 -0.6843  0.5261 -0.1983
   14MOL   C183 4889   4.822   0.044   7.309  0.7831 -0.0831 -0.4693
   14MOL   C184 4890   4.828   0.154   7.419 -0.1452  0.2376 -0.6677
   14MOL   C185 4891   4.897   0.285   7.369  0.3167 -0.8865 -0.3208
   14MOL   C186 4892   4.916   0.380   7.485  0.3179  0.0362 -0.8639
   14MOL   C187 4893   5.038   0.268   7.309 -0.2632  0.7340 -0.2694
   14MOL   H188 4894   4.627   0.129   7.245 -0.7012 -1.7247  1.0134
   14MOL   H189 4895   4.752   0.201   7.161 -1.9555  0.5685 -1.3333
   14MOL   H190 4896   4.919   0.025   7.262  0.2255 -2.9069 -0.5898
   14MOL   H191 4897   4.880   0.112   7.505  0.3206  0.6259 -0.7581
   14MOL   H192 4898   4.729   0.170   7.462  1.4314  1.9043  2.4652
   14MOL   H193 4899   4.830   0.347   7.309  1.0236  0.2521  0.0481
   14MOL   H194 4900   4.831   0.413   7.544 -0.6990 -1.7456 -1.2939
   14MOL   H195 4901   4.958   0.476   7.455  0.3099  0.4489  0.4499
   14MOL   H196 4902   4.995   0.340   7.549  0.0239  0.9353  0.0721
   14MOL   H197 4903   5.018   0.227   7.210  0.0690  0.0323 -0.0513
   14MOL   H198 4904   5.112   0.205   7.359 -0.0014  2.3406  1.3957
   14MOL   H199 4905   5.091   0.362   7.296 -1.2125  1.0740 -1.7907
   14MOL   C200 4906   4.768   7.664   7.376  0.2646  0.6198 -0.6605
   14MOL   C201 4907   4.862   7.593   7.471 -0.2022 -0.0734 -0.2887
   14MOL   C202 4908   4.986   7.523   7.413 -0.5169  0.3674  0.5339
   14MOL   C203 4909   5.115   7.511   7.487  0.7366  0.1641 -0.2919
   14MOL   C204 4910   5.176   7.371   7.501  0.1401 -0.7676  0.1680
   14MOL   C205 4911   5.227   7.604   7.444  0.0329 -1.2157  0.2013
   14MOL   H206 4912   4.742   7.593   7.297 -0.3085 -1.8712  1.6924
   14MOL   H207 4913   4.678   7.694   7.429  1.6997  0.9384  1.6704
   14MOL   H208 4914   4.905   7.670   7.535  1.1324 -1.5412  0.5948
   14MOL   H209 4915   4.963   7.419   7.388  2.2196 -0.3634  0.8849
   14MOL   H210 4916   5.016   7.574   7.321 -0.7509 -1.0656 -0.3630
   14MOL   H211 4917   5.099   7.538   7.592  2.7887  1.6398 -0.3356
   14MOL   H212 4918   5.183   7.329   7.401  0.5923 -1.2243  0.3931
   14MOL   H213 4919   5.104   7.304   7.548 -0.1777 -0.8670 -0.4548
   14MOL   H214 4920   5.276   7.364   7.543 -0.1698 -2.4872  0.6394
   14MOL   H215 4921   5.194   7.704   7.474 -1.2432 -0.9482 -2.0299
   14MOL   H216 4922   5.235   7.604   7.336  1.0020  2.1871  0.2062
   14MOL   H217 4923   5.318   7.591   7.502  2.1858  0.5416 -2.6968
   14MOL   C218 4924   4.782   7.485   7.554 -0.2471  0.8423 -0.0001
   14MOL   C219 4925   4.672   7.539   7.649 -0.2989  0.0660  0.8223
   14MOL   C220 4926   4.709   7.551   0.046  0.2136  0.1401  0.2466
   14MOL   C221 4927   4.816   7.656   0.085  0.3713  0.0089  0.7917
   14MOL   C222 4928   4.765   0.043   0.122 -0.9504  0.4367 -0.5531
   14MOL   C223 4929   4.908   7.602   0.204  0.0754  0.6662 -0.0568
   14MOL   H224 4930   4.736   7.419   7.481 -1.2997  0.4253  1.0152
   14MOL   H225 4931   4.851   7.430   7.617  0.8893  1.1344 -0.9739
   14MOL   H226 4932   4.637   7.639   7.623 -0.6079 -0.5285 -1.1268
   14MOL   H227 4933   4.621   7.575   0.106 -0.2432 -0.6414 -0.0998
   14MOL   H228 4934   4.733   7.452   0.083 -0.2864 -0.6267 -1.4141
   14MOL   H229 4935   4.875   7.677   7.748  1.3882 -3.5384  0.5513
   14MOL   H230 4936   4.729   0.037   0.225  0.5625  2.2750  0.1133
   14MOL   H231 4937   4.845   0.117   0.130 -0.9012  0.6376 -2.6221
   14MOL   H232 4938   4.682   0.076   0.060 -1.0268  3.5748  1.0787
   14MOL   H233 4939   4.977   7.683   0.222 -0.4417  0.9672  0.6068
   14MOL   H234 4940   4.845   7.572   0.289  0.8677  0.4306  0.4464
   14MOL   H235 4941   4.954   7.508   0.174 -2.9464 -1.0736  0.4812
   14MOL   C236 4942   4.545   7.444   7.635 -0.3473 -0.4454 -0.2159
   14MOL   C237 4943   4.438   7.489   7.535 -0.1468  0.2753 -0.0136
   14MOL   C238 4944   4.341   7.601   7.584  0.1069  0.5547 -0.0974
   14MOL   C239 4945   4.269   7.683   7.469  0.1285 -0.4923 -1.0338
   14MOL   C240 4946   4.141   0.006   7.534 -0.1018 -0.1356 -0.6187
   14MOL   C241 4947   4.368   0.028   7.397  0.0789  0.1665 -0.2121
   14MOL   H242 4948   4.503   7.426   7.735  2.5248 -1.5242  0.8382
   14MOL   H243 4949   4.584   7.344   7.614 -0.2021 -0.8312  1.7517
   14MOL   H244 4950   4.493   7.535   7.453 -0.3692  0.1229 -0.2481
   14MOL   H245 4951   4.402   7.668   7.645  1.3752  0.5317 -1.3079
   14MOL   H246 4952   4.271   7.550   7.650  0.4291  2.8383  2.0912
   14MOL   H247 4953   4.235   7.611   7.394 -0.2752 -1.8232  0.3916
   14MOL   H248 4954   4.051   7.699   7.551 -1.1979  1.8497  0.6388
   14MOL   H249 4955   4.109   0.087   7.469 -0.1850  1.4023  1.2923
   14MOL   H250 4956   4.178   0.055   7.624 -0.7021  2.0376 -1.5302
   14MOL   H251 4957   4.306   0.087   7.329 -1.6212 -1.2372  0.0663
   14MOL   H252 4958   4.440   7.719   7.342 -1.2075 -1.8928  0.3234
   14MOL   H253 4959   4.419   0.095   7.466  0.2644  0.7667 -0.9277
   14MOL   C254 4960   4.352   7.371   7.480 -0.4147  0.2934 -0.1325
   14MOL   C255 4961   4.417   7.275   7.373  0.2468 -0.1829 -0.1144
   14MOL   C256 4962   4.323   7.161   7.318 -0.2163  0.4128 -0.0177
   14MOL   C257 4963   4.251   7.066   7.421  0.5000  0.2857 -0.0147
   14MOL   C258 4964   4.354   6.985   7.501 -0.1770 -0.1959 -1.1794
   14MOL   C259 4965   4.159   6.972   7.341 -0.4974 -0.5656  0.5947
   14MOL   H260 4966   4.305   7.326   7.568 -0.3199  0.7753  0.1649
   14MOL   H261 4967   4.270   7.400   7.414 -0.7729 -2.2182 -0.8716
   14MOL   H262 4968   4.495   7.225   7.431  2.6192  0.5587 -2.5926
   14MOL   H263 4969   4.384   7.104   7.247  0.0016  0.7749 -0.1220
   14MOL   H264 4970   4.249   7.209   7.255 -0.3611  2.0591  1.3712
   14MOL   H265 4971   4.196   7.128   7.491 -0.9446 -1.6674  0.6441
   14MOL   H266 4972   4.433   7.043   7.547 -1.1185  1.3671 -1.5073
   14MOL   H267 4973   4.400   6.908   7.438 -2.2858 -1.0636 -1.7170
   14MOL   H268 4974   4.314   6.935   7.589  0.6206 -1.7864 -1.6927
   14MOL   H269 4975   4.189   6.944   7.240 -0.1112  1.2449  0.1834
   14MOL   H270 4976   4.122   6.882   7.389  0.7245 -1.6252 -0.4207
   14MOL   H271 4977   4.068   7.031   7.332 -1.0532 -1.0924  2.4884
   14MOL   C272 4978   4.487   7.343   7.252 -1.1600 -0.1790 -0.9575
   14MOL   C273 4979   4.572   7.265   7.151 -0.1991 -0.3302  0.1346
   14MOL   C274 4980   4.581   7.357   7.023 -0.1788  0.1551  0.3979
   14MOL   C275 4981   4.461   7.350   6.927 -0.2421  0.6064  0.5378
   14MOL   C276 4982   4.410   7.211   6.886 -0.1372 -0.3822  0.2611
   14MOL   C277 4983   4.483   7.436   6.797 -0.0667  0.6150  0.0659
   14MOL   H278 4984   4.405   7.395   7.203  2.0476  3.9348 -2.2309
   14MOL   H279 4985   4.541   7.435   7.277 -1.4191 -0.0152 -0.9987
   14MOL   H280 4986   4.527   7.172   7.117  0.7177 -0.8553  0.3417
   14MOL   H281 4987   4.672   7.339   6.966 -0.2588 -0.5939  0.5119
   14MOL   H282 4988   4.592   7.462   7.053 -2.6105  0.1332  1.4169
   14MOL   H283 4989   4.378   7.396   6.980 -1.1887 -0.6652  0.1999
   14MOL   H284 4990   4.485   7.138   6.853  0.2250  1.2227 -2.6094
   14MOL   H285 4991   4.356   7.155   6.962  0.1982 -0.1036  0.7073
   14MOL   H286 4992   4.342   7.229   6.803 -0.1523 -0.2016  0.3128
   14MOL   H287 4993   4.581   7.408   6.759 -1.0599 -2.4249 -0.3834
   14MOL   H288 4994   4.406   7.419   6.722  1.9723  0.7198 -2.0935
   14MOL   H289 4995   4.478   7.542   6.820  0.7294  0.5180  0.7365
   14MOL   C290 4996   4.702   7.248   7.220  0.0146  0.4978 -0.8528
   14MOL   C291 4997   4.794   7.146   7.144  0.1436  0.6648  0.0069
   14MOL   C292 4998   4.947   7.172   7.184  0.1134  0.7858  0.3788
   14MOL   C293 4999   5.054   7.096   7.101  0.3592  0.2543  0.7639
   14MOL   C294 5000   5.065   7.165   6.970 -0.5216  1.1808  0.8011
   14MOL   C295 5001   5.193   7.109   7.168 -0.0397  0.0505  0.2820
   14MOL   H296 5002   4.748   7.347   7.218  1.0120  0.0936  1.1846
   14MOL   H297 5003   4.683   7.210   7.321 -1.9191 -0.3460 -1.5081
   14MOL   H298 5004   4.795   7.163   7.037  3.9778  2.5971  0.2646
   14MOL   H299 5005   4.971   7.148   7.288  0.8821 -1.5088 -0.3104
   14MOL   H300 5006   4.954   7.281   7.176  0.3679  0.7399  0.0194
   14MOL   H301 5007   5.033   6.991   7.076 -0.0006 -0.2035  2.9353
   14MOL   H302 5008   5.133   7.117   6.900 -0.6668 -1.6917  2.5476
   14MOL   H303 5009   5.113   7.262   6.977 -1.0605  1.3596  2.2403
   14MOL   H304 5010   4.969   7.167   6.918 -0.0520 -1.3037 -0.2535
   14MOL   H305 5011   5.177   7.096   7.275 -0.6830  2.4488  0.5078
   14MOL   H306 5012   5.237   7.208   7.154 -0.5173  0.4917  1.7736
   14MOL   H307 5013   5.267   7.032   7.148  3.3623  3.1325  0.4628
   14MOL   C308 5014   4.745   6.999   7.175  0.3322  0.6129  0.6860
   14MOL   C309 5015   4.760   6.897   7.058  0.2453 -0.1399  0.6420
   14MOL   C310 5016   4.770   6.754   7.107 -0.4347 -0.8840  0.5604
   14MOL   C311 5017   4.912   6.703   7.160  0.0754 -0.2628  0.3402
   14MOL   C312 5018   4.910   6.575   7.234  0.3932 -0.1235  0.5444
   14MOL   C313 5019   5.006   6.694   7.039 -0.3791  0.0061  0.1705
   14MOL   H314 5020   4.787   6.967   7.271  0.1572  2.6748  1.4874
   14MOL   H315 5021   4.645   7.000   7.219  0.5404 -0.4676  1.1968
   14MOL   H316 5022   4.851   6.925   7.005  1.0807 -0.6209  1.7816
   14MOL   H317 5023   4.729   6.688   7.031 -0.6362 -2.4138  1.9666
   14MOL   H318 5024   4.692   6.756   7.184 -1.4738 -1.0754 -0.4758
   14MOL   H319 5025   4.956   6.774   7.230  1.5205 -0.8657  0.0598
   14MOL   H320 5026   4.834   6.576   7.311 -0.2481  3.3991 -0.0600
   14MOL   H321 5027   5.011   6.557   7.270  1.1734  2.5981 -0.2076
   14MOL   H322 5028   4.884   6.491   7.168  0.4217 -0.2452  0.6900
   14MOL   H323 5029   5.051   6.788   7.008  1.5206 -0.5583  1.1566
   14MOL   H324 5030   5.091   6.638   7.077  0.6460  0.5163 -1.3126
   14MOL   H325 5031   4.951   6.642   6.960  0.7442  1.0967 -1.3498
   14MOL   C326 5032   4.636   6.916   6.968  0.1448  0.5064  0.7631
   14MOL   C327 5033   4.665   6.884   6.822 -0.1554 -0.7933  0.8233
   14MOL   C328 5034   4.755   6.988   6.757  0.0916  0.1277 -0.0431
   14MOL   C329 5035   4.852   6.946   6.652  1.0572 -0.0037 -1.0358
   14MOL   C330 5036   4.916   7.065   6.579 -0.0706 -0.0970  0.3586
   14MOL   C331 5037   4.963   6.866   6.709  0.4140 -0.4646  0.4307
   14MOL   H332 5038   4.613   7.022   6.969  1.9836  0.9331  0.9075
   14MOL   H333 5039   4.553   6.859   7.010  0.9037 -0.8330  0.4756
   14MOL   H334 5040   4.709   6.785   6.828  0.8484 -0.5244 -1.6315
   14MOL   H335 5041   4.689   7.063   6.715  0.6852  1.7109  1.7646
   14MOL   H336 5042   4.802   7.044   6.838 -0.0231 -0.3851  0.3802
   14MOL   H337 5043   4.799   6.901   6.569  1.1422  0.3734 -1.2981
   14MOL   H338 5044   4.841   7.138   6.549 -0.7164 -0.0896  1.9106
   14MOL   H339 5045   4.976   7.041   6.491  0.4742 -0.7705  0.8986
   14MOL   H340 5046   4.964   7.141   6.641  0.3220 -1.1654  1.4029
   14MOL   H341 5047   5.029   6.824   6.634 -0.4254 -1.0641  0.0115
   14MOL   H342 5048   5.025   6.927   6.774 -1.0798  0.0683  1.3873
   14MOL   H343 5049   4.936   6.780   6.770  1.4284 -1.7265 -0.8729
   14MOL   C344 5050   4.524   6.869   6.748 -0.3321  0.7233 -0.5148
   14MOL   C345 5051   4.515   6.763   6.635 -0.1857  0.8675  0.4160
   14MOL   C346 5052   4.485   6.623   6.687 -0.2015  0.1189  0.2852
   14MOL   C347 5053   4.573   6.515   6.611  0.0612 -1.1304  0.3937
   14MOL   C348 5054   4.722   6.523   6.637 -0.3279  0.5206  0.0358
   14MOL   C349 5055   4.535   6.504   6.461  0.2172  0.1222  0.7339
   14MOL   H350 5056   4.495   6.965   6.706 -1.0749  0.2240 -1.1611
   14MOL   H351 5057   4.442   6.841   6.815  0.7966  0.2308  0.6714
   14MOL   H352 5058   4.603   6.766   6.571  0.4694  1.0483  1.3111
   14MOL   H353 5059   4.492   6.621   6.795 -3.0504 -1.3755  0.4963
   14MOL   H354 5060   4.379   6.601   6.676  0.0244 -0.4236 -0.9195
   14MOL   H355 5061   4.535   6.427   6.663 -1.1642 -0.2878  0.9403
   14MOL   H356 5062   4.767   6.618   6.612  2.5308 -1.0262 -0.8503
   14MOL   H357 5063   4.737   6.510   6.744 -1.8325 -1.3367  0.0616
   14MOL   H358 5064   4.781   6.449   6.584 -1.5060 -0.4509  0.0474
   14MOL   H359 5065   4.428   6.484   6.450  0.1250  1.2102 -0.3906
   14MOL   H360 5066   4.581   6.415   6.419  0.0282  0.1289  0.5135
   14MOL   H361 5067   4.566   6.592   6.404  0.1109 -0.7858 -0.7414
   14MOL   H362 5068   4.429   6.790   6.573  0.9293 -1.0829 -2.0636
   15MOL     C1 5069   6.015   2.891   3.551 -0.1673  0.7324  0.4552
   15MOL     C2 5070   5.960   2.750   3.507 -0.7208 -0.2285  0.7297
   15MOL     C3 5071   6.080   2.642   3.513  0.7133  0.0737  0.0251
   15MOL     C4 5072   6.048   2.496   3.553 -0.2338  0.5953 -0.3774
   15MOL     C5 5073   6.004   2.482   3.697  0.0703 -0.8033  0.1299
   15MOL     C6 5074   6.151   2.393   3.511 -0.3465 -0.3825 -0.5137
   15MOL     H7 5075   6.005   2.903   3.659  0.9254 -3.4048  1.1008
   15MOL     H8 5076   6.115   2.911   3.511 -0.7221  1.3375 -0.6605
   15MOL     H9 5077   5.877   2.711   3.566 -0.7225 -0.3940  0.6199
   15MOL    H10 5078   6.140   2.651   3.422  0.1295 -1.1396 -0.4977
   15MOL    H11 5079   6.149   2.686   3.585 -0.1080  0.0301  0.8393
   15MOL    H12 5080   5.970   2.465   3.483  0.7538 -1.2962 -0.6719
   15MOL    H13 5081   6.090   2.479   3.764 -0.6523 -0.1154  1.0930
   15MOL    H14 5082   5.930   2.556   3.727 -0.9338 -1.9011  0.3786
   15MOL    H15 5083   5.964   2.383   3.718 -1.8107 -0.4044 -1.3876
   15MOL    H16 5084   6.126   2.294   3.550 -2.4458  0.3359  0.0250
   15MOL    H17 5085   6.242   2.423   3.564 -0.9755  0.6771 -0.0150
   15MOL    H18 5086   6.172   2.392   3.404 -0.5864  0.4192 -0.5744
   15MOL    H19 5087   5.953   2.973   3.516 -0.0797  0.8159  0.4935
   15MOL    C20 5088   5.901   2.773   3.361  0.2596 -0.0716  0.9118
   15MOL    C21 5089   5.872   2.646   3.270 -0.2942  0.0685 -0.9627
   15MOL    C22 5090   5.754   2.571   3.330  0.0922  0.1169  0.9381
   15MOL    C23 5091   5.718   2.437   3.259 -0.8892  0.0606  0.3038
   15MOL    C24 5092   5.823   2.330   3.282  0.4770 -0.4376  0.1169
   15MOL    C25 5093   5.583   2.385   3.307  0.5077 -0.5412 -0.0837
   15MOL    H26 5094   5.808   2.829   3.354 -0.1885 -1.0191 -1.0702
   15MOL    H27 5095   5.970   2.840   3.309  0.1989 -1.4007 -0.9618
   15MOL    H28 5096   5.957   2.578   3.268 -1.6193 -1.7025  1.0378
   15MOL    H29 5097   5.671   2.642   3.322  0.6965  0.9245  1.7649
   15MOL    H30 5098   5.773   2.560   3.436  0.4771  1.7885  1.0618
   15MOL    H31 5099   5.699   2.450   3.153  0.7561  2.6807  0.2971
   15MOL    H32 5100   5.921   2.366   3.251  0.9514 -1.1724  0.7590
   15MOL    H33 5101   5.791   2.244   3.223 -1.1175 -0.6257  1.2221
   15MOL    H34 5102   5.836   2.310   3.388  0.4570 -2.4037 -0.2377
   15MOL    H35 5103   5.556   2.287   3.266  1.7948 -0.3502 -1.4228
   15MOL    H36 5104   5.565   2.386   3.414 -2.4847  1.7273 -0.5372
   15MOL    H37 5105   5.496   2.445   3.279 -2.1457 -3.0842  2.3609
   15MOL    C38 5106   5.841   2.694   3.121  0.5635 -0.2228 -0.7188
   15MOL    C39 5107   5.928   2.632   3.016 -0.0183  0.4097 -0.2261
   15MOL    C40 5108   6.058   2.716   2.991 -0.5149 -0.1319 -0.3312
   15MOL    C41 5109   6.165   2.701   3.098 -0.1746 -0.6113  0.0795
   15MOL    C42 5110   6.269   2.811   3.066  0.4948 -0.1019 -0.0379
   15MOL    C43 5111   6.228   2.554   3.111 -0.1749  0.6493 -0.4441
   15MOL    H44 5112   5.851   2.803   3.122 -0.0200 -0.1649 -0.7906
   15MOL    H45 5113   5.737   2.700   3.088  0.9481  0.9648 -1.7848
   15MOL    H46 5114   5.956   2.530   3.042 -1.8404  0.2761  1.3074
   15MOL    H47 5115   6.034   2.822   2.994 -0.3575 -0.1195  0.6312
   15MOL    H48 5116   6.104   2.700   2.894  0.3599 -0.5024  0.1407
   15MOL    H49 5117   6.124   2.731   3.195  2.6481  0.0955  1.0972
   15MOL    H50 5118   6.221   2.901   3.028 -1.3656 -1.4942 -1.0703
   15MOL    H51 5119   6.329   2.825   3.155 -2.0474  0.3584  1.6546
   15MOL    H52 5120   6.330   2.781   2.980 -0.6769 -1.0568 -0.5573
   15MOL    H53 5121   6.277   2.534   3.015  1.7352  1.5708  0.3089
   15MOL    H54 5122   6.144   2.485   3.120  0.2112  0.4086  1.4783
   15MOL    H55 5123   6.288   2.543   3.201  0.8936  1.0195 -1.1090
   15MOL    C56 5124   5.847   2.601   2.887  0.4658 -0.7691  0.8077
   15MOL    C57 5125   5.921   2.504   2.791 -0.6467 -0.3168 -0.1082
   15MOL    C58 5126   5.851   2.522   2.653  0.2484  0.5779  0.2181
   15MOL    C59 5127   5.933   2.603   2.552  0.2577  0.4571 -0.1321
   15MOL    C60 5128   5.846   2.653   2.427 -0.4033  0.7995  0.2695
   15MOL    C61 5129   6.042   2.521   2.496  0.0354  1.0657  0.0696
   15MOL    H62 5130   5.825   2.693   2.833 -0.3280  0.5996  3.3892
   15MOL    H63 5131   5.750   2.558   2.911  0.2585 -0.9519 -0.3314
   15MOL    H64 5132   6.028   2.525   2.792 -0.7416  0.0994  1.5987
   15MOL    H65 5133   5.835   2.426   2.605 -0.4845  1.3019 -1.0066
   15MOL    H66 5134   5.743   2.539   2.654 -0.1646 -1.4305 -2.9503
   15MOL    H67 5135   5.979   2.686   2.606 -0.3527  0.3669  0.5408
   15MOL    H68 5136   5.886   2.749   2.396 -1.6463  1.4086  0.5370
   15MOL    H69 5137   5.750   2.694   2.459 -0.5940  0.1837  0.4967
   15MOL    H70 5138   5.824   2.582   2.347 -0.2523  3.1435 -1.8878
   15MOL    H71 5139   6.100   2.482   2.581  0.9153 -1.8705 -1.8127
   15MOL    H72 5140   6.118   2.573   2.437 -1.2369  0.4626 -2.1435
   15MOL    H73 5141   6.004   2.448   2.426 -0.6574  1.4870  0.0093
   15MOL    C74 5142   5.897   2.356   2.841 -0.6213 -0.1023  0.0174
   15MOL    C75 5143   5.986   2.246   2.762 -0.3113 -0.5512 -0.3833
   15MOL    C76 5144   5.931   2.110   2.797  0.4345  0.0107 -0.2648
   15MOL    C77 5145   5.798   2.077   2.719  0.2139  0.5277  0.4999
   15MOL    C78 5146   5.745   1.961   2.804  0.3760  0.9744  0.0520
   15MOL    C79 5147   5.808   2.033   2.571  0.5477 -0.3039  0.0105
   15MOL    H80 5148   5.793   2.325   2.836 -0.2639 -0.9679 -3.7688
   15MOL    H81 5149   5.914   2.340   2.947 -2.8906  1.0410  0.5873
   15MOL    H82 5150   5.980   2.283   2.659 -2.0904  2.0005  0.5702
   15MOL    H83 5151   5.987   2.019   2.774  0.4043  0.4577 -2.2293
   15MOL    H84 5152   5.905   2.115   2.902 -0.4276  0.0675 -0.4758
   15MOL    H85 5153   5.726   2.160   2.722 -0.0251  0.3669 -0.7642
   15MOL    H86 5154   5.640   1.940   2.783 -0.0180  2.5978  0.2873
   15MOL    H87 5155   5.758   1.984   2.910  1.8810 -0.4419  0.1984
   15MOL    H88 5156   5.797   1.866   2.797  0.3147  0.8288  1.4943
   15MOL    H89 5157   5.860   1.938   2.556  0.4846 -0.4269  0.5752
   15MOL    H90 5158   5.704   2.030   2.538  0.5932  0.7568 -0.2325
   15MOL    H91 5159   5.841   2.115   2.508 -0.3623 -0.0960 -0.2063
   15MOL    C92 5160   6.140   2.262   2.781  0.3770  0.2718  0.2083
   15MOL    C93 5161   6.225   2.151   2.710 -0.3482  0.4486  0.1675
   15MOL    C94 5162   6.226   2.174   2.563 -0.4707 -0.2542 -0.3093
   15MOL    C95 5163   6.276   2.064   2.470  0.1280 -0.0645 -0.4046
   15MOL    C96 5164   6.180   1.942   2.475 -0.1828  0.2887 -0.2356
   15MOL    C97 5165   6.280   2.121   2.314 -0.4931 -0.0431  0.1611
   15MOL    H98 5166   6.182   2.361   2.763 -0.1123  0.7242  1.4781
   15MOL    H99 5167   6.148   2.253   2.890  1.3013  0.4204  0.1593
   15MOL   H100 5168   6.181   2.053   2.728 -0.8234  0.2409 -1.9752
   15MOL   H101 5169   6.291   2.261   2.555  1.2816 -1.6325 -1.5400
   15MOL   H102 5170   6.135   2.219   2.523 -0.9916  0.2866  1.4380
   15MOL   H103 5171   6.379   2.038   2.497 -0.1268 -1.0134 -0.3374
   15MOL   H104 5172   6.189   1.869   2.556  0.3409  0.2263 -0.3481
   15MOL   H105 5173   6.196   1.887   2.382  1.6933 -1.3288  0.9977
   15MOL   H106 5174   6.084   1.993   2.477  0.9514  2.4485  1.4969
   15MOL   H107 5175   6.283   2.055   2.227 -0.2842 -0.3274  0.3855
   15MOL   H108 5176   6.375   2.173   2.303  0.1380 -0.9772  1.1260
   15MOL   H109 5177   6.208   2.203   2.310 -1.4089 -0.9124 -2.2694
   15MOL   C110 5178   6.366   2.143   2.770 -0.3702 -0.2304  0.3314
   15MOL   C111 5179   6.384   2.130   2.923  0.2882  0.1001  0.3048
   15MOL   C112 5180   6.305   2.005   2.981 -0.0400  0.2083  0.0617
   15MOL   C113 5181   6.345   1.975   3.129 -0.4666 -0.1198  0.0876
   15MOL   C114 5182   6.263   1.860   3.184 -0.2421  0.2510  0.2187
   15MOL   C115 5183   6.331   2.091   3.231 -1.0725  0.1033 -0.0135
   15MOL   H116 5184   6.426   2.221   2.722 -0.8311 -1.4834 -2.3655
   15MOL   H117 5185   6.409   2.049   2.738  0.0051 -0.3324  1.1219
   15MOL   H118 5186   6.327   2.213   2.966 -1.8631 -1.3682  0.3176
   15MOL   H119 5187   6.327   1.925   2.911  1.7192  1.1689 -0.5269
   15MOL   H120 5188   6.197   2.016   2.980 -0.2051 -0.9669  2.0327
   15MOL   H121 5189   6.449   1.944   3.135  0.3020  1.8786 -2.0304
   15MOL   H122 5190   6.166   1.892   3.222 -0.6715 -2.0824  1.1424
   15MOL   H123 5191   6.304   1.807   3.270  1.2383  1.1841  0.1072
   15MOL   H124 5192   6.243   1.780   3.112 -1.1666  1.1655 -0.5594
   15MOL   H125 5193   6.380   2.183   3.199  0.2747  0.1299  2.0305
   15MOL   H126 5194   6.388   2.054   3.316  0.9301  1.9933 -0.4939
   15MOL   H127 5195   6.234   2.111   3.277 -0.5135  0.7031  0.9175
   15MOL   C128 5196   6.538   2.140   2.950  0.0913 -0.2463  0.0683
   15MOL   C129 5197   6.617   2.266   2.916 -0.1173  0.4252 -0.0135
   15MOL   C130 5198   6.768   2.242   2.950  0.7307  0.2882  0.3186
   15MOL   C131 5199   6.859   2.151   2.862 -0.0798  0.2085  0.3013
   15MOL   C132 5200   6.851   2.195   2.711 -0.4731 -0.7383 -0.8263
   15MOL   C133 5201   7.003   2.148   2.911 -0.0424 -0.7447 -0.3101
   15MOL   H134 5202   6.586   2.060   2.894 -1.3816 -0.4119 -1.0040
   15MOL   H135 5203   6.565   2.111   3.051 -0.7587 -6.1541 -1.2553
   15MOL   H136 5204   6.612   2.278   2.808  0.6228 -0.1336 -0.1186
   15MOL   H137 5205   6.819   2.339   2.947  1.2051  0.0824  1.5359
   15MOL   H138 5206   6.768   2.204   3.052  1.0501 -1.3741 -0.2948
   15MOL   H139 5207   6.836   2.045   2.879 -1.5818  0.5903  0.7857
   15MOL   H140 5208   6.751   2.171   2.676 -0.8497  1.1499 -1.1257
   15MOL   H141 5209   6.921   2.147   2.643 -0.6626 -0.3350 -1.3091
   15MOL   H142 5210   6.877   2.301   2.715 -1.3342 -0.5867  2.9671
   15MOL   H143 5211   7.037   2.249   2.936  2.0908 -1.3554 -0.6133
   15MOL   H144 5212   7.021   2.086   2.999  2.5323  0.8319  0.3602
   15MOL   H145 5213   7.063   2.110   2.828  0.3353 -1.0847  0.1142
   15MOL   C146 5214   6.559   2.392   2.977 -0.3591  0.5251  0.6464
   15MOL   C147 5215   6.618   2.532   2.933  0.1145 -0.2976  0.4113
   15MOL   C148 5216   6.613   2.563   2.786  0.5173  0.5545  0.2000
   15MOL   C149 5217   6.478   2.527   2.720  1.3647  0.1005  0.1637
   15MOL   C150 5218   6.367   2.632   2.748  0.0563 -0.1311  1.0859
   15MOL   C151 5219   6.505   2.520   2.575 -0.0558 -0.1192  0.1971
   15MOL   H152 5220   6.573   2.391   3.085 -1.1784  0.5265  0.7522
   15MOL   H153 5221   6.453   2.378   2.958  0.2823 -1.6173 -1.6767
   15MOL   H154 5222   6.541   2.595   2.977  1.1197  0.8857  0.5028
   15MOL   H155 5223   6.640   2.667   2.770 -2.3130  1.4779  1.1249
   15MOL   H156 5224   6.694   2.514   2.732 -0.3319 -0.0763 -0.5264
   15MOL   H157 5225   6.442   2.430   2.754  1.1742 -0.7950 -2.4890
   15MOL   H158 5226   6.359   2.648   2.856  1.1610  0.1669  1.1253
   15MOL   H159 5227   6.270   2.606   2.707  1.1173  1.0402 -2.3055
   15MOL   H160 5228   6.389   2.724   2.694 -1.0057 -0.1220  0.6695
   15MOL   H161 5229   6.575   2.440   2.552  0.7106 -0.1957  2.6505
   15MOL   H162 5230   6.553   2.612   2.541  3.8149 -0.1217  5.0086
   15MOL   H163 5231   6.410   2.501   2.526 -0.5038 -1.5959  1.6169
   15MOL   C164 5232   6.744   2.581   3.011 -0.1949 -0.1433  0.2029
   15MOL   C165 5233   6.753   2.734   3.033 -0.3343  0.2285 -0.1106
   15MOL   C166 5234   6.670   2.773   3.160 -0.0707 -0.6735 -0.7938
   15MOL   C167 5235   6.655   2.921   3.204 -0.4823  0.9346 -0.2970
   15MOL   C168 5236   6.587   3.001   3.099  0.2027  0.8312  0.0710
   15MOL   C169 5237   6.596   2.932   3.348 -0.4379  0.3692  0.5162
   15MOL   H170 5238   6.748   2.532   3.109  2.1195 -1.3021 -0.4120
   15MOL   H171 5239   6.830   2.549   2.951 -0.1803  1.1085 -0.4491
   15MOL   H172 5240   6.699   2.781   2.951  0.4943  0.6478 -0.4290
   15MOL   H173 5241   6.570   2.730   3.148 -0.9685  1.0537  0.3621
   15MOL   H174 5242   6.724   2.724   3.241 -1.0819  1.7345  1.3897
   15MOL   H175 5243   6.757   2.957   3.214  0.8432 -2.5354 -0.4485
   15MOL   H176 5244   6.640   3.002   3.004  0.1907 -0.7437  0.0355
   15MOL   H177 5245   6.592   3.103   3.137 -2.0245  1.6082 -1.6237
   15MOL   H178 5246   6.482   2.973   3.090  0.0734  1.5099 -0.5902
   15MOL   H179 5247   6.492   2.900   3.352 -0.6587  1.0461  0.4073
   15MOL   H180 5248   6.598   3.033   3.389  0.5906  0.1621  0.9907
   15MOL   H181 5249   6.643   2.858   3.413 -0.7089  1.1804  1.6573
   15MOL   C182 5250   6.902   2.782   3.038  0.0400  0.6556 -0.6543
   15MOL   C183 5251   6.996   2.765   2.919 -0.0377  0.3247 -0.4423
   15MOL   C184 5252   6.923   2.783   2.785  0.1076 -0.1805  0.4518
   15MOL   C185 5253   7.003   2.774   2.649 -0.4590 -0.0026 -0.0596
   15MOL   C186 5254   7.087   2.645   2.614 -0.2814 -0.8324 -1.0607
   15MOL   C187 5255   6.917   2.801   2.528 -0.3585  0.4103 -0.6510
   15MOL   H188 5256   6.954   2.734   3.121  0.8575  0.6710 -1.1532
   15MOL   H189 5257   6.917   2.887   3.063 -0.9847  1.0565 -1.6585
   15MOL   H190 5258   7.037   2.663   2.916  0.1610  0.3740  0.5413
   15MOL   H191 5259   6.878   2.882   2.785 -1.8540 -1.0346 -3.0189
   15MOL   H192 5260   6.843   2.709   2.781 -0.9019  0.9086  0.4682
   15MOL   H193 5261   7.083   2.848   2.643 -1.6079  1.1741 -1.3889
   15MOL   H194 5262   7.043   2.546   2.626  2.0546 -1.8544 -0.8060
   15MOL   H195 5263   7.175   2.652   2.677 -1.4756 -2.4402  0.8150
   15MOL   H196 5264   7.120   2.648   2.510  1.3785 -1.1646 -0.5483
   15MOL   H197 5265   6.859   2.892   2.538  0.0948  0.4239  2.5086
   15MOL   H198 5266   6.844   2.721   2.517  0.7210 -0.6135 -0.4847
   15MOL   H199 5267   6.983   2.804   2.441  1.3735  1.0119  0.6479
   15MOL   C200 5268   7.135   2.845   2.930  0.3106 -0.2948  0.2094
   15MOL   C201 5269   7.221   2.822   3.068  0.5125 -0.5561 -0.2516
   15MOL   C202 5270   7.321   2.945   3.102 -0.0433 -0.1612  0.2027
   15MOL   C203 5271   7.246   3.080   3.129 -0.3031 -0.3938  0.3581
   15MOL   C204 5272   7.284   3.130   3.270 -0.1591 -0.2571 -0.5579
   15MOL   C205 5273   7.293   3.199   3.033 -0.0777  0.1066 -0.3112
   15MOL   H206 5274   7.109   2.951   2.925 -0.4024 -0.4624  0.3470
   15MOL   H207 5275   7.197   2.819   2.844  1.0887  1.7977  0.1150
   15MOL   H208 5276   7.142   2.820   3.143  0.7950 -1.4583  0.0204
   15MOL   H209 5277   7.389   2.910   3.178 -1.2459 -0.8877  0.9661
   15MOL   H210 5278   7.380   2.962   3.012 -0.1073 -0.4790  0.1010
   15MOL   H211 5279   7.138   3.064   3.125 -0.3478 -0.3147  1.1091
   15MOL   H212 5280   7.235   3.222   3.299  1.0255 -0.3259  1.7319
   15MOL   H213 5281   7.389   3.159   3.273 -0.4535  0.6718  0.9443
   15MOL   H214 5282   7.259   3.060   3.350  1.7054 -1.1288 -0.6951
   15MOL   H215 5283   7.398   3.227   3.040  0.6860 -2.5646 -0.4643
   15MOL   H216 5284   7.223   3.279   3.054  0.5342  0.5510  0.0641
   15MOL   H217 5285   7.269   3.174   2.930 -1.4882 -1.7132  0.4194
   15MOL   C218 5286   7.291   2.687   3.062 -0.7108  0.0055 -0.3578
   15MOL   C219 5287   7.318   2.611   3.199  0.1615  0.9667 -0.3515
   15MOL   C220 5288   7.435   2.510   3.184 -0.6621 -0.2870  0.2080
   15MOL   C221 5289   7.451   2.422   3.057 -0.3973  0.1999 -0.1997
   15MOL   C222 5290   7.592   2.369   3.045  0.1951 -0.1966  0.4285
   15MOL   C223 5291   7.349   2.296   3.059  0.6312 -0.4547  1.1256
   15MOL   H224 5292   7.242   2.611   3.001  0.4147 -0.2360 -0.9805
   15MOL   H225 5293   7.384   2.717   3.013 -1.5997  0.1198 -2.0212
   15MOL   H226 5294   7.365   2.686   3.263  4.0421 -0.9803 -0.6942
   15MOL   H227 5295   7.530   2.560   3.200 -1.7901  2.5214 -1.5648
   15MOL   H228 5296   7.433   2.445   3.272 -1.3932 -1.1931 -0.4651
   15MOL   H229 5297   7.441   2.490   2.973  1.2567  0.4566 -0.2048
   15MOL   H230 5298   7.624   2.321   3.137  0.2201  0.4733  0.7664
   15MOL   H231 5299   7.591   2.300   2.960 -1.5478  0.9771 -0.5527
   15MOL   H232 5300   7.669   2.444   3.030  1.1230 -1.6097 -2.2915
   15MOL   H233 5301   7.356   2.242   3.153  1.9670 -1.9260  0.2163
   15MOL   H234 5302   7.245   2.325   3.044  0.8972  1.2842  2.4574
   15MOL   H235 5303   7.372   2.225   2.979  0.6474  1.3719 -0.5175
   15MOL   C236 5304   7.197   2.545   3.276 -0.2321  0.1010  0.3088
   15MOL   C237 5305   7.169   2.591   3.424 -0.3478 -0.8827 -0.9005
   15MOL   C238 5306   7.119   2.740   3.420 -0.4246 -0.5465  0.0264
   15MOL   C239 5307   7.042   2.789   3.546  0.4484 -0.1198  0.0569
   15MOL   C240 5308   6.995   2.932   3.527 -0.0786  0.2522  0.1132
   15MOL   C241 5309   6.926   2.705   3.594 -0.1224 -0.2719 -0.3392
   15MOL   H242 5310   7.215   2.438   3.268  0.3965  0.0432  2.2838
   15MOL   H243 5311   7.103   2.559   3.222  0.6234 -3.3244 -2.2809
   15MOL   H244 5312   7.079   2.539   3.457 -1.0799 -0.0355 -1.5309
   15MOL   H245 5313   7.059   2.754   3.330  0.5475  1.6829 -0.3058
   15MOL   H246 5314   7.199   2.813   3.421 -0.9474  0.1083 -2.8725
   15MOL   H247 5315   7.115   2.780   3.627  0.1943 -0.8862  0.2154
   15MOL   H248 5316   6.964   2.972   3.623  2.9559 -0.7819  1.6009
   15MOL   H249 5317   6.897   2.926   3.480 -0.9306 -1.7418  2.0381
   15MOL   H250 5318   7.069   3.001   3.484 -0.8191  1.8041  1.2706
   15MOL   H251 5319   6.890   2.743   3.689 -1.9664  1.4189 -1.6837
   15MOL   H252 5320   6.953   2.600   3.603  1.5297  0.0856 -0.9126
   15MOL   H253 5321   6.849   2.699   3.517  0.0458  2.4933 -0.7786
   15MOL   C254 5322   7.277   2.553   3.526 -0.2575 -0.1524 -0.0688
   15MOL   C255 5323   7.298   2.401   3.546 -0.5162 -0.0073 -0.6193
   15MOL   C256 5324   7.439   2.379   3.604 -0.0971  1.0604  0.8642
   15MOL   C257 5325   7.556   2.404   3.511  0.0365  0.0332  0.6457
   15MOL   C258 5326   7.571   2.283   3.415 -0.4165 -0.4201  0.0130
   15MOL   C259 5327   7.692   2.413   3.589  0.1264  0.5705 -0.0462
   15MOL   H260 5328   7.365   2.610   3.496 -0.8042 -0.0308 -1.5099
   15MOL   H261 5329   7.251   2.593   3.624  0.4884  2.0178 -0.7331
   15MOL   H262 5330   7.298   2.347   3.451 -0.2580 -2.1670  0.5897
   15MOL   H263 5331   7.461   2.287   3.658 -0.2191  0.5950  0.1181
   15MOL   H264 5332   7.448   2.460   3.677  0.5061 -0.3999  2.4712
   15MOL   H265 5333   7.550   2.496   3.452 -0.7059 -0.1133  0.4796
   15MOL   H266 5334   7.481   2.250   3.364 -0.6954 -0.7008  0.6756
   15MOL   H267 5335   7.594   2.194   3.473 -1.4887  0.4254  1.7809
   15MOL   H268 5336   7.643   2.301   3.335 -2.6231  5.0176 -0.9836
   15MOL   H269 5337   7.711   2.325   3.651 -4.4515  0.0772  0.8457
   15MOL   H270 5338   0.024   2.418   3.520  1.9814 -3.5218  1.7608
   15MOL   H271 5339   7.688   2.506   3.645 -0.9696  0.3500  0.2475
   15MOL   C272 5340   7.187   2.345   3.642  0.4270  0.4292 -0.3067
   15MOL   C273 5341   7.132   2.216   3.583  0.1845 -0.0940  0.4068
   15MOL   C274 5342   7.242   2.107   3.585  0.3262  0.1389 -0.4197
   15MOL   C275 5343   7.214   1.968   3.523 -0.1957 -0.2813 -0.1676
   15MOL   C276 5344   7.323   1.869   3.564  0.5868  0.1043  0.5918
   15MOL   C277 5345   7.210   1.975   3.368 -0.3712 -0.0389  0.3605
   15MOL   H278 5346   7.236   2.342   3.739  0.6646  0.4069 -0.4277
   15MOL   H279 5347   7.110   2.422   3.657  0.0650  0.2312 -1.1238
   15MOL   H280 5348   7.098   2.244   3.483 -3.3652 -2.1150  0.9660
   15MOL   H281 5349   7.276   2.103   3.689  0.4244 -0.3337 -0.4720
   15MOL   H282 5350   7.336   2.129   3.536  0.5127  0.8360  0.2379
   15MOL   H283 5351   7.121   1.917   3.550  0.2102 -1.7503 -1.4529
   15MOL   H284 5352   7.281   1.772   3.533  0.3157 -0.0478  1.4165
   15MOL   H285 5353   7.414   1.890   3.510 -0.2452  0.7127 -0.5941
   15MOL   H286 5354   7.330   1.864   3.673 -2.6352 -0.0440  0.8407
   15MOL   H287 5355   7.311   1.999   3.335 -0.8118  0.6622 -0.5280
   15MOL   H288 5356   7.174   1.887   3.316 -0.4307  0.7681 -1.0072
   15MOL   H289 5357   7.134   2.045   3.331 -0.4447  0.1503  0.8676
   15MOL   C290 5358   6.992   2.178   3.641 -0.2891  0.1691 -0.2543
   15MOL   C291 5359   6.994   2.148   3.790  0.6556  0.0250 -0.4064
   15MOL   C292 5360   6.919   2.262   3.858  0.0297 -0.0302 -0.3049
   15MOL   C293 5361   6.961   2.292   4.007 -0.0057 -0.2198  0.1753
   15MOL   C294 5362   7.078   2.383   4.020  0.4660 -0.0000 -0.5694
   15MOL   C295 5363   6.846   2.369   4.075  0.6460 -0.4602  0.3950
   15MOL   H296 5364   6.924   2.262   3.626 -0.2001  0.5673  1.3854
   15MOL   H297 5365   6.957   2.092   3.585  0.8156 -0.8282  0.5605
   15MOL   H298 5366   7.094   2.159   3.831  0.7739 -1.1240 -0.3732
   15MOL   H299 5367   6.815   2.230   3.861  0.9502 -3.1005  1.1085
   15MOL   H300 5368   6.921   2.351   3.795 -1.5736  1.7469  2.0589
   15MOL   H301 5369   6.970   2.199   4.063  2.5229 -0.3885 -0.4381
   15MOL   H302 5370   7.114   2.409   4.119  0.9095 -0.5696 -0.5805
   15MOL   H303 5371   7.075   2.478   3.965  1.3416  0.7740  0.7035
   15MOL   H304 5372   7.159   2.326   3.974  0.7496 -0.3576  0.3801
   15MOL   H305 5373   6.757   2.309   4.064  0.0752  0.2778  0.9415
   15MOL   H306 5374   6.818   2.465   4.032 -2.7050 -2.3051 -1.7712
   15MOL   H307 5375   6.865   2.399   4.179 -1.3036  3.7375 -0.3738
   15MOL   C308 5376   6.935   2.001   3.804 -0.1183 -0.2357 -0.7969
   15MOL   C309 5377   6.984   1.925   3.929  0.1353  0.6600 -0.2643
   15MOL   C310 5378   6.886   1.820   3.964  0.4118  0.3172  0.6550
   15MOL   C311 5379   6.738   1.862   4.000 -0.1548 -0.1476  0.8164
   15MOL   C312 5380   6.650   1.739   4.030 -0.1331  0.2670 -0.8393
   15MOL   C313 5381   6.730   1.968   4.117 -0.4349  0.0686 -0.7364
   15MOL   H314 5382   6.827   2.002   3.789  0.1025 -3.5111 -3.2974
   15MOL   H315 5383   6.977   1.943   3.721  2.3963 -0.7156  0.7470
   15MOL   H316 5384   6.987   2.001   4.007 -2.3747  1.8466 -1.2762
   15MOL   H317 5385   6.930   1.764   4.047 -0.1973  0.9458  1.4049
   15MOL   H318 5386   6.902   1.743   3.889 -0.1088  1.6768 -0.8768
   15MOL   H319 5387   6.702   1.901   3.905  1.8557  0.3520  0.2275
   15MOL   H320 5388   6.699   1.686   4.112 -2.7269 -0.4633  0.2805
   15MOL   H321 5389   6.647   1.662   3.954 -0.0383 -0.2572 -0.3127
   15MOL   H322 5390   6.551   1.761   4.070 -0.6740 -0.1992 -1.9101
   15MOL   H323 5391   6.630   2.007   4.137  0.1922  0.6809  1.3327
   15MOL   H324 5392   6.765   1.926   4.212 -0.9086  0.0047 -0.5880
   15MOL   H325 5393   6.790   2.057   4.101  0.8126  0.0529  3.2884
   15MOL   C326 5394   7.126   1.873   3.913 -0.3717  0.0264  0.2518
   15MOL   C327 5395   7.198   1.807   4.037  0.4497 -0.5185 -0.6782
   15MOL   C328 5396   7.226   1.911   4.150 -0.2911  0.1492  0.2765
   15MOL   C329 5397   7.125   1.906   4.267  0.4395  0.1492  0.0602
   15MOL   C330 5398   7.151   1.770   4.348  0.6808 -0.2025 -0.2869
   15MOL   C331 5399   7.140   2.036   4.350  0.2418  0.4855  0.2767
   15MOL   H332 5400   7.188   1.957   3.883  0.7556  0.4403  3.5818
   15MOL   H333 5401   7.131   1.801   3.831  2.2623  1.2684 -0.7239
   15MOL   H334 5402   7.130   1.729   4.070  0.9195 -0.3870  0.6202
   15MOL   H335 5403   7.331   1.901   4.177 -1.0140 -0.6689  2.9293
   15MOL   H336 5404   7.216   2.012   4.110 -1.0827  0.0346  0.1608
   15MOL   H337 5405   7.027   1.908   4.218  1.5472  1.6527 -2.1456
   15MOL   H338 5406   7.257   1.754   4.367 -0.1285 -2.8139  2.4732
   15MOL   H339 5407   7.102   1.684   4.302 -2.5320  0.6125  1.4066
   15MOL   H340 5408   7.108   1.779   4.448 -1.5807 -1.6117 -1.0822
   15MOL   H341 5409   7.086   2.113   4.295 -1.3870 -0.9072 -0.1384
   15MOL   H342 5410   7.101   2.018   4.451  0.8095 -0.1263  0.3897
   15MOL   H343 5411   7.241   2.071   4.367  0.4343 -0.7038  1.7136
   15MOL   C344 5412   7.329   1.727   4.008  0.6127 -0.2170  0.3884
   15MOL   C345 5413   7.303   1.596   3.939 -0.4746 -0.1744 -0.0148
   15MOL   C346 5414   7.420   1.531   3.862 -0.2673 -0.4443 -0.3783
   15MOL   C347 5415   7.378   1.403   3.794  0.3626 -0.3688 -0.0622
   15MOL   C348 5416   7.391   1.281   3.883 -0.4122 -0.5811 -0.1505
   15MOL   C349 5417   7.439   1.373   3.657  0.0738  0.3363 -0.4572
   15MOL   H350 5418   7.377   1.704   4.103 -0.7367 -2.2084  0.5986
   15MOL   H351 5419   7.401   1.787   3.951  0.5507  0.4418  1.0040
   15MOL   H352 5420   7.227   1.608   3.862 -0.1692 -1.2667 -0.4970
   15MOL   H353 5421   7.453   1.595   3.781 -1.0253 -1.5736 -1.5885
   15MOL   H354 5422   7.499   1.518   3.937 -0.2672 -0.7785 -0.4345
   15MOL   H355 5423   7.273   1.421   3.772 -0.3071 -0.5635  2.7585
   15MOL   H356 5424   7.361   1.185   3.840  1.3636 -0.8977 -0.7296
   15MOL   H357 5425   7.489   1.286   3.929  0.6397  1.3203 -2.4793
   15MOL   H358 5426   7.328   1.307   3.968  0.9957 -0.6690  0.9388
   15MOL   H359 5427   7.544   1.348   3.669  0.5763  1.8609 -1.5313
   15MOL   H360 5428   7.427   1.455   3.587 -1.2354  0.1687 -0.4413
   15MOL   H361 5429   7.391   1.285   3.616 -0.6330  0.3082  0.3992
   15MOL   H362 5430   7.250   1.524   4.001  1.5556 -0.1187  1.8637
   16MOL     C1 5431   6.825   7.095   1.636  0.5630  0.2452  0.3329
   16MOL     C2 5432   6.952   7.108   1.544  0.8235  0.0564 -0.2208
   16MOL     C3 5433   6.970   6.980   1.463  0.4902 -0.1845  0.8503
   16MOL     C4 5434   6.858   6.946   1.363 -0.2016  0.4335  0.5447
   16MOL     C5 5435   6.898   6.826   1.293  0.0506  0.5720 -0.6652
   16MOL     C6 5436   6.836   7.052   1.254 -0.1507 -0.1499  0.1325
   16MOL     H7 5437   6.844   7.039   1.726 -1.8921  1.3047  1.5704
   16MOL     H8 5438   6.791   7.192   1.674  1.3227  0.1328  1.3199
   16MOL     H9 5439   6.933   7.199   1.488  1.2889  0.4440  0.2403
   16MOL    H10 5440   7.062   6.997   1.407 -0.1836 -1.7393 -0.7708
   16MOL    H11 5441   6.980   6.895   1.530 -2.1986  0.0560  1.6382
   16MOL    H12 5442   6.759   6.932   1.407 -1.0873 -2.0196 -2.0709
   16MOL    H13 5443   6.919   6.754   1.372  0.6166  1.9569  0.4540
   16MOL    H14 5444   6.822   6.787   1.225  0.0424 -1.2335  0.3402
   16MOL    H15 5445   6.988   6.843   1.233  0.2315  0.8307 -0.3166
   16MOL    H16 5446   6.794   7.009   1.163  1.8047  0.1886 -0.9574
   16MOL    H17 5447   6.929   7.105   1.232 -0.1869  0.4187  1.3385
   16MOL    H18 5448   6.778   7.138   1.284  0.3448  1.2685 -2.7774
   16MOL    H19 5449   6.737   7.051   1.589  0.9226 -1.0934  0.8967
   16MOL    C20 5450   7.078   7.146   1.629  0.2348  0.1079 -0.1949
   16MOL    C21 5451   7.192   7.211   1.536 -0.4985  0.4365 -0.2522
   16MOL    C22 5452   7.145   7.341   1.466 -0.5622  0.6128 -0.0073
   16MOL    C23 5453   7.122   7.332   1.315 -0.0400  0.1397  0.4670
   16MOL    C24 5454   7.019   7.431   1.272  0.9091 -0.5510  0.2805
   16MOL    C25 5455   7.251   7.343   1.237 -0.3850 -0.0954  0.2904
   16MOL    H26 5456   7.043   7.200   1.718 -4.0117 -2.1123 -0.3775
   16MOL    H27 5457   7.112   7.049   1.663 -1.9348 -0.7724 -0.4566
   16MOL    H28 5458   7.218   7.139   1.458 -0.6792 -2.0680  1.9423
   16MOL    H29 5459   7.197   7.433   1.489 -0.4655  0.6030 -0.1859
   16MOL    H30 5460   7.052   7.372   1.514 -0.0869  2.8977 -0.5323
   16MOL    H31 5461   7.083   7.235   1.284  0.6989  0.2298 -0.7946
   16MOL    H32 5462   6.926   7.436   1.329  1.2804 -1.4391  0.9760
   16MOL    H33 5463   6.991   7.399   1.171  0.2118 -3.7007  1.4288
   16MOL    H34 5464   7.048   7.536   1.275 -1.3462  0.1123 -0.4030
   16MOL    H35 5465   7.313   7.430   1.261  0.1145 -0.7306  1.3396
   16MOL    H36 5466   7.322   7.268   1.272  0.6058  0.6038 -0.1976
   16MOL    H37 5467   7.238   7.342   1.129  1.0999 -0.3942  0.0958
   16MOL    C38 5468   7.324   7.238   1.611  0.2443  0.0671  0.0622
   16MOL    C39 5469   7.412   7.119   1.657 -0.5099  0.1068  0.3313
   16MOL    C40 5470   7.503   7.176   1.769 -0.5736 -0.6099 -0.1635
   16MOL    C41 5471   7.498   7.094   1.899 -0.1941  0.0441  0.0264
   16MOL    C42 5472   7.368   7.135   1.965 -0.2295  0.1590 -0.1332
   16MOL    C43 5473   7.626   7.113   1.986  0.8440  0.3945  0.0882
   16MOL    H44 5474   7.309   7.299   1.700  1.7607 -0.7731  0.9041
   16MOL    H45 5475   7.395   7.302   1.560  0.1137  0.0753 -0.1097
   16MOL    H46 5476   7.348   7.046   1.706 -1.4713 -0.9780 -2.4315
   16MOL    H47 5477   7.485   7.280   1.795  2.5233 -0.3122  1.0129
   16MOL    H48 5478   7.607   7.183   1.738 -0.3355 -1.1806  0.4930
   16MOL    H49 5479   7.496   6.986   1.884 -1.2077  0.0527  0.0648
   16MOL    H50 5480   7.283   7.129   1.898  0.2116  1.4588 -0.8309
   16MOL    H51 5481   7.342   7.066   2.045 -1.4812  0.9280  0.1429
   16MOL    H52 5482   7.379   7.234   2.010  0.1517  1.7409 -3.5745
   16MOL    H53 5483   7.616   7.185   2.068  1.5962 -0.8811  1.3302
   16MOL    H54 5484   7.709   7.153   1.929  3.1136 -2.4417  1.2418
   16MOL    H55 5485   7.649   7.022   2.042  2.9082  1.0130  0.2875
   16MOL    C56 5486   7.482   7.042   1.536  0.5684  0.0035  0.1780
   16MOL    C57 5487   7.419   6.911   1.483 -0.7536  0.1184 -0.1946
   16MOL    C58 5488   7.431   6.800   1.591 -0.0246 -0.0663  0.1145
   16MOL    C59 5489   7.342   6.675   1.569  0.4031  1.0569 -0.2685
   16MOL    C60 5490   7.199   6.686   1.628 -0.4060 -0.0170  0.6509
   16MOL    C61 5491   7.413   6.551   1.624  0.7061 -0.0685 -0.1785
   16MOL    H62 5492   7.585   7.015   1.561  0.1826 -0.0176  1.7593
   16MOL    H63 5493   7.490   7.112   1.453  1.7445  1.0610  1.1518
   16MOL    H64 5494   7.315   6.928   1.455 -0.4446  3.5609  0.5402
   16MOL    H65 5495   7.531   6.761   1.573 -0.1379 -0.4794  0.3539
   16MOL    H66 5496   7.415   6.840   1.692 -0.3240  0.1608 -0.0235
   16MOL    H67 5497   7.327   6.662   1.462 -0.3994 -0.3579  0.0089
   16MOL    H68 5498   7.191   6.706   1.735  0.5892  0.5240  0.6232
   16MOL    H69 5499   7.129   6.606   1.603 -1.7594  1.0945  0.8482
   16MOL    H70 5500   7.147   6.770   1.581 -0.4942 -0.8465 -0.7558
   16MOL    H71 5501   7.355   6.463   1.599  0.8241  0.1697 -1.3346
   16MOL    H72 5502   7.412   6.558   1.732 -2.9243 -0.7420 -0.1194
   16MOL    H73 5503   7.514   6.527   1.590 -0.1394 -1.9462 -1.4231
   16MOL    C74 5504   7.503   6.878   1.354 -0.1444  0.6013 -0.3482
   16MOL    C75 5505   7.445   6.949   1.225 -0.7654 -0.2132  0.4445
   16MOL    C76 5506   7.338   6.852   1.179 -0.2154 -0.0477  0.2801
   16MOL    C77 5507   7.255   6.901   1.062  0.2430 -0.2662 -0.2038
   16MOL    C78 5508   7.180   7.028   1.091  0.0703 -0.2109 -0.9415
   16MOL    C79 5509   7.175   6.791   0.984  0.7312  0.1371  0.6631
   16MOL    H80 5510   7.511   6.772   1.334 -0.0456  0.4210  0.6032
   16MOL    H81 5511   7.606   6.912   1.361 -0.0270  0.0578  0.6156
   16MOL    H82 5512   7.407   7.047   1.253  0.1514  0.1610  0.3958
   16MOL    H83 5513   7.380   6.755   1.155  2.4881  1.2069 -0.3009
   16MOL    H84 5514   7.262   6.837   1.255 -0.5724  0.8044  0.1061
   16MOL    H85 5515   7.322   6.930   0.981 -1.6213 -1.9416 -2.4259
   16MOL    H86 5516   7.254   7.107   1.099 -0.7719  0.6355 -1.3896
   16MOL    H87 5517   7.135   7.034   1.190  0.6970 -0.7874 -0.6177
   16MOL    H88 5518   7.105   7.057   1.016 -1.3028 -2.0521 -0.3151
   16MOL    H89 5519   7.162   6.823   0.881  0.7457 -0.0857  0.5932
   16MOL    H90 5520   7.235   6.700   0.986 -0.9729 -0.9769  2.1153
   16MOL    H91 5521   7.077   6.775   1.028  0.1479  4.2019  1.0098
   16MOL    C92 5522   7.558   6.966   1.113 -0.3744  0.1563  0.1675
   16MOL    C93 5523   7.607   7.113   1.087  0.6935  0.3972 -0.1733
   16MOL    C94 5524   7.697   7.159   1.198  0.6311  0.9216  0.5980
   16MOL    C95 5525   7.742   7.304   1.199 -0.4992 -0.2687 -0.2923
   16MOL    C96 5526   7.628   7.401   1.229 -0.6607 -0.0709  0.3079
   16MOL    C97 5527   0.099   7.313   1.310  0.0453 -0.1460 -0.3376
   16MOL    H98 5528   7.652   6.917   1.138 -0.3011  0.8296  1.2813
   16MOL    H99 5529   7.538   6.917   1.018  0.4897  0.8109 -0.3634
   16MOL   H100 5530   7.518   7.176   1.083  0.5114  0.5590  4.0381
   16MOL   H101 5531   0.034   7.100   1.176  0.2332  0.6997 -0.4461
   16MOL   H102 5532   7.662   7.128   1.297 -1.8855  1.2560 -0.1550
   16MOL   H103 5533   0.030   7.336   1.103 -1.0351  1.5739  0.0799
   16MOL   H104 5534   7.585   7.374   1.326  2.4150 -0.1944  1.7088
   16MOL   H105 5535   7.557   7.395   1.147  0.5282  0.3962 -0.7797
   16MOL   H106 5536   7.683   7.495   1.234 -0.3497 -0.2851  1.1073
   16MOL   H107 5537   0.061   7.368   1.396  0.2337  0.3516 -0.5707
   16MOL   H108 5538   0.199   7.346   1.285  0.2270  0.3317  0.9693
   16MOL   H109 5539   0.123   7.211   1.341 -0.7653 -0.3197 -0.2641
   16MOL   C110 5540   7.666   7.119   0.941  0.2831  0.5120  0.2083
   16MOL   C111 5541   7.597   7.142   0.803  0.7343 -0.2049 -0.2414
   16MOL   C112 5542   7.509   7.023   0.758 -0.4770  0.1420 -0.4895
   16MOL   C113 5543   7.471   7.001   0.607  0.0887  0.5803 -0.0174
   16MOL   C114 5544   7.363   6.891   0.596 -0.3995  0.1063 -0.1796
   16MOL   C115 5545   7.599   6.956   0.539  0.0972 -0.6218  0.3945
   16MOL   H116 5546   7.728   7.030   0.933 -1.1688 -0.4975  0.0658
   16MOL   H117 5547   7.737   7.201   0.954  0.3763  0.8853 -2.3806
   16MOL   H118 5548   7.683   7.157   0.738  1.8737 -1.7922  0.8685
   16MOL   H119 5549   7.412   7.032   0.806  0.3072  2.9966  0.6399
   16MOL   H120 5550   7.550   6.932   0.801 -3.4790 -0.3799  1.3520
   16MOL   H121 5551   7.422   7.092   0.572 -1.6739  0.1663  1.3333
   16MOL   H122 5552   7.286   6.905   0.672  0.0918  1.9446 -0.0033
   16MOL   H123 5553   7.385   6.787   0.619 -1.3833 -0.0206  0.2289
   16MOL   H124 5554   7.304   6.896   0.504 -1.3657  2.1167  0.5078
   16MOL   H125 5555   7.655   7.044   0.507 -0.7557  0.0923  0.8630
   16MOL   H126 5556   7.572   6.901   0.449 -0.1142 -1.0763  0.7359
   16MOL   H127 5557   7.663   6.900   0.607  0.6104  0.2055  0.6098
   16MOL   C128 5558   7.510   7.270   0.794  0.1372 -0.0287  0.1618
   16MOL   C129 5559   7.577   7.404   0.830 -1.1297 -0.4562 -0.5236
   16MOL   C130 5560   7.472   7.523   0.806 -1.1685  0.0238  0.2260
   16MOL   C131 5561   7.373   7.543   0.921 -0.5110  0.4425 -0.2113
   16MOL   C132 5562   7.421   7.653   1.021 -1.0741  0.1954  0.0852
   16MOL   C133 5563   7.227   7.559   0.868  0.4386 -0.1664 -0.3272
   16MOL   H134 5564   7.431   7.254   0.868 -0.4327  0.4260 -0.3478
   16MOL   H135 5565   7.480   7.281   0.690  1.0889 -2.5481 -0.3917
   16MOL   H136 5566   7.603   7.400   0.935  0.0104  1.2953 -0.7168
   16MOL   H137 5567   7.520   7.619   0.786  3.0434 -1.9303  0.5959
   16MOL   H138 5568   7.432   7.514   0.704  1.1147 -0.2008 -0.6709
   16MOL   H139 5569   7.390   7.456   0.985  0.1747 -0.9584 -2.2613
   16MOL   H140 5570   7.405   0.002   0.983 -0.8689  1.5621  3.4355
   16MOL   H141 5571   7.525   7.637   1.049 -0.8101 -0.2886 -1.1338
   16MOL   H142 5572   7.365   7.645   1.114  0.0536  2.1951  0.9744
   16MOL   H143 5573   7.188   7.475   0.811 -2.7606  1.3113 -0.4865
   16MOL   H144 5574   7.151   7.585   0.942  0.6725 -0.9000  0.1658
   16MOL   H145 5575   7.228   7.645   0.800  0.0274 -0.0802 -0.2309
   16MOL   C146 5576   7.691   7.428   0.729 -0.2389 -0.3234  1.3927
   16MOL   C147 5577   0.025   7.549   0.761  0.4754  0.5412  0.0566
   16MOL   C148 5578   0.068   7.630   0.633  0.4465  0.4900  0.5071
   16MOL   C149 5579   7.707   7.709   0.565 -0.6576 -0.5305  0.8235
   16MOL   C150 5580   7.662   0.082   0.645 -0.1359 -0.2804  0.0632
   16MOL   C151 5581   0.002   0.016   0.429  0.3688  0.7439 -0.1167
   16MOL   H152 5582   7.646   7.436   0.631  1.9684  0.8817  0.4350
   16MOL   H153 5583   0.009   7.347   0.714  1.4686  1.4735 -0.6758
   16MOL   H154 5584   7.708   7.606   0.824 -0.1081  0.7485 -0.7650
   16MOL   H155 5585   0.152   7.694   0.660 -0.1799  1.9777 -0.9476
   16MOL   H156 5586   0.116   7.553   0.573 -0.2654 -0.1248  0.7214
   16MOL   H157 5587   7.623   7.641   0.552 -2.5703  2.0147 -0.6051
   16MOL   H158 5588   7.751   0.143   0.663  1.4374 -1.7714 -2.3806
   16MOL   H159 5589   7.620   0.053   0.741 -2.0516 -2.5190 -1.4003
   16MOL   H160 5590   7.589   0.152   0.605  0.6484  1.0490  0.9234
   16MOL   H161 5591   7.695   0.101   0.395  1.0843  2.3204  2.4930
   16MOL   H162 5592   7.748   7.690   0.353  3.0142  1.4468 -1.1170
   16MOL   H163 5593   0.106   0.049   0.429  0.2564  1.2750 -3.7416
   16MOL   C164 5594   0.148   7.491   0.832 -0.4201  0.3559 -0.2929
   16MOL   C165 5595   0.228   7.599   0.922 -0.6156 -0.4868 -0.3295
   16MOL   C166 5596   0.140   7.635   1.041 -0.2882  0.4183 -0.0324
   16MOL   C167 5597   0.133   0.024   1.097 -0.1610  0.4548 -0.6313
   16MOL   C168 5598   0.064   0.136   1.017  0.8628  0.2588 -0.1290
   16MOL   C169 5599   0.073   0.017   1.236 -0.3713 -0.0497 -0.1701
   16MOL   H170 5600   0.118   7.416   0.905  0.5113  0.7195  0.4761
   16MOL   H171 5601   0.215   7.437   0.765  1.0594 -0.8306  2.0703
   16MOL   H172 5602   0.237   7.693   0.867 -0.1811 -1.1756 -1.4503
   16MOL   H173 5603   0.034   7.619   1.018 -0.0562  1.3857 -1.8615
   16MOL   H174 5604   0.151   7.558   1.117 -0.4313 -1.4301 -1.8306
   16MOL   H175 5605   0.238   0.050   1.109 -0.6002  2.1917 -0.4908
   16MOL   H176 5606   7.720   0.106   0.975  1.2494  0.5827 -1.2619
   16MOL   H177 5607   0.122   0.166   0.929  2.2402 -0.7757  0.4040
   16MOL   H178 5608   0.055   0.223   1.081  0.5969  1.5522 -1.8992
   16MOL   H179 5609   0.140   7.706   1.292  0.2719  1.4791  0.8288
   16MOL   H180 5610   7.728   7.719   1.232  0.6126 -2.0573  0.9789
   16MOL   H181 5611   0.059   0.113   1.285 -2.5289 -0.3670 -0.1122
   16MOL   C182 5612   0.359   7.528   0.953  0.1757 -0.3883  0.0441
   16MOL   C183 5613   0.465   7.556   0.843 -0.2723  0.3960  0.6664
   16MOL   C184 5614   0.530   7.698   0.874 -0.1175  0.8544  0.1474
   16MOL   C185 5615   0.595   0.015   0.758  0.6138 -0.4535 -0.3093
   16MOL   C186 5616   0.500   0.053   0.643 -0.0447 -0.0243  0.1363
   16MOL   C187 5617   0.676   0.126   0.805 -0.6984 -0.2831 -0.2492
   16MOL   H188 5618   0.343   7.421   0.961 -0.0236 -0.6137 -2.7035
   16MOL   H189 5619   0.401   7.566   1.046  0.3454  0.8643 -0.5244
   16MOL   H190 5620   0.409   7.567   0.750  2.5411 -0.1267 -1.1215
   16MOL   H191 5621   0.606   7.681   0.951  0.8782 -0.4565 -1.0985
   16MOL   H192 5622   0.460   0.020   0.913 -2.3132 -0.9618 -0.2151
   16MOL   H193 5623   0.668   7.694   0.724  0.1254 -1.4857  0.8364
   16MOL   H194 5624   0.555   0.109   0.568  0.5401 -0.4542  0.2398
   16MOL   H195 5625   0.412   0.105   0.681  1.2237  2.3884 -0.1602
   16MOL   H196 5626   0.468   7.718   0.586  0.8374  0.0659 -0.5036
   16MOL   H197 5627   0.610   0.209   0.827  1.3479  1.6932 -1.2482
   16MOL   H198 5628   0.730   0.173   0.722  1.7859 -1.4368  0.6703
   16MOL   H199 5629   0.744   0.099   0.886 -1.3802 -0.2125  0.3477
   16MOL   C200 5630   0.562   7.449   0.818 -0.2196  0.6016  0.6124
   16MOL   C201 5631   0.510   7.310   0.764  0.4585 -0.1221 -0.1362
   16MOL   C202 5632   0.510   7.210   0.884  0.1324 -0.1913  0.5038
   16MOL   C203 5633   0.416   7.085   0.859  0.0132 -0.5259  0.4458
   16MOL   C204 5634   0.449   6.986   0.966  0.2256  0.5292 -0.1360
   16MOL   C205 5635   0.273   7.117   0.857  0.1843  0.5378  0.1759
   16MOL   H206 5636   0.637   7.454   0.897  0.8296  2.5533 -0.4566
   16MOL   H207 5637   0.627   7.495   0.743  1.0342  1.4406  2.1949
   16MOL   H208 5638   0.412   7.328   0.721  2.1743  1.4309 -3.6253
   16MOL   H209 5639   0.613   7.175   0.883  0.4347  0.6462  1.5356
   16MOL   H210 5640   0.488   7.265   0.976  0.1045 -0.4515  0.6520
   16MOL   H211 5641   0.455   7.041   0.768 -0.0603  1.4303 -0.5431
   16MOL   H212 5642   0.395   7.007   1.059  0.0432  2.2757 -0.6330
   16MOL   H213 5643   0.553   6.982   0.996 -0.0187  1.0359  0.7921
   16MOL   H214 5644   0.423   6.891   0.919  0.1141  1.1161 -1.2489
   16MOL   H215 5645   0.217   7.025   0.840  0.5343  0.3858 -0.1791
   16MOL   H216 5646   0.248   7.191   0.781  0.6524  0.9201  0.3953
   16MOL   H217 5647   0.236   7.164   0.949  0.3816 -1.9715  1.5711
   16MOL   C218 5648   0.601   7.258   0.652  0.2993 -0.5964 -0.8338
   16MOL   C219 5649   0.594   7.341   0.512  0.6173  0.8130 -0.3132
   16MOL   C220 5650   0.497   7.262   0.419  0.1838 -0.3572  0.4907
   16MOL   C221 5651   0.353   7.244   0.457  0.0760 -0.5774  0.0934
   16MOL   C222 5652   0.280   7.372   0.497 -0.1631  1.1594 -0.2649
   16MOL   C223 5653   0.264   7.164   0.358  0.6377  0.2890 -0.3637
   16MOL   H224 5654   0.706   7.251   0.681  0.6370 -1.0636 -2.1282
   16MOL   H225 5655   0.575   7.156   0.624 -2.0555 -0.1065 -0.5229
   16MOL   H226 5656   0.553   7.439   0.535 -0.1137  0.4469 -0.0332
   16MOL   H227 5657   0.495   7.299   0.316 -1.9242  1.1250  1.0271
   16MOL   H228 5658   0.538   7.162   0.405  1.5001 -0.1156  2.4304
   16MOL   H229 5659   0.363   7.183   0.547  3.3210  1.6755  1.3385
   16MOL   H230 5660   0.187   7.350   0.549  0.8292 -0.1164  1.0152
   16MOL   H231 5661   0.336   7.445   0.556  3.7669 -2.7092  1.0640
   16MOL   H232 5662   0.249   7.424   0.406 -3.3380  0.8081  0.5674
   16MOL   H233 5663   0.255   7.215   0.263  0.3721  1.3158  0.2129
   16MOL   H234 5664   0.314   7.067   0.346 -1.1339 -0.8499  1.0373
   16MOL   H235 5665   0.164   7.142   0.397  2.1862 -2.4090  2.3719
   16MOL   C236 5666   0.738   7.362   0.453 -0.2587  0.2303 -0.0086
   16MOL   C237 5667   0.752   7.462   0.335  0.0755  0.0280 -0.1589
   16MOL   C238 5668   0.887   7.432   0.270 -0.9469  0.1384  0.0824
   16MOL   C239 5669   0.896   7.317   0.158  0.0317  0.4475  0.6139
   16MOL   C240 5670   0.830   7.348   0.025 -0.8028  0.0424  0.1912
   16MOL   C241 5671   1.049   7.284   0.130  0.1431 -0.0459 -0.0178
   16MOL   H242 5672   0.784   7.269   0.420 -0.5383 -0.8117  2.4548
   16MOL   H243 5673   0.804   7.397   0.532 -0.6237 -0.7439  0.7359
   16MOL   H244 5674   0.680   7.444   0.255  1.3052 -0.8361 -1.0756
   16MOL   H245 5675   0.963   7.419   0.347 -0.2496 -0.7958 -0.7692
   16MOL   H246 5676   0.907   7.522   0.212 -1.9509  0.9700  0.9820
   16MOL   H247 5677   0.849   7.229   0.201 -2.9120  1.9564  0.5627
   16MOL   H248 5678   0.874   7.438   7.735  1.5524 -1.4118 -0.5010
   16MOL   H249 5679   0.721   7.345   0.025 -0.7655 -1.6232  0.8587
   16MOL   H250 5680   0.851   7.264   7.712  1.3779  1.9442 -1.6572
   16MOL   H251 5681   1.051   7.189   0.076 -0.3783 -0.1964  0.2252
   16MOL   H252 5682   1.103   7.281   0.224 -0.6299  3.0366  0.5736
   16MOL   H253 5683   1.103   7.364   0.077 -0.2401  1.3723  1.7072
   16MOL   C254 5684   0.729   7.608   0.388  0.5128 -0.2931  0.2609
   16MOL   C255 5685   0.701   7.705   0.271 -0.0448 -0.4063 -0.3155
   16MOL   C256 5686   0.551   7.732   0.242  0.2497 -0.0500  0.1844
   16MOL   C257 5687   0.459   7.613   0.215  0.4544 -0.3647 -0.2191
   16MOL   C258 5688   0.475   7.558   0.073 -0.2746 -0.3404  0.1751
   16MOL   C259 5689   0.315   7.649   0.241  0.6764  0.2510  0.6617
   16MOL   H260 5690   0.646   7.604   0.459  1.0202 -2.0136  0.7937
   16MOL   H261 5691   0.817   7.627   0.449 -0.1418 -0.4491  1.2661
   16MOL   H262 5692   0.732   7.651   0.182  2.7122 -3.0777  2.1355
   16MOL   H263 5693   0.550   0.051   0.159  0.9974  1.7278  1.6592
   16MOL   H264 5694   0.508   0.028   0.330  1.7950 -0.5187  1.2364
   16MOL   H265 5695   0.481   7.538   0.291  1.5783  0.4139  0.2453
   16MOL   H266 5696   0.406   7.478   0.044 -0.9328  0.6206 -0.9507
   16MOL   H267 5697   0.566   7.499   0.068  0.1082  0.3056 -0.4339
   16MOL   H268 5698   0.472   7.637   7.751 -0.7981  0.1538  0.7062
   16MOL   H269 5699   0.255   7.561   0.217  1.9952 -0.0621 -1.6662
   16MOL   H270 5700   0.292   7.673   0.345 -0.7081  0.4209  0.3318
   16MOL   H271 5701   0.260   7.722   0.181 -1.3837 -0.2573  1.8817
   16MOL   C272 5702   0.779   0.089   0.285  0.0733  0.4567  0.3077
   16MOL   C273 5703   0.911   0.106   0.212  0.2167  0.0518 -0.8172
   16MOL   C274 5704   1.023   0.021   0.273  0.1229  0.0761 -0.0440
   16MOL   C275 5705   1.108   0.091   0.380 -0.1228 -0.1121 -0.4757
   16MOL   C276 5706   1.220   7.745   0.413  0.0011 -0.4598 -0.4255
   16MOL   C277 5707   1.044   0.131   0.512  0.1083 -0.7312  0.3843
   16MOL   H278 5708   0.720   0.171   0.245  0.4921  1.2327  1.2468
   16MOL   H279 5709   0.790   0.124   0.388  2.3188 -1.6748  0.8487
   16MOL   H280 5710   0.945   0.209   0.222 -1.1628  0.3792  0.6764
   16MOL   H281 5711   1.101   7.746   0.203 -0.9758  0.2915 -1.3761
   16MOL   H282 5712   0.984   7.678   0.311  2.5904 -1.1979 -0.6099
   16MOL   H283 5713   1.159   0.176   0.335 -3.8116  2.8697  0.7358
   16MOL   H284 5714   1.296   0.041   0.475 -0.5075 -2.3140  1.6647
   16MOL   H285 5715   1.179   7.660   0.467 -0.4812 -0.1840 -0.3514
   16MOL   H286 5716   1.270   7.701   0.327 -0.6221 -3.3828  0.6724
   16MOL   H287 5717   0.983   0.220   0.497 -2.6411 -2.6570 -0.2681
   16MOL   H288 5718   0.995   0.045   0.557  1.7054 -1.9449 -0.1349
   16MOL   H289 5719   1.123   0.164   0.579 -0.9431  0.5772  1.0099
   16MOL   C290 5720   0.890   0.083   0.057 -0.0181 -0.0112  0.2798
   16MOL   C291 5721   1.003   0.139   7.716  0.2529 -0.0166  0.4859
   16MOL   C292 5722   1.006   0.086   7.575  0.0825  0.6699 -0.0334
   16MOL   C293 5723   0.994   7.681   7.558  0.1562  0.3073  0.7104
   16MOL   C294 5724   1.009   7.639   7.410  0.5601  0.2337 -0.1493
   16MOL   C295 5725   1.099   7.605   7.640 -0.0530  0.1132  0.0753
   16MOL   H296 5726   0.864   7.731   0.035  0.9614 -0.1746 -0.1029
   16MOL   H297 5727   0.796   0.130   0.026  0.4419 -0.2582 -1.4812
   16MOL   H298 5728   1.097   0.107   0.007  0.5251  1.3691  0.9290
   16MOL   H299 5729   1.095   0.118   7.521  0.7112 -1.9588 -0.6003
   16MOL   H300 5730   0.928   0.139   7.521  0.5144  1.3791  0.0368
   16MOL   H301 5731   0.894   7.651   7.589  0.1723  1.9635  2.5545
   16MOL   H302 5732   0.920   7.677   7.361  1.4766  1.4708 -0.8755
   16MOL   H303 5733   1.004   7.531   7.394  0.2498  0.3293 -0.7074
   16MOL   H304 5734   1.100   7.673   7.361  0.0451  0.7341 -0.7552
   16MOL   H305 5735   1.071   7.503   7.615 -2.7795  1.0588 -0.8517
   16MOL   H306 5736   1.092   7.621   7.748  0.0329  0.3391  0.0464
   16MOL   H307 5737   1.201   7.623   7.605 -0.4791  1.6472 -0.3947
   16MOL   C308 5738   0.987   0.297   7.711  0.3620  0.4491 -0.4364
   16MOL   C309 5739   1.093   0.382   7.639  0.1299  0.0322 -0.2195
   16MOL   C310 5740   1.055   0.538   7.628 -0.4147 -0.0963 -0.0350
   16MOL   C311 5741   1.013   0.586   7.489 -0.5490  0.2661  0.3298
   16MOL   C312 5742   0.882   0.524   7.437 -0.1687 -0.4200 -0.5179
   16MOL   C313 5743   0.998   0.741   7.503 -0.4427  0.3512  0.3802
   16MOL   H314 5744   0.893   0.322   7.662 -1.4640 -2.5445  1.3416
   16MOL   H315 5745   0.985   0.340   0.059  1.5208  2.0195 -1.0698
   16MOL   H316 5746   1.103   0.338   7.540 -1.5881 -1.9357  0.4520
   16MOL   H317 5747   1.138   0.588   7.678  0.6410 -1.1971 -0.6718
   16MOL   H318 5748   0.973   0.557   7.698 -1.7146 -0.5596 -1.4215
   16MOL   H319 5749   1.091   0.570   7.415  0.5182  0.7338  1.3478
   16MOL   H320 5750   0.859   0.542   7.332  0.2090 -1.7610 -0.8523
   16MOL   H321 5751   0.794   0.555   7.493 -0.4099 -1.0066 -0.5636
   16MOL   H322 5752   0.884   0.415   7.449 -2.3476 -0.4003  0.1905
   16MOL   H323 5753   1.100   0.776   7.521 -0.4379 -0.1029  1.2472
   16MOL   H324 5754   0.956   0.783   7.412  0.2105  1.3579  0.5406
   16MOL   H325 5755   0.931   0.769   7.584  0.5667  0.2787  1.2518
   16MOL   C326 5756   1.235   0.360   7.707 -0.7080 -0.3701 -0.2150
   16MOL   C327 5757   1.351   0.338   7.612 -0.3296 -0.6059  0.1038
   16MOL   C328 5758   1.487   0.331   7.692  0.1802 -0.0332 -0.0908
   16MOL   C329 5759   1.511   0.221   0.046  0.4280 -0.1847 -0.3405
   16MOL   C330 5760   1.488   0.074   7.741 -0.3291  0.0035 -0.0876
   16MOL   C331 5761   1.639   0.236   0.123  0.1849  0.2059 -0.1722
   16MOL   H332 5762   1.227   0.276   0.024 -2.9843 -1.3700 -1.6490
   16MOL   H333 5763   1.266   0.443   0.018  0.2783 -1.4052  0.6956
   16MOL   H334 5764   1.338   0.238   7.570  0.2585 -0.3164 -0.7942
   16MOL   H335 5765   1.568   0.325   7.620  0.6307  1.7298  0.2619
   16MOL   H336 5766   1.510   0.431   7.727  1.2756  0.6865 -2.7784
   16MOL   H337 5767   1.428   0.232   0.116 -1.6911 -1.0377 -2.6599
   16MOL   H338 5768   1.387   0.072   7.700 -0.6791 -1.0343  0.7966
   16MOL   H339 5769   1.502   7.752   0.067 -1.0633  0.9606  0.9649
   16MOL   H340 5770   1.553   0.041   7.661 -0.6913  0.4082 -0.5521
   16MOL   H341 5771   1.662   0.336   0.159  1.8977  0.1182 -0.9841
   16MOL   H342 5772   1.645   0.165   0.206  1.2188  1.2511  0.6453
   16MOL   H343 5773   1.722   0.205   0.060  0.2572  0.4688 -0.2021
   16MOL   C344 5774   1.354   0.445   7.500  0.6036  0.4111  0.2346
   16MOL   C345 5775   1.476   0.435   7.408  0.3489 -0.4085  0.3494
   16MOL   C346 5776   1.509   0.295   7.344 -0.1543 -0.0432 -0.3740
   16MOL   C347 5777   1.399   0.238   7.249 -0.1920  0.2317  0.3062
   16MOL   C348 5778   1.332   0.114   7.312 -0.1088 -0.5470 -0.1522
   16MOL   C349 5779   1.460   0.213   7.103  0.2187 -0.5701 -0.9149
   16MOL   H350 5780   1.356   0.544   7.546 -1.8474 -0.7706  3.1053
   16MOL   H351 5781   1.267   0.437   7.435  1.7946  0.0078 -1.3432
   16MOL   H352 5782   1.566   0.481   7.449 -1.1861  1.8055  1.3067
   16MOL   H353 5783   1.604   0.308   7.293 -0.1105 -2.6470 -1.0220
   16MOL   H354 5784   1.543   0.224   7.420  1.2875  2.2050  1.1517
   16MOL   H355 5785   1.324   0.315   7.232  0.8279  1.1337 -0.1727
   16MOL   H356 5786   1.282   0.054   7.237  2.0365 -1.3098 -0.9908
   16MOL   H357 5787   1.391   0.052   7.379 -1.4125 -1.4290  0.2021
   16MOL   H358 5788   1.256   0.159   7.378  0.1948 -0.1242 -0.0851
   16MOL   H359 5789   1.543   0.145   7.114 -0.0431 -0.6568  0.6222
   16MOL   H360 5790   1.507   0.302   7.062  0.2773 -0.1998 -0.0623
   16MOL   H361 5791   1.386   0.176   7.032 -2.1918 -0.6604  1.5545
   16MOL   H362 5792   1.446   0.507   7.333  1.3366 -1.2417 -0.8761
   17MOL     C1 5793   3.853   1.725   0.065  0.6961 -0.3126 -0.9425
   17MOL     C2 5794   3.762   1.849   0.064  0.0945 -0.7852  0.5624
   17MOL     C3 5795   3.835   1.979   0.023 -0.4689 -0.4432  0.6686
   17MOL     C4 5796   3.897   1.977   7.642 -0.0089  0.2432  1.1228
   17MOL     C5 5797   3.982   2.103   7.609 -0.8654 -0.2870  0.5126
   17MOL     C6 5798   3.795   1.945   7.525 -0.8747  0.3975 -0.0232
   17MOL     H7 5799   3.799   1.638   0.103 -1.0916  0.8409 -0.7360
   17MOL     H8 5800   3.900   1.694   7.724  0.6247  0.5838 -1.2770
   17MOL     H9 5801   3.682   1.820   7.749 -0.0176 -0.9721  0.7763
   17MOL    H10 5802   3.767   2.065   0.020 -0.3680 -0.3864 -0.1443
   17MOL    H11 5803   3.902   2.006   0.105 -1.5014 -1.1947  1.7766
   17MOL    H12 5804   3.964   1.892   7.638  0.9998  1.0784 -0.1868
   17MOL    H13 5805   4.086   2.096   7.644  0.2433  0.5009 -2.4593
   17MOL    H14 5806   3.998   2.109   7.501  1.6450 -2.2887  0.7328
   17MOL    H15 5807   3.938   2.200   7.629  0.1876  0.0821  1.0841
   17MOL    H16 5808   3.749   1.847   7.534  1.3124 -0.5941  0.5410
   17MOL    H17 5809   3.849   1.954   7.431 -0.2613 -1.5104  0.1402
   17MOL    H18 5810   3.701   1.997   7.509 -0.1545  1.9590  0.7103
   17MOL    H19 5811   3.945   1.743   0.120  1.4991  0.1144 -2.4160
   17MOL    C20 5812   3.684   1.890   0.202 -1.0329  0.0518 -0.4793
   17MOL    C21 5813   3.606   1.779   0.278  0.3276 -0.3573  0.0580
   17MOL    C22 5814   3.571   1.837   0.415 -0.2606 -0.7239  0.0261
   17MOL    C23 5815   3.677   1.824   0.529  0.4777 -0.1963  0.1431
   17MOL    C24 5816   3.634   1.891   0.656 -0.0312 -0.3972  1.0517
   17MOL    C25 5817   3.706   1.678   0.558 -0.7845  0.9236 -0.9449
   17MOL    H26 5818   3.744   1.946   0.274 -0.1619  0.3430 -1.4250
   17MOL    H27 5819   3.602   1.957   0.179 -1.4282  0.5621  2.2036
   17MOL    H28 5820   3.678   1.698   0.294  2.2723  1.1948 -0.6662
   17MOL    H29 5821   3.482   1.786   0.452 -0.6228 -0.3522 -0.3244
   17MOL    H30 5822   3.539   1.941   0.413  1.6198 -0.0612  2.0161
   17MOL    H31 5823   3.776   1.860   0.501 -0.6478  1.3791 -1.9587
   17MOL    H32 5824   3.610   1.996   0.640 -2.9080 -1.0649  0.7417
   17MOL    H33 5825   3.713   1.889   0.731 -0.5534 -2.6130  1.5561
   17MOL    H34 5826   3.548   1.849   0.708 -0.8820  1.7929  1.4568
   17MOL    H35 5827   3.766   1.639   0.476 -0.4980  0.3744 -0.4797
   17MOL    H36 5828   3.762   1.662   0.650 -2.0300  1.2920 -0.1010
   17MOL    H37 5829   3.612   1.624   0.574 -0.6576  1.1658  0.7686
   17MOL    C38 5830   3.474   1.735   0.199 -0.5654 -0.4059  0.3716
   17MOL    C39 5831   3.404   1.604   0.244 -0.2932  0.5521  0.2182
   17MOL    C40 5832   3.475   1.471   0.209  0.0481 -0.1909 -1.0773
   17MOL    C41 5833   3.450   1.363   0.317 -0.3345  0.6754  0.1546
   17MOL    C42 5834   3.581   1.337   0.398  0.6064 -0.2954 -0.4675
   17MOL    C43 5835   3.402   1.232   0.251 -0.3233  0.2291 -0.2042
   17MOL    H44 5836   3.493   1.725   0.092 -0.0825  1.4355  0.2728
   17MOL    H45 5837   3.406   1.819   0.211 -0.1070 -0.3366  2.7374
   17MOL    H46 5838   3.403   1.615   0.352 -0.1415 -2.1071  0.5263
   17MOL    H47 5839   3.583   1.485   0.212 -0.0593  0.2867  1.7410
   17MOL    H48 5840   3.454   1.432   0.109 -1.6600 -0.3659 -0.6652
   17MOL    H49 5841   3.371   1.387   0.389 -1.1379 -2.7176  0.4929
   17MOL    H50 5842   3.657   1.297   0.331  2.6678 -1.6639  2.5759
   17MOL    H51 5843   3.622   1.431   0.436 -0.7445  0.6663 -1.3257
   17MOL    H52 5844   3.575   1.270   0.483 -3.4714  2.2182  1.3624
   17MOL    H53 5845   3.384   1.159   0.330 -0.8486  0.0848 -0.4499
   17MOL    H54 5846   3.481   1.185   0.193 -0.2184 -0.3887  0.4260
   17MOL    H55 5847   3.303   1.253   0.209 -0.3755 -0.5675 -0.4948
   17MOL    C56 5848   3.257   1.599   0.203 -0.0106 -0.3527  0.7923
   17MOL    C57 5849   3.170   1.708   0.266  0.2632  0.0882 -0.0419
   17MOL    C58 5850   3.139   1.678   0.416  0.0558  0.4962 -0.4888
   17MOL    C59 5851   3.099   1.807   0.484  0.0207 -0.1586  0.3097
   17MOL    C60 5852   3.212   1.892   0.551  0.4259 -0.1416  0.9346
   17MOL    C61 5853   2.992   1.779   0.587 -0.2083  0.4290 -0.1119
   17MOL    H62 5854   3.213   1.503   0.230 -1.0893 -0.2154 -0.4557
   17MOL    H63 5855   3.247   1.601   0.095  1.7405  0.5798  0.6221
   17MOL    H64 5856   3.222   1.804   0.265 -0.7494  0.6387 -0.1337
   17MOL    H65 5857   3.056   1.611   0.440  0.9583 -0.3247  0.3635
   17MOL    H66 5858   3.221   1.632   0.471  0.5213  1.5932 -0.2412
   17MOL    H67 5859   3.053   1.884   0.423 -0.3711  1.4376  2.5378
   17MOL    H68 5860   3.194   1.995   0.581 -0.2320  0.3444 -1.0590
   17MOL    H69 5861   3.294   1.894   0.479 -0.6539 -0.3245 -0.3101
   17MOL    H70 5862   3.250   1.833   0.635 -1.2584 -0.9983  1.1135
   17MOL    H71 5863   3.008   1.688   0.646 -1.0895 -0.1880 -0.8269
   17MOL    H72 5864   2.889   1.780   0.552  0.1874 -0.6565 -1.3121
   17MOL    H73 5865   2.984   1.853   0.667 -0.5896 -1.8754  2.0600
   17MOL    C74 5866   3.039   1.719   0.190 -0.1512  0.2374 -0.1930
   17MOL    C75 5867   3.043   1.793   0.050  0.3926 -0.0259 -0.5399
   17MOL    C76 5868   2.993   1.941   0.062 -1.1334  0.0367 -0.2604
   17MOL    C77 5869   3.088   2.038   0.141 -0.5505 -0.1509  0.5005
   17MOL    C78 5870   3.014   2.163   0.188  0.0299 -0.7205 -0.5013
   17MOL    C79 5871   3.216   2.077   0.063 -0.0433  0.1042 -0.3187
   17MOL    H80 5872   2.956   1.769   0.241  1.0854  0.1356  1.9994
   17MOL    H81 5873   2.999   1.618   0.182  1.9142 -0.8128  1.9823
   17MOL    H82 5874   3.149   1.787   0.026  0.8061 -1.2672  1.5043
   17MOL    H83 5875   2.957   1.987   7.722  1.6303  1.5451 -0.6630
   17MOL    H84 5876   2.899   1.937   0.116  0.5328 -0.9045  2.6874
   17MOL    H85 5877   3.106   1.979   0.231 -0.7633 -0.5993  0.2530
   17MOL    H86 5878   2.971   2.216   0.103 -0.4460 -2.0270 -1.0995
   17MOL    H87 5879   3.070   2.228   0.255  0.2632  0.5932 -1.9376
   17MOL    H88 5880   2.931   2.137   0.253  0.6527 -1.9043 -0.1595
   17MOL    H89 5881   3.274   2.140   0.130  1.0332 -0.8729 -0.3210
   17MOL    H90 5882   3.274   1.986   0.046  2.0821  1.5721 -1.1692
   17MOL    H91 5883   3.193   2.124   7.720  1.2971  0.9748 -0.2251
   17MOL    C92 5884   2.958   1.708   7.703 -0.7491  0.3791  0.0123
   17MOL    C93 5885   2.974   1.746   7.554  0.2332 -0.4050 -0.0059
   17MOL    C94 5886   3.116   1.777   7.506 -0.3185  0.3246 -0.0509
   17MOL    C95 5887   3.148   1.925   7.479  0.0525 -0.0352  0.2916
   17MOL    C96 5888   3.298   1.961   7.481  0.4552 -1.1730 -1.1284
   17MOL    C97 5889   3.088   1.963   7.344  0.2678  0.2088  0.6656
   17MOL    H98 5890   2.989   1.604   7.717 -0.1496  0.6386  0.6466
   17MOL    H99 5891   2.854   1.709   7.735 -0.3501 -1.1930  1.4636
   17MOL   H100 5892   2.914   1.837   7.547 -2.1803 -1.7419  2.6705
   17MOL   H101 5893   3.142   1.722   7.415 -1.7424  0.0091 -0.2808
   17MOL   H102 5894   3.184   1.728   7.576 -0.7554  2.0999  1.6340
   17MOL   H103 5895   3.106   1.990   7.555  1.4766 -1.9150  2.7601
   17MOL   H104 5896   3.353   1.882   7.429 -0.0005 -1.8875 -0.5223
   17MOL   H105 5897   3.337   1.955   7.582 -2.5283 -1.9447  0.0168
   17MOL   H106 5898   3.308   2.061   7.440  0.9827 -0.2609  1.1507
   17MOL   H107 5899   3.121   1.908   7.256 -0.3818 -1.4186  1.4242
   17MOL   H108 5900   3.105   2.069   7.325  0.2464  0.6613  3.0544
   17MOL   H109 5901   2.980   1.967   7.362 -0.0128 -3.9311  0.3869
   17MOL   C110 5902   2.908   1.640   7.462  0.0922  0.8562  0.4219
   17MOL   C111 5903   2.750   1.621   7.459 -0.7515 -0.0472  0.6019
   17MOL   C112 5904   2.684   1.727   7.372 -0.1421 -0.4884 -0.0980
   17MOL   C113 5905   2.529   1.744   7.411 -0.2093 -0.0900  0.4749
   17MOL   C114 5906   2.458   1.829   7.306 -0.0435  0.3352  0.2341
   17MOL   C115 5907   2.505   1.809   7.552  0.0694  0.5030  0.2040
   17MOL   H116 5908   2.945   1.545   7.501  1.2741  1.6621  1.3132
   17MOL   H117 5909   2.948   1.650   7.361  0.9577 -0.9377  0.5689
   17MOL   H118 5910   2.712   1.647   7.558  0.8431  2.3218  0.6394
   17MOL   H119 5911   2.699   1.702   7.266 -2.3821  2.8185 -1.2779
   17MOL   H120 5912   2.735   1.823   7.374 -1.8878  0.4451  0.5876
   17MOL   H121 5913   2.489   1.643   7.417  1.6984 -0.9932 -1.5612
   17MOL   H122 5914   2.428   1.772   7.218 -0.4880  0.8235  0.0689
   17MOL   H123 5915   2.529   1.907   7.278  1.1340 -1.3304 -1.5568
   17MOL   H124 5916   2.364   1.870   7.342 -0.4535 -1.3962  1.1881
   17MOL   H125 5917   2.571   1.894   7.564  1.6327 -0.8355  1.2985
   17MOL   H126 5918   2.539   1.743   7.632 -1.1195 -0.1305  0.2078
   17MOL   H127 5919   2.404   1.847   7.570  1.3409  3.3581  1.5827
   17MOL   C128 5920   2.696   1.474   7.440  0.2557  0.0032  0.2613
   17MOL   C129 5921   2.630   1.417   7.568 -0.7242  0.3246  0.1346
   17MOL   C130 5922   2.729   1.391   7.680  0.6186  0.8355 -0.1120
   17MOL   C131 5923   2.661   1.371   0.057  0.1425 -0.0763  0.6627
   17MOL   C132 5924   2.750   1.288   0.152 -0.6800 -0.1122  0.3553
   17MOL   C133 5925   2.609   1.493   0.134 -0.5104  0.3678  1.2503
   17MOL   H134 5926   2.778   1.412   7.404 -0.4591 -0.8169  0.0209
   17MOL   H135 5927   2.631   1.473   7.353  2.1796 -0.1155 -1.2147
   17MOL   H136 5928   2.565   1.493   7.612 -0.1518  0.3427  0.9717
   17MOL   H137 5929   2.789   1.305   7.649 -1.0499 -0.2123 -0.4749
   17MOL   H138 5930   2.790   1.481   7.681  0.8596  0.6706  0.0100
   17MOL   H139 5931   2.566   1.324   0.033  0.4276  0.8157 -2.2929
   17MOL   H140 5932   2.841   1.348   0.161 -0.8003  0.1929 -0.4315
   17MOL   H141 5933   2.773   1.193   0.103  1.2005  0.9319 -0.8302
   17MOL   H142 5934   2.707   1.266   0.250  2.1413 -0.6521  1.5107
   17MOL   H143 5935   2.563   1.475   0.231 -0.5821 -1.2367  0.9334
   17MOL   H144 5936   2.682   1.573   0.147 -0.2100  0.1891  0.6513
   17MOL   H145 5937   2.535   1.546   0.074  0.3250 -1.5960 -1.6123
   17MOL   C146 5938   2.550   1.292   7.523 -0.0177  0.0709  0.0369
   17MOL   C147 5939   2.410   1.326   7.462  0.9043 -0.3498  0.4617
   17MOL   C148 5940   2.290   1.381   7.551  0.1933 -0.1722 -0.5071
   17MOL   C149 5941   2.167   1.459   7.497 -0.2796 -0.1641  0.7517
   17MOL   C150 5942   2.049   1.491   7.592  0.1256  0.2552  0.0194
   17MOL   C151 5943   2.212   1.584   7.421 -0.9021  0.6291 -0.0157
   17MOL   H152 5944   2.521   1.230   7.607  0.4984 -0.0702  0.1067
   17MOL   H153 5945   2.620   1.241   7.457  1.5956  1.2019  0.8458
   17MOL   H154 5946   2.416   1.409   7.392 -1.7934  1.0143  1.7689
   17MOL   H155 5947   2.249   1.304   7.617 -0.4430  1.5531  1.1309
   17MOL   H156 5948   2.333   1.449   7.624  1.0627 -1.4536  0.1859
   17MOL   H157 5949   2.126   1.391   7.422  2.3042 -0.2512 -0.6237
   17MOL   H158 5950   1.998   1.400   7.624  0.7226 -0.2525 -0.4684
   17MOL   H159 5951   1.966   1.553   7.560 -2.0849 -0.6060  3.7428
   17MOL   H160 5952   2.080   1.540   7.684 -1.6692 -1.1800  1.4275
   17MOL   H161 5953   2.275   1.549   7.340 -0.8917 -0.0020  0.2571
   17MOL   H162 5954   2.249   1.664   7.485  0.5964 -1.2501  1.5524
   17MOL   H163 5955   2.129   1.632   7.370 -0.2816  1.1217 -0.5605
   17MOL   C164 5956   2.357   1.210   7.372 -0.2717  0.1112  0.3049
   17MOL   C165 5957   2.331   1.247   7.226 -0.1067  0.7680  0.0079
   17MOL   C166 5958   2.465   1.287   7.147 -0.1106 -0.0205  1.6490
   17MOL   C167 5959   2.445   1.378   7.027  0.1021 -0.1981 -0.1383
   17MOL   C168 5960   2.400   1.514   7.077  0.5044  0.0422  0.2641
   17MOL   C169 5961   2.582   1.389   6.947  0.1697 -0.6632 -0.2195
   17MOL   H170 5962   2.425   1.125   7.376  0.6628  0.8051 -0.5785
   17MOL   H171 5963   2.270   1.158   7.412  1.2897 -1.3396  1.9304
   17MOL   H172 5964   2.273   1.338   7.240  1.3394  1.6090  0.6033
   17MOL   H173 5965   2.532   1.333   7.220  0.1502 -1.1143  2.1079
   17MOL   H174 5966   2.501   1.189   7.114 -0.3946  0.1060  0.9461
   17MOL   H175 5967   2.379   1.330   6.955 -1.8348  0.8967  0.8726
   17MOL   H176 5968   2.296   1.502   7.108  0.7784 -0.0721  1.1693
   17MOL   H177 5969   2.385   1.587   6.997  0.7280  0.6712  0.7893
   17MOL   H178 5970   2.459   1.550   7.162 -0.6032  1.2345  0.5529
   17MOL   H179 5971   2.582   1.482   6.891  2.0800 -0.6077 -0.1462
   17MOL   H180 5972   2.593   1.301   6.883 -2.5586 -0.5460 -0.9353
   17MOL   H181 5973   2.667   1.406   7.013  0.5639  2.9618 -1.5719
   17MOL   C182 5974   2.252   1.133   7.158 -0.5700 -0.0672 -0.0755
   17MOL   C183 5975   2.104   1.172   7.153  0.0491  0.2369  0.3397
   17MOL   C184 5976   2.068   1.260   7.034  0.2370 -0.1403  0.8486
   17MOL   C185 5977   1.949   1.352   7.064  0.7621 -0.0911 -0.1480
   17MOL   C186 5978   1.992   1.477   7.137 -0.1561 -0.0942  0.5484
   17MOL   C187 5979   1.888   1.385   6.930 -0.6040  0.1735 -0.4072
   17MOL   H188 5980   2.275   1.038   7.207  3.8157  0.2637 -1.3137
   17MOL   H189 5981   2.295   1.133   7.058  2.1203  0.7183  1.0380
   17MOL   H190 5982   2.082   1.232   7.242  1.2784 -0.1924  0.9538
   17MOL   H191 5983   2.034   1.195   6.954  3.1298  1.3183 -1.6659
   17MOL   H192 5984   2.157   1.318   7.008 -0.2719 -0.6518 -2.2282
   17MOL   H193 5985   1.866   1.306   7.118  1.3436 -0.9746  0.0030
   17MOL   H194 5986   1.909   1.548   7.138 -0.8595 -0.8322 -2.0092
   17MOL   H195 5987   2.071   1.522   7.077  0.2525 -2.0818 -0.4439
   17MOL   H196 5988   2.033   1.453   7.235  2.4257  1.2602 -0.1570
   17MOL   H197 5989   1.812   1.463   6.937 -1.1927 -0.5745  1.9581
   17MOL   H198 5990   1.830   1.309   6.877  0.2492  0.1180 -1.2599
   17MOL   H199 5991   1.960   1.421   6.857  0.8979 -0.2894  0.8344
   17MOL   C200 5992   2.013   1.047   7.156 -0.2893 -0.1531  0.1155
   17MOL   C201 5993   1.987   0.994   7.298 -0.2288  0.8349  0.2885
   17MOL   C202 5994   1.972   0.838   7.286  0.2866 -0.1584 -0.5631
   17MOL   C203 5995   2.051   0.755   7.387  0.5723 -0.7812  0.2483
   17MOL   C204 5996   2.021   0.610   7.375  0.2945  0.7233 -0.5521
   17MOL   C205 5997   2.203   0.772   7.358  0.5498  0.0249  0.7190
   17MOL   H206 5998   2.061   0.978   7.087  1.2731 -0.8101  1.8104
   17MOL   H207 5999   1.918   1.080   7.113  0.4559 -0.4422 -1.7786
   17MOL   H208 6000   2.078   1.020   7.352 -0.8518 -0.2087  1.8838
   17MOL   H209 6001   1.869   0.806   7.304  0.0288 -1.1328 -3.5443
   17MOL   H210 6002   1.995   0.814   7.182  3.0814  0.3107 -0.0842
   17MOL   H211 6003   2.040   0.795   7.487  3.0192 -0.5467  0.4590
   17MOL   H212 6004   2.047   0.556   7.467  1.7775 -1.0005 -1.9413
   17MOL   H213 6005   2.082   0.561   7.299  0.1368  0.2222 -0.3619
   17MOL   H214 6006   1.916   0.597   7.349  0.1490  1.2194 -0.2228
   17MOL   H215 6007   2.227   0.878   7.358  0.4951  0.0793 -2.4493
   17MOL   H216 6008   2.224   0.747   7.254 -3.5550  0.2925 -0.2742
   17MOL   H217 6009   2.270   0.722   7.428  1.7410  1.0149  0.3143
   17MOL   C218 6010   1.876   1.073   7.377  0.6489  0.0904  0.1242
   17MOL   C219 6011   1.825   1.017   7.510  0.3004  0.5592  0.0004
   17MOL   C220 6012   1.684   1.049   7.552  0.5521 -0.6335 -0.1277
   17MOL   C221 6013   1.571   0.988   7.475  0.1234  0.4452 -0.3139
   17MOL   C222 6014   1.556   0.837   7.491 -0.8686  0.4593 -0.1850
   17MOL   C223 6015   1.440   1.053   7.508  0.1361  0.1786  0.1782
   17MOL   H224 6016   1.904   1.177   7.393 -2.2408  1.1964 -1.5009
   17MOL   H225 6017   1.796   1.089   7.304  0.9155 -1.0113 -0.4205
   17MOL   H226 6018   1.828   0.908   7.505 -0.5808  0.4609  1.4964
   17MOL   H227 6019   1.663   1.043   7.658  0.4807 -0.2990 -0.1220
   17MOL   H228 6020   1.674   1.157   7.543 -2.0944 -0.9102 -1.1420
   17MOL   H229 6021   1.602   1.013   7.373 -0.0214  0.1260 -0.4359
   17MOL   H230 6022   1.470   0.791   7.443 -0.1094 -0.8714 -0.2757
   17MOL   H231 6023   1.639   0.775   7.459 -0.0057  1.7996 -0.6025
   17MOL   H232 6024   1.543   0.819   7.598 -2.7719  2.1442 -0.0952
   17MOL   H233 6025   1.442   1.162   7.501  0.1800  0.1233 -0.8523
   17MOL   H234 6026   1.352   1.028   7.448  0.4950 -2.2152  0.6174
   17MOL   H235 6027   1.403   1.024   7.606 -0.5953 -1.1398 -0.4802
   17MOL   C236 6028   1.920   1.049   7.629 -0.9542  0.1726 -0.1910
   17MOL   C237 6029   1.902   0.966   0.002 -0.1004  0.0283 -0.2486
   17MOL   C238 6030   1.992   1.027   0.110  0.2985 -0.1409 -0.6182
   17MOL   C239 6031   1.963   1.172   0.164 -0.4306  0.4295  0.2513
   17MOL   C240 6032   1.815   1.205   0.201 -0.5598  0.3018 -0.2734
   17MOL   C241 6033   2.070   1.226   0.259 -0.1670 -0.3324  0.1249
   17MOL   H242 6034   1.911   1.154   7.656 -2.0913 -0.1048  0.5562
   17MOL   H243 6035   2.025   1.045   7.603 -1.3587  1.5198 -2.1474
   17MOL   H244 6036   1.799   0.972   0.037  0.7586  0.3463  2.3021
   17MOL   H245 6037   2.095   1.024   0.075  0.5051 -0.7626  0.0332
   17MOL   H246 6038   2.000   0.970   0.203  2.0018 -1.4479 -1.5582
   17MOL   H247 6039   1.985   1.231   0.075  0.0589 -0.2179 -0.0538
   17MOL   H248 6040   1.776   1.147   0.284  0.5413  0.9569  0.7211
   17MOL   H249 6041   1.748   1.190   0.116 -0.6232 -0.3654 -0.1065
   17MOL   H250 6042   1.807   1.307   0.236 -1.6501 -0.3702  1.5006
   17MOL   H251 6043   2.092   1.162   0.345  3.5788  0.2357 -0.3435
   17MOL   H252 6044   2.049   1.313   0.322 -1.6060 -2.5945  2.8683
   17MOL   H253 6045   2.165   1.242   0.209  0.3425  0.2962  1.2535
   17MOL   C254 6046   1.936   0.817   7.736  0.1430  0.6902 -0.0967
   17MOL   C255 6047   1.901   0.712   0.106  0.2623 -0.6680 -0.3864
   17MOL   C256 6048   1.742   0.705   0.140  0.0010  0.1843  0.4978
   17MOL   C257 6049   1.703   0.723   0.289  0.0164 -0.7983 -0.4920
   17MOL   C258 6050   1.569   0.666   0.324 -0.3532  0.3635 -0.2955
   17MOL   C259 6051   1.710   0.872   0.328 -0.4769  0.1812 -0.4890
   17MOL   H260 6052   1.881   0.762   7.659 -0.4065  0.7214  0.2799
   17MOL   H261 6053   2.041   0.816   7.707  0.8994 -0.3158  2.5190
   17MOL   H262 6054   1.952   0.754   0.193  2.1568 -1.0447 -1.3052
   17MOL   H263 6055   1.704   0.607   0.111 -0.7827  0.1762  1.5460
   17MOL   H264 6056   1.683   0.779   0.086  1.1860  1.9908  1.6022
   17MOL   H265 6057   1.778   0.675   0.353 -0.8684 -3.3774 -1.3549
   17MOL   H266 6058   1.578   0.558   0.330 -0.6564  0.3099 -0.8060
   17MOL   H267 6059   1.498   0.700   0.249 -1.4260  1.3638  1.1507
   17MOL   H268 6060   1.545   0.699   0.425  0.0258  0.1166 -0.1235
   17MOL   H269 6061   1.660   0.887   0.424  0.8507  5.3278 -0.4500
   17MOL   H270 6062   1.808   0.920   0.335 -1.0220  1.1700  0.3344
   17MOL   H271 6063   1.658   0.926   0.249  0.0518 -1.0679 -1.7238
   17MOL   C272 6064   1.965   0.574   0.098  0.7596 -0.4044  0.0781
   17MOL   C273 6065   2.113   0.573   0.046 -0.4080 -0.1789 -0.0152
   17MOL   C274 6066   2.216   0.647   0.143 -0.6923 -0.8549 -0.1425
   17MOL   C275 6067   2.234   0.601   0.286  0.2732  0.0863 -0.3038
   17MOL   C276 6068   2.159   0.689   0.384  0.2833 -0.6883  0.0784
   17MOL   C277 6069   2.378   0.592   0.340  1.1676 -0.0481  0.0367
   17MOL   H278 6070   1.941   0.530   0.195  0.4180 -1.8257 -0.6376
   17MOL   H279 6071   1.913   0.521   0.018  0.1897 -1.0978  0.8997
   17MOL   H280 6072   2.113   0.606   7.694  2.8294  1.1401  0.3476
   17MOL   H281 6073   2.193   0.754   0.145  1.5280 -0.3447 -0.4288
   17MOL   H282 6074   2.312   0.646   0.092 -0.7795 -3.2448 -0.3087
   17MOL   H283 6075   2.203   0.497   0.295  3.0515 -0.4719  4.5291
   17MOL   H284 6076   2.188   0.675   0.488 -1.4290  1.0065  0.8236
   17MOL   H285 6077   2.170   0.797   0.367 -0.4477 -0.9793 -2.3968
   17MOL   H286 6078   2.054   0.670   0.361  0.3517 -0.3248 -0.5370
   17MOL   H287 6079   2.435   0.519   0.282  3.4058  2.6196 -1.2447
   17MOL   H288 6080   2.434   0.684   0.327 -1.4571  1.5491 -0.3058
   17MOL   H289 6081   2.380   0.560   0.444  2.4490 -1.4535 -0.3965
   17MOL   C290 6082   2.144   0.422   0.042  0.3259  0.1936 -0.3037
   17MOL   C291 6083   2.294   0.385   0.007  0.1197  0.1811  0.0767
   17MOL   C292 6084   2.310   0.233   0.021  0.0586  0.1864 -0.2933
   17MOL   C293 6085   2.353   0.191   0.169  0.5064  0.0690  0.2594
   17MOL   C294 6086   2.319   0.042   0.208  0.1005 -0.2131 -0.4270
   17MOL   C295 6087   2.498   0.226   0.202  0.0792 -0.5839 -0.1151
   17MOL   H296 6088   2.109   0.378   0.136  0.4246  0.8785  0.0572
   17MOL   H297 6089   2.087   0.370   7.717  0.4686  0.6669 -0.7271
   17MOL   H298 6090   2.360   0.422   0.085 -0.5501 -0.0328  0.7507
   17MOL   H299 6091   2.382   0.190   7.703 -0.1675 -3.1949  1.4339
   17MOL   H300 6092   2.220   0.183   7.738 -0.5828  1.9590 -1.1961
   17MOL   H301 6093   2.291   0.252   0.235 -0.3969  1.9147 -2.2306
   17MOL   H302 6094   2.339   0.016   0.312  0.9905  0.4789 -0.4198
   17MOL   H303 6095   2.385   7.731   0.148  0.3986  0.9351 -1.3255
   17MOL   H304 6096   2.211   0.026   0.199 -0.2233 -0.6205  3.4671
   17MOL   H305 6097   2.518   0.247   0.307 -0.7274  2.4047 -0.4957
   17MOL   H306 6098   2.526   0.321   0.156  2.0187 -0.8442  0.4871
   17MOL   H307 6099   2.560   0.146   0.164 -0.4595 -0.1462 -1.9386
   17MOL   C308 6100   2.344   0.435   7.619  0.0166 -0.1904  0.1599
   17MOL   C309 6101   2.499   0.415   7.586  0.4873 -0.3777  0.6364
   17MOL   C310 6102   2.519   0.443   7.434  0.3513  0.1862  0.6079
   17MOL   C311 6103   2.485   0.323   7.344 -0.0821 -0.1382  0.1311
   17MOL   C312 6104   2.361   0.338   7.263 -0.4244 -0.1057 -0.1514
   17MOL   C313 6105   2.614   0.274   7.261  0.1415 -0.3404 -0.6956
   17MOL   H314 6106   2.287   0.371   7.552 -0.8615 -1.0946  1.7341
   17MOL   H315 6107   2.310   0.536   7.600  0.0576 -0.2479 -0.2207
   17MOL   H316 6108   2.526   0.313   7.611  1.7313 -0.6127 -1.5404
   17MOL   H317 6109   2.622   0.473   7.414 -0.4647  0.6484 -3.3534
   17MOL   H318 6110   2.466   0.536   7.413  1.3559  0.4694 -0.7851
   17MOL   H319 6111   2.456   0.243   7.412  0.9138  0.8489  1.7529
   17MOL   H320 6112   2.371   0.288   7.167  1.2276 -0.7065  0.3115
   17MOL   H321 6113   2.337   0.442   7.238 -3.6424 -0.6915  0.3362
   17MOL   H322 6114   2.277   0.301   7.321  0.1089  0.1650  0.8071
   17MOL   H323 6115   2.705   0.273   7.320 -0.7435 -0.7686  0.6787
   17MOL   H324 6116   2.600   0.181   7.206  2.0479 -1.1994  0.2293
   17MOL   H325 6117   2.629   0.347   7.181 -2.3393 -0.3885 -1.2716
   17MOL   C326 6118   2.585   0.509   7.670  0.3133  0.1400 -1.4206
   17MOL   C327 6119   2.741   0.493   7.654  0.0040 -0.5490 -0.1785
   17MOL   C328 6120   2.781   0.368   7.734  0.0715  0.1596 -0.2480
   17MOL   C329 6121   2.936   0.337   7.734 -0.3273 -0.1259 -0.6352
   17MOL   C330 6122   2.963   0.208   0.057  0.2954 -0.2821 -0.0676
   17MOL   C331 6123   3.002   0.357   7.598 -0.1755  0.4873  0.2216
   17MOL   H332 6124   2.561   0.489   0.022 -0.1594 -0.4819 -1.6477
   17MOL   H333 6125   2.552   0.612   7.660 -2.6040 -0.8138 -1.8988
   17MOL   H334 6126   2.768   0.482   7.549  1.6512  1.4191  0.0081
   17MOL   H335 6127   2.738   0.387   0.080 -0.6915 -1.2661 -0.2980
   17MOL   H336 6128   2.728   0.285   7.688  0.8454 -0.8727  0.7044
   17MOL   H337 6129   2.982   0.417   0.041  1.1723  0.9847 -3.1755
   17MOL   H338 6130   3.063   0.166   0.044  0.5300  0.1597  0.3008
   17MOL   H339 6131   2.895   0.130   0.023  0.4291 -1.0106  1.2692
   17MOL   H340 6132   2.947   0.226   0.164 -0.1745  0.4441 -0.2599
   17MOL   H341 6133   2.944   0.299   7.525 -1.3769  1.3039  0.5261
   17MOL   H342 6134   2.991   0.463   7.574  0.1535  0.7778  1.3517
   17MOL   H343 6135   3.107   0.329   7.599  0.0659  1.3872 -0.1412
   17MOL   C344 6136   2.803   0.624   7.709  1.0299  0.2090 -0.0106
   17MOL   C345 6137   2.769   0.754   7.632 -0.0035 -0.2266  0.5335
   17MOL   C346 6138   2.814   0.746   7.484  0.3462 -0.1279  0.6085
   17MOL   C347 6139   2.773   0.869   7.395  0.9538 -0.2618 -0.0436
   17MOL   C348 6140   2.809   0.993   7.475 -0.4294  0.6006 -0.0348
   17MOL   C349 6141   2.620   0.869   7.376 -0.1656  0.6541 -0.4334
   17MOL   H350 6142   2.912   0.614   7.707  0.8807 -1.5835 -0.2365
   17MOL   H351 6143   2.763   0.642   0.056  0.5677  3.2422 -0.7218
   17MOL   H352 6144   2.816   0.834   7.688 -1.4688  0.9630  0.0901
   17MOL   H353 6145   2.922   0.734   7.484  0.8300  3.6942  0.7218
   17MOL   H354 6146   2.774   0.655   7.439  1.5108 -0.8219  0.9802
   17MOL   H355 6147   2.827   0.877   7.301 -1.4168 -1.2250 -1.5209
   17MOL   H356 6148   2.917   1.007   7.483 -0.4723 -0.6786  3.7559
   17MOL   H357 6149   2.780   1.084   7.422  0.4359  0.8334 -0.1093
   17MOL   H358 6150   2.774   1.002   7.578  1.3371  0.2488  0.6143
   17MOL   H359 6151   2.560   0.892   7.464  1.9252  0.6509  1.0301
   17MOL   H360 6152   2.591   0.766   7.356  0.9162  0.4210 -0.8210
   17MOL   H361 6153   2.598   0.941   7.297 -3.3410  1.2174  0.8750
   17MOL   H362 6154   2.663   0.778   7.639  0.4960  2.1881  0.0624
   18MOL     C1 6155   4.602   3.990   3.823  0.4773 -0.3939 -0.0701
   18MOL     C2 6156   4.486   3.913   3.762 -0.2985  0.1110  0.2392
   18MOL     C3 6157   4.466   3.775   3.838  0.8788  0.1168  0.2934
   18MOL     C4 6158   4.353   3.685   3.794 -0.4278  0.0510 -0.5459
   18MOL     C5 6159   4.221   3.743   3.836 -0.3053 -0.2217  0.0607
   18MOL     C6 6160   4.366   3.538   3.842  0.4759  0.3440  0.1766
   18MOL     H7 6161   4.699   3.940   3.831  1.9828  2.5773  0.8696
   18MOL     H8 6162   4.615   4.078   3.761  1.3775  1.7557  3.0616
   18MOL     H9 6163   4.400   3.975   3.786  1.5253  2.3636  1.0295
   18MOL    H10 6164   4.552   3.709   3.834 -0.8642 -2.0947 -2.2115
   18MOL    H11 6165   4.458   3.793   3.945  2.5247 -1.0007  0.6242
   18MOL    H12 6166   4.358   3.674   3.685 -0.2118  2.1922 -0.7642
   18MOL    H13 6167   4.140   3.676   3.808 -1.9667 -0.6245  5.2053
   18MOL    H14 6168   4.222   3.769   3.942  1.3285 -1.1870  0.3060
   18MOL    H15 6169   4.202   3.836   3.782  0.0476  0.7512  1.5797
   18MOL    H16 6170   4.289   3.471   3.804  1.1876  0.9304 -2.3472
   18MOL    H17 6171   4.361   3.545   3.951 -0.9435 -1.2915  0.2434
   18MOL    H18 6172   4.460   3.487   3.821 -0.7634 -0.9525 -2.3582
   18MOL    H19 6173   4.585   4.024   3.925  1.3387  0.5890 -0.2463
   18MOL    C20 6174   4.497   3.893   3.607  0.3147  0.4764 -0.0651
   18MOL    C21 6175   4.503   4.019   3.514 -0.1266 -0.3751  0.1938
   18MOL    C22 6176   4.543   3.974   3.370  0.3349 -0.8889  0.0448
   18MOL    C23 6177   4.679   3.920   3.333  0.1017 -0.4090 -0.1763
   18MOL    C24 6178   4.677   3.845   3.193  0.4343  0.2605  0.2504
   18MOL    C25 6179   4.779   4.036   3.328  0.2847 -0.1564  0.1404
   18MOL    H26 6180   4.568   3.815   3.580 -1.6903 -1.3381 -0.2391
   18MOL    H27 6181   4.408   3.839   3.574  0.5319 -1.2781  2.1317
   18MOL    H28 6182   4.582   4.088   3.542  0.9898 -0.9185 -1.5895
   18MOL    H29 6183   4.506   4.048   3.298  0.8079 -0.7663 -0.0723
   18MOL    H30 6184   4.469   3.897   3.348 -0.9403  1.0234 -2.7088
   18MOL    H31 6185   4.712   3.851   3.410 -1.5015 -0.7263  0.2365
   18MOL    H32 6186   4.650   3.916   3.115 -0.3751 -0.6965 -0.3529
   18MOL    H33 6187   4.602   3.767   3.202 -0.2967  1.0475  0.9554
   18MOL    H34 6188   4.770   3.805   3.153 -0.8100 -1.2998 -1.1556
   18MOL    H35 6189   4.762   4.108   3.249 -0.9539 -0.6315 -0.0365
   18MOL    H36 6190   4.779   4.091   3.422 -1.9540  1.3972 -0.7515
   18MOL    H37 6191   4.885   4.009   3.325  0.7397  1.7255 -1.7414
   18MOL    C38 6192   4.374   4.103   3.520 -0.3574  0.2684  0.0954
   18MOL    C39 6193   4.400   4.248   3.466 -0.0211 -0.0915  0.6940
   18MOL    C40 6194   4.445   4.339   3.588 -0.1842  0.5759 -0.2183
   18MOL    C41 6195   4.529   4.461   3.547 -0.4863  0.0185 -0.4846
   18MOL    C42 6196   4.668   4.424   3.505  0.4849  0.0464 -0.3624
   18MOL    C43 6197   4.529   4.563   3.662 -0.7314 -0.2896  0.0554
   18MOL    H44 6198   4.322   4.104   3.616 -1.3822 -0.0785 -0.4433
   18MOL    H45 6199   4.303   4.063   3.448 -0.1473  2.1363 -1.1828
   18MOL    H46 6200   4.476   4.253   3.387  1.2986  2.9293  2.0788
   18MOL    H47 6201   4.501   4.285   3.665  0.6407 -1.1667 -1.9848
   18MOL    H48 6202   4.349   4.373   3.627 -0.3847 -0.2113 -0.0071
   18MOL    H49 6203   4.490   4.496   3.451 -0.6499  1.3587  0.0545
   18MOL    H50 6204   4.713   4.515   3.467  1.6799  0.1331  1.2483
   18MOL    H51 6205   4.726   4.385   3.589 -1.9258 -2.3759  0.2504
   18MOL    H52 6206   4.661   4.352   3.422 -0.9648 -0.0341 -0.1790
   18MOL    H53 6207   4.580   4.653   3.629  0.2485 -1.3984 -1.5641
   18MOL    H54 6208   4.590   4.533   3.748  0.3862 -0.7198 -0.8763
   18MOL    H55 6209   4.427   4.593   3.682  0.1191  0.9752  2.6786
   18MOL    C56 6210   4.275   4.304   3.395 -0.0099  0.2174  0.0826
   18MOL    C57 6211   4.261   4.266   3.242  0.0524  0.0920  0.0537
   18MOL    C58 6212   4.362   4.353   3.163  0.4961  0.1322 -0.2574
   18MOL    C59 6213   4.470   4.264   3.095  0.0702 -0.2357  0.3062
   18MOL    C60 6214   4.578   4.347   3.030 -0.3808 -0.0465 -0.0082
   18MOL    C61 6215   4.434   4.145   3.004  0.6282  0.0057 -0.2292
   18MOL    H62 6216   4.269   4.413   3.399  1.0802  0.2765  0.3856
   18MOL    H63 6217   4.184   4.277   3.449  0.6012 -0.0523  0.9870
   18MOL    H64 6218   4.281   4.159   3.237 -2.0718 -0.2833 -0.8978
   18MOL    H65 6219   4.328   4.413   3.079  0.6162 -0.2191 -0.5622
   18MOL    H66 6220   4.409   4.426   3.227  1.3829 -1.7132  1.2373
   18MOL    H67 6221   4.517   4.217   3.182 -0.7918 -0.1374  0.8351
   18MOL    H68 6222   4.670   4.295   3.058  0.5100  0.7202 -1.4292
   18MOL    H69 6223   4.588   4.447   3.072  0.5226  0.5098 -1.5189
   18MOL    H70 6224   4.570   4.356   2.922 -0.3199  2.2373  0.1604
   18MOL    H71 6225   4.525   4.090   2.981 -0.1794 -1.4758 -0.0031
   18MOL    H72 6226   4.384   4.173   2.912 -1.6455  0.5563  1.1261
   18MOL    H73 6227   4.370   4.079   3.063 -2.6055  1.2068 -2.2763
   18MOL    C74 6228   4.118   4.283   3.184  0.6816  0.8960 -0.0935
   18MOL    C75 6229   4.075   4.174   3.084  0.0464 -0.0534  0.0557
   18MOL    C76 6230   3.968   4.233   2.995  0.2245  0.1877  0.1720
   18MOL    C77 6231   4.022   4.315   2.878 -0.3759 -0.5762  0.3723
   18MOL    C78 6232   3.908   4.400   2.828  0.4356  0.0573  0.0591
   18MOL    C79 6233   4.089   4.228   2.765  0.5943  0.6268 -0.1332
   18MOL    H80 6234   4.111   4.381   3.138 -1.0939  0.3384 -1.0417
   18MOL    H81 6235   4.039   4.290   3.259  1.5413  0.5936  0.8521
   18MOL    H82 6236   4.164   4.152   3.025  0.0310  2.1466 -0.8325
   18MOL    H83 6237   3.911   4.145   2.966  0.1693  0.2774  0.0061
   18MOL    H84 6238   3.906   4.295   3.060 -1.9299 -0.9800 -0.6945
   18MOL    H85 6239   4.098   4.375   2.927 -0.8811 -0.0010  0.4715
   18MOL    H86 6240   3.876   4.476   2.899 -1.2136 -0.1906 -0.3981
   18MOL    H87 6241   3.825   4.339   2.792  0.6287 -0.6395  0.7640
   18MOL    H88 6242   3.950   4.447   2.739  0.5590 -0.5249 -0.1980
   18MOL    H89 6243   4.159   4.155   2.806 -2.5271 -1.4616  1.7639
   18MOL    H90 6244   4.006   4.165   2.733  0.1241  0.5633  1.1816
   18MOL    H91 6245   4.125   4.282   2.678  1.2564 -0.1731 -0.3595
   18MOL    C92 6246   4.026   4.046   3.156 -0.4369 -0.1626 -0.0397
   18MOL    C93 6247   4.033   3.918   3.075  0.3386  0.3056 -0.6785
   18MOL    C94 6248   4.155   3.834   3.120 -0.1193  0.1849 -0.3183
   18MOL    C95 6249   4.222   3.760   3.008  0.8085 -0.3698 -0.2855
   18MOL    C96 6250   4.297   3.839   2.895  0.4188 -0.5969 -0.2677
   18MOL    C97 6251   4.303   3.645   3.063 -0.2899  0.3403  0.0488
   18MOL    H98 6252   4.087   4.043   3.246  2.6452  0.4713 -2.0230
   18MOL    H99 6253   3.929   4.049   3.206  0.9497 -3.0723  3.0432
   18MOL   H100 6254   4.048   3.949   2.971  0.4075 -0.5794 -0.9372
   18MOL   H101 6255   4.125   3.773   3.206 -1.8454  0.3987 -0.7483
   18MOL   H102 6256   4.234   3.890   3.170 -0.4418  2.2294 -2.0467
   18MOL   H103 6257   4.149   3.708   2.945 -0.3135  0.8602 -0.0303
   18MOL   H104 6258   4.231   3.912   2.848  2.2532  2.6529  1.9786
   18MOL   H105 6259   4.336   3.773   2.817 -2.4547  0.3608 -2.6269
   18MOL   H106 6260   4.387   3.887   2.932 -1.6200  2.1807  1.2654
   18MOL   H107 6261   4.388   3.627   2.997 -0.7062  0.6419 -0.5766
   18MOL   H108 6262   4.248   3.551   3.062 -3.4072  2.0644 -2.9386
   18MOL   H109 6263   4.340   3.654   3.165 -0.6572 -0.2633  0.2399
   18MOL   C110 6264   3.903   3.834   3.086  0.0879  0.1454 -0.0504
   18MOL   C111 6265   3.776   3.867   2.996 -0.0952 -0.0889 -0.8366
   18MOL   C112 6266   3.810   3.835   2.856 -1.0806  0.0318 -0.8052
   18MOL   C113 6267   3.706   3.879   2.751 -0.5999 -0.2303 -0.1686
   18MOL   C114 6268   3.745   3.829   2.609 -0.4009 -0.1905  0.0036
   18MOL   C115 6269   3.687   4.036   2.744 -0.0907 -0.2945  0.5738
   18MOL   H116 6270   3.885   3.808   3.190  1.3271  0.4388  0.2479
   18MOL   H117 6271   3.936   3.739   3.044 -0.2820  1.1060 -2.5733
   18MOL   H118 6272   3.764   3.975   2.997 -0.1874 -0.1002  0.7662
   18MOL   H119 6273   3.827   3.727   2.857  2.0887  0.4791 -0.0428
   18MOL   H120 6274   3.908   3.877   2.831 -0.1450 -1.2824  0.5955
   18MOL   H121 6275   3.613   3.829   2.780 -0.5457  0.6220  1.5843
   18MOL   H122 6276   3.837   3.872   2.571  0.6209 -2.1002  0.2216
   18MOL   H123 6277   3.666   3.868   2.545 -0.8233 -1.7772 -0.4718
   18MOL   H124 6278   3.745   3.720   2.596 -2.1707 -0.1903 -0.1736
   18MOL   H125 6279   3.638   4.064   2.651 -2.0790 -1.4890  1.2470
   18MOL   H126 6280   3.783   4.088   2.737  0.0072 -0.6807 -1.4094
   18MOL   H127 6281   3.632   4.076   2.829 -0.2979  1.8490 -0.5141
   18MOL   C128 6282   3.652   3.785   3.050 -0.3889 -0.1933 -0.6168
   18MOL   C129 6283   3.559   3.866   3.144 -1.0377  0.3670 -0.1117
   18MOL   C130 6284   3.457   3.937   3.053  0.2738  0.3967 -0.1270
   18MOL   C131 6285   3.350   3.856   2.981 -0.2232 -0.7115 -0.5190
   18MOL   C132 6286   3.255   3.771   3.066 -0.7968 -0.2315 -0.5440
   18MOL   C133 6287   3.265   3.955   2.898  0.2542 -0.2725 -0.0376
   18MOL   H134 6288   3.677   3.689   3.096  2.7377  0.8515 -0.0333
   18MOL   H135 6289   3.593   3.750   2.965 -0.8886  0.6491 -0.6205
   18MOL   H136 6290   3.512   3.787   3.202 -0.5015  0.3754  0.3405
   18MOL   H137 6291   3.398   4.004   3.115 -1.4767 -0.6873 -0.5880
   18MOL   H138 6292   3.514   4.006   2.991 -0.5965  0.5763 -0.7177
   18MOL   H139 6293   3.399   3.784   2.914 -0.1246 -0.9505 -0.1903
   18MOL   H140 6294   3.192   3.833   3.129  1.3456  2.4903 -0.9907
   18MOL   H141 6295   3.308   3.709   3.138  1.1318  0.5197 -1.2743
   18MOL   H142 6296   3.178   3.716   3.012  0.9158 -1.8963 -1.3696
   18MOL   H143 6297   3.323   4.028   2.840 -2.2529  2.0889  0.3388
   18MOL   H144 6298   3.211   3.902   2.820  1.4930 -0.5427 -0.7380
   18MOL   H145 6299   3.182   3.994   2.956 -0.0628  0.4330 -0.9431
   18MOL   C146 6300   3.645   3.956   3.244 -0.1518 -0.5261 -0.3611
   18MOL   C147 6301   3.568   4.026   3.357 -0.1373  0.2430  0.0374
   18MOL   C148 6302   3.651   4.106   3.463  0.1551 -0.6920 -0.3832
   18MOL   C149 6303   3.754   4.210   3.406  0.0756 -0.0427  0.5708
   18MOL   C150 6304   3.696   4.320   3.315 -0.4568  0.2643  0.9751
   18MOL   C151 6305   3.834   4.275   3.525 -0.4683 -0.9341  0.0802
   18MOL   H152 6306   3.718   4.025   3.202  1.4892 -1.7927  0.3725
   18MOL   H153 6307   3.709   3.883   3.293 -0.1901 -0.8596 -0.8103
   18MOL   H154 6308   3.504   4.097   3.305 -0.0603 -0.0788 -0.5038
   18MOL   H155 6309   3.591   4.158   3.537  1.9758 -0.4510  0.9612
   18MOL   H156 6310   3.713   4.040   3.524 -2.9806 -0.7629  2.8453
   18MOL   H157 6311   3.833   4.171   3.342  0.0234  0.0909  0.4244
   18MOL   H158 6312   3.649   4.277   3.226  2.1281  0.7940 -0.7131
   18MOL   H159 6313   3.773   4.386   3.277 -0.7615 -0.2568 -0.6158
   18MOL   H160 6314   3.627   4.379   3.375 -2.8633 -0.6958 -0.7433
   18MOL   H161 6315   3.893   4.206   3.586  2.6114  1.2113 -0.3304
   18MOL   H162 6316   3.770   4.327   3.597 -0.6966 -0.0306 -0.7608
   18MOL   H163 6317   3.905   4.352   3.494  0.2071 -1.5906 -0.0076
   18MOL   C164 6318   3.457   3.939   3.420  0.3615 -0.3106  0.1545
   18MOL   C165 6319   3.392   3.978   3.557 -0.6018 -0.0887  0.1790
   18MOL   C166 6320   3.306   4.107   3.553 -0.0684 -0.3283 -0.1910
   18MOL   C167 6321   3.266   4.149   3.700  0.4197  0.6649 -0.2353
   18MOL   C168 6322   3.391   4.226   3.771  0.4803 -0.4065  0.0085
   18MOL   C169 6323   3.138   4.233   3.690  0.0868 -0.3607 -0.0123
   18MOL   H170 6324   3.372   3.933   3.353  0.3076 -1.4413  0.3148
   18MOL   H171 6325   3.489   3.835   3.414  0.4231 -0.4971  2.7783
   18MOL   H172 6326   3.469   3.981   3.635 -0.6621 -0.8214  0.2702
   18MOL   H173 6327   3.359   4.196   3.520  0.5280  0.2771  2.3009
   18MOL   H174 6328   3.216   4.086   3.496 -1.7138  2.0573  1.4829
   18MOL   H175 6329   3.243   4.069   3.770 -0.2107 -0.8764 -2.1338
   18MOL   H176 6330   3.358   4.277   3.862  2.3529  2.0252 -0.6169
   18MOL   H177 6331   3.427   4.310   3.712  2.5840 -1.6408 -0.5224
   18MOL   H178 6332   3.461   4.145   3.789  1.5541  0.1981 -1.3397
   18MOL   H179 6333   3.063   4.185   3.627  0.6940 -2.0571  0.5394
   18MOL   H180 6334   3.165   4.325   3.639 -0.3721  0.1357  0.6377
   18MOL   H181 6335   3.091   4.265   3.783 -1.1019 -0.9051 -0.4204
   18MOL   C182 6336   3.315   3.853   3.604 -0.5980 -0.2882  0.1539
   18MOL   C183 6337   3.352   3.804   3.750 -0.4618  0.0745  0.4650
   18MOL   C184 6338   3.241   3.724   3.805  0.0505  0.3288 -0.6486
   18MOL   C185 6339   3.104   3.799   3.826  0.3357 -0.0570  0.1219
   18MOL   C186 6340   2.979   3.709   3.816 -0.3113  0.4005 -0.1628
   18MOL   C187 6341   3.099   3.862   3.967  0.1598 -0.6420 -0.2102
   18MOL   H188 6342   3.311   3.775   3.528  0.2659  1.1667 -1.4291
   18MOL   H189 6343   3.207   3.870   3.601 -0.9811 -1.9859  2.8942
   18MOL   H190 6344   3.359   3.891   3.815  1.2948 -1.2122  2.0452
   18MOL   H191 6345   3.274   3.658   3.884 -0.5535  1.4190  0.5266
   18MOL   H192 6346   3.208   3.651   3.731 -2.4830  0.8300 -0.0788
   18MOL   H193 6347   3.082   3.883   3.760  1.1139 -0.1544 -0.2635
   18MOL   H194 6348   2.994   3.622   3.880 -1.0688  0.4667  0.1160
   18MOL   H195 6349   2.969   3.659   3.720  1.0599  0.6033 -0.4194
   18MOL   H196 6350   2.888   3.765   3.840 -0.1711  0.6335 -0.1704
   18MOL   H197 6351   2.997   3.855   4.003 -0.1342 -0.5856 -1.0208
   18MOL   H198 6352   3.120   3.968   3.983  0.5835 -0.6917 -0.4227
   18MOL   H199 6353   3.165   3.810   4.036  0.8998  0.2055 -0.2648
   18MOL   C200 6354   3.487   3.720   3.753  0.0426  0.2637 -0.2301
   18MOL   C201 6355   3.575   3.710   3.892 -0.0783  0.4644  0.0871
   18MOL   C202 6356   3.707   3.796   3.895  0.5192  0.3088  0.2478
   18MOL   C203 6357   3.685   3.945   3.880 -0.5716 -0.4677  0.3610
   18MOL   C204 6358   3.591   3.999   3.996 -0.1198  0.3195 -0.5709
   18MOL   C205 6359   3.816   4.025   3.884 -1.2606  0.3149  0.1067
   18MOL   H206 6360   3.554   3.747   3.672 -2.4914 -0.6465 -2.7230
   18MOL   H207 6361   3.462   3.617   3.729  4.0685 -0.7664 -0.3414
   18MOL   H208 6362   3.506   3.747   3.968 -0.1152  0.7188 -0.0691
   18MOL   H209 6363   3.756   3.782   3.992 -4.1701  1.3004  2.9662
   18MOL   H210 6364   3.788   3.755   3.835  0.7000 -1.2338  1.5226
   18MOL   H211 6365   3.635   3.968   3.785 -0.0486 -2.1280 -0.3229
   18MOL   H212 6366   3.489   3.963   3.982 -0.5213  0.0961  2.6586
   18MOL   H213 6367   3.595   4.108   3.994  2.3231  0.2553 -0.4490
   18MOL   H214 6368   3.623   3.980   4.098 -0.6457  0.8400 -0.3048
   18MOL   H215 6369   3.785   4.130   3.887 -4.1510 -0.5179  1.5791
   18MOL   H216 6370   3.891   4.025   3.805  0.8489 -0.5340  2.0597
   18MOL   H217 6371   3.868   4.008   3.978 -0.5758  3.6120  0.3862
   18MOL   C218 6372   3.606   3.567   3.921 -1.0032  0.9461 -0.0243
   18MOL   C219 6373   3.663   3.527   4.059  0.2062  1.4342 -0.2360
   18MOL   C220 6374   3.737   3.397   4.053 -0.2201  0.8013 -0.3827
   18MOL   C221 6375   3.867   3.391   3.965  0.2349 -0.7702 -0.5698
   18MOL   C222 6376   3.973   3.505   3.987  0.2238  0.5089 -0.4876
   18MOL   C223 6377   3.929   3.255   3.985 -0.0697 -0.0949  0.1308
   18MOL   H224 6378   3.512   3.512   3.911 -0.5867 -0.3256  2.5038
   18MOL   H225 6379   3.676   3.530   3.846 -1.0487  1.0224 -0.1036
   18MOL   H226 6380   3.724   3.610   4.095 -1.2002  2.6373 -0.5592
   18MOL   H227 6381   3.772   3.368   4.153  0.4634  2.6606 -0.0635
   18MOL   H228 6382   3.664   3.323   4.020 -0.2842  0.5223  0.3737
   18MOL   H229 6383   3.844   3.398   3.859  0.5647  0.8358 -0.5583
   18MOL   H230 6384   3.921   3.600   3.977 -1.2841 -0.1844  0.5325
   18MOL   H231 6385   4.004   3.483   4.089  1.5942 -3.4330 -1.6461
   18MOL   H232 6386   4.060   3.489   3.923  0.2628 -1.8133  0.0709
   18MOL   H233 6387   3.854   3.177   3.975 -0.0105  0.1597 -2.7043
   18MOL   H234 6388   4.011   3.228   3.919 -0.0089 -1.1964  0.6581
   18MOL   H235 6389   3.966   3.240   4.087  1.1125  1.8963  0.0293
   18MOL   C236 6390   3.555   3.523   4.172  0.5116  0.7432 -0.5071
   18MOL   C237 6391   3.621   3.536   4.315 -0.5058  0.4436  0.2570
   18MOL   C238 6392   3.542   3.447   4.412  0.1399 -0.6085  0.5021
   18MOL   C239 6393   3.576   3.290   4.408 -0.2081 -0.0662 -0.3180
   18MOL   C240 6394   3.706   3.261   4.488 -0.3787  0.0364  0.2527
   18MOL   C241 6395   3.472   3.202   4.479 -0.0571 -0.5488  0.3694
   18MOL   H242 6396   3.488   3.438   4.160  1.7504 -0.4144  0.5524
   18MOL   H243 6397   3.483   3.603   4.155 -0.8694 -0.5104 -0.6121
   18MOL   H244 6398   3.725   3.506   4.307 -0.6714 -0.0930  0.1110
   18MOL   H245 6399   3.438   3.472   4.391  1.2720  2.0748 -2.4324
   18MOL   H246 6400   3.555   3.472   4.517 -1.2906 -0.8244  0.7408
   18MOL   H247 6401   3.594   3.255   4.307 -0.5486 -0.9749 -0.0749
   18MOL   H248 6402   3.795   3.309   4.448 -1.3445  0.0263 -1.9758
   18MOL   H249 6403   3.722   3.156   4.462  0.6857  0.5011 -1.0188
   18MOL   H250 6404   3.703   3.289   4.593  0.5043  2.5234 -0.3439
   18MOL   H251 6405   3.458   3.234   4.582 -0.9556 -1.4625  0.5365
   18MOL   H252 6406   3.478   3.093   4.481 -0.2438 -0.5339  1.9311
   18MOL   H253 6407   3.373   3.222   4.438  0.2571 -1.3188 -0.7821
   18MOL   C254 6408   3.618   3.678   4.357  0.4667  0.1825 -0.8534
   18MOL   C255 6409   3.710   3.721   4.474 -0.3179  0.0397 -0.3466
   18MOL   C256 6410   3.824   3.817   4.431 -0.8743 -0.3904  0.3547
   18MOL   C257 6411   3.921   3.758   4.326  0.7793 -0.2258 -0.3651
   18MOL   C258 6412   4.017   3.655   4.384 -0.8967  0.4535  0.6060
   18MOL   C259 6413   4.002   3.860   4.260 -0.5315 -0.1806  0.0297
   18MOL   H260 6414   3.646   3.745   4.276  1.7263  0.7917  0.0790
   18MOL   H261 6415   3.516   3.713   4.375  0.2543 -1.3767  1.0975
   18MOL   H262 6416   3.758   3.631   4.513  0.5770  0.3059 -0.8280
   18MOL   H263 6417   3.875   3.844   4.523 -0.2699 -1.7346  0.4331
   18MOL   H264 6418   3.784   3.907   4.385  2.1401  0.6164 -0.4015
   18MOL   H265 6419   3.862   3.711   4.247  0.9195  2.8720 -2.3723
   18MOL   H266 6420   4.072   3.609   4.301  2.2371  0.5243  2.5548
   18MOL   H267 6421   3.973   3.569   4.434 -0.9597  0.5591  0.7303
   18MOL   H268 6422   4.081   3.706   4.456 -3.0389  1.5416  1.7613
   18MOL   H269 6423   3.946   3.928   4.195  1.3234 -0.8544 -2.3161
   18MOL   H270 6424   4.056   3.918   4.335 -1.6879 -0.2159  0.9166
   18MOL   H271 6425   4.082   3.817   4.201  0.5370  2.2062 -0.3309
   18MOL   C272 6426   3.630   3.760   4.606 -0.5124  0.0549 -0.0020
   18MOL   C273 6427   3.708   3.735   4.735  0.1954  0.3504 -0.4891
   18MOL   C274 6428   3.660   3.813   4.861  1.0638  0.3818 -0.0983
   18MOL   C275 6429   3.706   3.964   4.848  0.4499  0.4144 -0.3103
   18MOL   C276 6430   3.853   3.979   4.860  0.3027  0.5269 -0.2274
   18MOL   C277 6431   3.656   4.052   4.964  0.8304 -0.4841  0.1395
   18MOL   H278 6432   3.619   3.867   4.595 -0.1029  0.0317 -0.6661
   18MOL   H279 6433   3.530   3.715   4.610 -1.0563  1.1453 -1.0282
   18MOL   H280 6434   3.815   3.752   4.719  0.6532  0.7639  2.6714
   18MOL   H281 6435   3.701   3.773   4.954  3.1057 -0.2090 -1.2501
   18MOL   H282 6436   3.552   3.804   4.873  1.0878  1.1699  0.7860
   18MOL   H283 6437   3.674   4.016   4.757 -0.0367  2.6932  1.1092
   18MOL   H284 6438   3.925   3.928   4.796 -0.3987 -0.4677 -0.2339
   18MOL   H285 6439   3.873   4.081   4.830 -0.6333  1.2392  1.4975
   18MOL   H286 6440   3.887   3.969   4.963  0.7755  0.5393 -0.3820
   18MOL   H287 6441   3.551   4.075   4.946 -0.0522 -2.2204  2.8004
   18MOL   H288 6442   3.658   4.010   5.065  1.3495 -1.0403 -0.1006
   18MOL   H289 6443   3.713   4.145   4.964 -0.2506  0.1877 -0.8206
   18MOL   C290 6444   3.704   3.586   4.783 -0.2120 -0.7298 -0.2310
   18MOL   C291 6445   3.835   3.535   4.851  0.1052 -0.3267 -0.1385
   18MOL   C292 6446   3.826   3.413   4.943 -0.0803 -0.1989 -0.7227
   18MOL   C293 6447   3.719   3.414   5.061 -0.4500  0.1030 -0.2100
   18MOL   C294 6448   3.725   3.278   5.141  0.2480 -0.2612 -0.5915
   18MOL   C295 6449   3.745   3.530   5.162 -0.2283 -0.4236 -0.0647
   18MOL   H296 6450   3.612   3.571   4.839  0.0802  1.0359  0.7614
   18MOL   H297 6451   3.686   3.526   4.694 -0.5035  1.0207 -1.3605
   18MOL   H298 6452   3.886   3.614   4.905  0.3452 -0.1805 -0.5716
   18MOL   H299 6453   3.919   3.377   4.987 -0.4132  0.5903  0.6727
   18MOL   H300 6454   3.790   3.330   4.882 -1.0909  0.9551 -1.7174
   18MOL   H301 6455   3.625   3.420   5.006 -0.7233 -2.2082 -0.0375
   18MOL   H302 6456   3.816   3.279   5.200  0.9451  0.0380 -1.6378
   18MOL   H303 6457   3.707   3.184   5.089  2.0803 -0.6222 -0.6115
   18MOL   H304 6458   3.641   3.286   5.209  1.0053  0.2348  0.2926
   18MOL   H305 6459   3.841   3.506   5.207  0.0584  0.6740 -0.0627
   18MOL   H306 6460   3.669   3.544   5.240  0.6941 -0.3503  0.8364
   18MOL   H307 6461   3.752   3.624   5.107 -1.1723  1.4243  2.8277
   18MOL   C308 6462   3.941   3.517   4.735 -0.5166  0.5046 -0.2913
   18MOL   C309 6463   4.086   3.467   4.780 -0.2323 -0.1616  0.1410
   18MOL   C310 6464   4.139   3.356   4.669 -0.1956  1.0981 -0.1618
   18MOL   C311 6465   4.075   3.224   4.674  0.0656 -0.1939  0.2909
   18MOL   C312 6466   4.139   3.122   4.576 -0.4783 -0.1351 -0.7337
   18MOL   C313 6467   4.076   3.153   4.814  0.7415 -0.0500  0.1694
   18MOL   H314 6468   3.903   3.436   4.672 -0.3523  1.2418 -1.3482
   18MOL   H315 6469   3.944   3.608   4.676  0.0837  1.0263  0.5389
   18MOL   H316 6470   4.081   3.415   4.876  2.5072 -1.6938 -0.5148
   18MOL   H317 6471   4.247   3.358   4.681  0.1275  0.9823 -2.8499
   18MOL   H318 6472   4.116   3.388   4.567  1.3824  1.4397 -0.4191
   18MOL   H319 6473   3.970   3.237   4.649  0.4285  1.3168 -0.4909
   18MOL   H320 6474   4.240   3.092   4.602 -0.7049  0.9573  1.5740
   18MOL   H321 6475   4.127   3.150   4.472  2.1832  2.1862 -0.4818
   18MOL   H322 6476   4.088   3.026   4.585 -0.9838  0.3113  1.5835
   18MOL   H323 6477   4.022   3.059   4.802 -0.6825  0.7550  0.1911
   18MOL   H324 6478   4.176   3.117   4.841 -0.7904 -2.6759  2.5895
   18MOL   H325 6479   4.026   3.204   4.896  0.3936 -1.8261  1.0891
   18MOL   C326 6480   4.191   3.585   4.782  0.4061  0.0395  0.5014
   18MOL   C327 6481   4.165   3.705   4.875 -0.0946  0.1676  0.1444
   18MOL   C328 6482   4.271   3.816   4.849  0.6687  0.6934 -0.3403
   18MOL   C329 6483   4.292   3.865   4.703  0.1710 -0.1135  0.7494
   18MOL   C330 6484   4.170   3.922   4.636  0.2485  0.5426  0.1506
   18MOL   C331 6485   4.412   3.966   4.698  0.2625 -0.3258 -0.0986
   18MOL   H332 6486   4.172   3.620   4.681  1.2633  0.4499  0.4781
   18MOL   H333 6487   4.292   3.545   4.791  0.1746 -0.5164  0.6635
   18MOL   H334 6488   4.062   3.735   4.856 -0.1121  0.6262  0.9636
   18MOL   H335 6489   4.255   3.901   4.915 -0.2099 -0.7946  1.3851
   18MOL   H336 6490   4.367   3.778   4.885  1.1333  0.4981 -1.7607
   18MOL   H337 6491   4.319   3.781   4.639  0.3555  1.7692 -1.7326
   18MOL   H338 6492   4.184   3.962   4.535 -2.1141 -0.0441 -0.4524
   18MOL   H339 6493   4.136   4.004   4.700 -0.4865  1.0181 -0.8279
   18MOL   H340 6494   4.093   3.846   4.624  0.9264 -0.2033  0.5517
   18MOL   H341 6495   4.440   3.998   4.598 -0.8894  0.0999 -0.2998
   18MOL   H342 6496   4.384   4.060   4.744  1.9626  0.7845 -1.3011
   18MOL   H343 6497   4.493   3.923   4.756 -0.2804 -1.8828 -0.4550
   18MOL   C344 6498   4.173   3.656   5.023 -0.7553  1.0232  0.5717
   18MOL   C345 6499   4.115   3.753   5.122  0.8213 -0.2270 -0.9671
   18MOL   C346 6500   4.141   3.700   5.277 -0.1533 -0.4808  0.5298
   18MOL   C347 6501   4.092   3.792   5.393  0.1477  0.5375  0.1011
   18MOL   C348 6502   4.140   3.745   5.533  0.0722 -0.7202 -0.4049
   18MOL   C349 6503   3.941   3.797   5.394 -0.2574  0.0095  0.9430
   18MOL   H350 6504   4.275   3.634   5.055 -0.8528 -1.1901 -0.4687
   18MOL   H351 6505   4.126   3.558   5.039 -0.7033  0.8741 -0.1483
   18MOL   H352 6506   4.006   3.758   5.116  0.7566  0.9254  0.8059
   18MOL   H353 6507   4.096   3.601   5.277  2.8015 -1.8708 -1.6194
   18MOL   H354 6508   4.248   3.682   5.283 -0.4406 -1.7406  2.4369
   18MOL   H355 6509   4.117   3.896   5.377 -0.1431  0.6191  0.1626
   18MOL   H356 6510   4.083   3.802   5.605  2.3924  2.1616 -0.7651
   18MOL   H357 6511   4.130   3.639   5.556  1.4762 -0.5132  1.3072
   18MOL   H358 6512   4.245   3.773   5.541 -0.2225  0.2960 -0.0351
   18MOL   H359 6513   3.902   3.854   5.478 -1.6074 -0.8025  0.8738
   18MOL   H360 6514   3.891   3.701   5.381 -1.4832  0.7938 -0.3136
   18MOL   H361 6515   3.905   3.848   5.305 -0.1853 -1.6578 -0.0660
   18MOL   H362 6516   4.162   3.849   5.102 -0.6844  0.6415 -0.4354
   19MOL     C1 6517   3.414   5.609   0.098  0.0341 -0.6502  0.2542
   19MOL     C2 6518   3.293   5.624   7.751  0.3878  0.5447 -0.2668
   19MOL     C3 6519   3.182   5.726   0.066 -0.1982 -0.0444  0.0173
   19MOL     C4 6520   3.236   5.864   0.105 -0.0425 -0.1794 -0.4813
   19MOL     C5 6521   3.153   5.936   0.209 -0.1557 -0.6885  0.2036
   19MOL     C6 6522   3.255   5.944   7.729 -0.1159  0.1274  0.0648
   19MOL     H7 6523   3.483   5.529   0.073  0.0089 -0.4133 -0.5956
   19MOL     H8 6524   3.474   5.700   0.108  0.2658 -1.0079  2.2919
   19MOL     H9 6525   3.320   5.672   7.657  0.2361 -1.2000 -1.2183
   19MOL    H10 6526   3.094   5.738   0.004  0.4038  3.5968 -0.2786
   19MOL    H11 6527   3.157   5.674   0.159  0.9664 -0.0104  0.3649
   19MOL    H12 6528   3.330   5.850   0.159 -1.1012  0.9931  1.7389
   19MOL    H13 6529   3.048   5.932   0.179 -0.2291 -0.2142  0.3973
   19MOL    H14 6530   3.173   5.884   0.303  1.9997 -0.1326  0.0815
   19MOL    H15 6531   3.186   6.040   0.217 -0.5654 -0.4121 -1.4263
   19MOL    H16 6532   3.160   5.951   7.676 -0.0742  0.4610  0.0334
   19MOL    H17 6533   3.322   5.892   7.660  0.1291  0.5044  0.0188
   19MOL    H18 6534   3.294   6.044   7.749  0.5100 -0.3082  1.0500
   19MOL    H19 6535   3.368   5.587   0.195 -4.1354 -1.8542 -1.8930
   19MOL    C20 6536   3.219   5.490   7.723 -0.3270 -0.4512  0.2356
   19MOL    C21 6537   3.303   5.375   7.666  0.3512 -0.1486  0.0871
   19MOL    C22 6538   3.226   5.245   7.670 -0.0413 -1.0379  0.2668
   19MOL    C23 6539   3.192   5.179   0.056  0.4160  0.3840  0.1765
   19MOL    C24 6540   3.058   5.113   0.069 -0.1120  0.2741  0.2096
   19MOL    C25 6541   3.304   5.090   0.106 -0.3599  0.3419  0.4105
   19MOL    H26 6542   3.206   5.460   0.075  3.6818 -0.0074  0.9593
   19MOL    H27 6543   3.121   5.487   7.677  0.0399 -2.7410 -0.5097
   19MOL    H28 6544   3.385   5.349   7.733  1.9418 -2.4118 -2.6117
   19MOL    H29 6545   3.265   5.170   7.602 -2.6644 -0.5133 -1.8836
   19MOL    H30 6546   3.131   5.268   7.623  1.2849  3.0036 -0.5854
   19MOL    H31 6547   3.182   5.265   0.123  0.1680 -0.5655  1.3647
   19MOL    H32 6548   3.031   5.096   0.174  1.9292  0.8407  0.8579
   19MOL    H33 6549   3.058   5.017   0.017  0.2422  0.2874  0.1855
   19MOL    H34 6550   2.987   5.186   0.031 -1.0390  0.0778  1.5169
   19MOL    H35 6551   3.396   5.139   0.139 -0.7048 -0.4633  2.6271
   19MOL    H36 6552   3.265   5.024   0.184 -2.4714  0.6439 -0.3571
   19MOL    H37 6553   3.344   5.024   0.029 -0.2590  0.1831  0.5988
   19MOL    C38 6554   3.354   5.417   7.525 -0.2748  0.3173  0.3994
   19MOL    C39 6555   3.462   5.321   7.465 -0.0440 -0.2165 -0.1163
   19MOL    C40 6556   3.583   5.298   7.558 -0.3444 -0.3679  0.8228
   19MOL    C41 6557   3.677   5.182   7.525  0.2893 -0.2845 -0.6349
   19MOL    C42 6558   3.624   5.040   7.554  0.2747 -0.4736  0.7931
   19MOL    C43 6559   3.820   5.196   7.579  0.2648  0.0190  0.0968
   19MOL    H44 6560   3.386   5.521   7.525 -0.4453  0.3975  2.5545
   19MOL    H45 6561   3.259   5.413   7.471 -0.4067 -0.2321  0.6775
   19MOL    H46 6562   3.423   5.220   7.452 -1.4347  0.1124  1.2579
   19MOL    H47 6563   3.556   5.298   7.663  2.1253 -0.4250  1.4806
   19MOL    H48 6564   3.647   5.384   7.541 -3.1245  1.4837 -0.8084
   19MOL    H49 6565   3.685   5.185   7.417  2.5403  4.2979 -0.4756
   19MOL    H50 6566   3.613   5.022   7.661 -0.4748  1.6047  1.0837
   19MOL    H51 6567   3.525   5.027   7.511  1.0636 -1.1406 -0.8644
   19MOL    H52 6568   3.679   4.957   7.508 -0.1501 -1.0077  1.2374
   19MOL    H53 6569   3.867   5.292   7.556 -0.3926  0.6276  1.2828
   19MOL    H54 6570   3.888   5.123   7.535 -1.0592 -1.1174 -0.0845
   19MOL    H55 6571   3.830   5.181   7.686  1.1058  0.4356  0.0802
   19MOL    C56 6572   3.505   5.364   7.324 -0.3077  0.0698  0.7222
   19MOL    C57 6573   3.396   5.389   7.216  0.4518  0.0789  0.0057
   19MOL    C58 6574   3.324   5.261   7.169  0.4189  0.0079  0.0862
   19MOL    C59 6575   3.216   5.272   7.066  0.2545 -0.3716  0.4995
   19MOL    C60 6576   3.076   5.269   7.141 -0.5373  0.9990  0.2504
   19MOL    C61 6577   3.221   5.166   6.959 -0.1131 -0.5406 -0.2205
   19MOL    H62 6578   3.581   5.298   7.283 -0.9913  0.7970 -1.7608
   19MOL    H63 6579   3.556   5.460   7.328  1.1506 -0.6198 -0.8529
   19MOL    H64 6580   3.322   5.455   7.261  0.3639 -0.4985  0.7161
   19MOL    H65 6581   3.401   5.192   7.135  0.8408  0.6972 -0.3904
   19MOL    H66 6582   3.288   5.211   7.259  2.4934 -2.9161 -0.6591
   19MOL    H67 6583   3.211   5.370   7.019 -0.5682 -0.6079  0.0871
   19MOL    H68 6584   3.074   5.334   7.229  2.1392  0.9876  0.3623
   19MOL    H69 6585   3.041   5.168   7.161 -0.3538  0.7359 -0.7637
   19MOL    H70 6586   3.007   5.299   7.062 -1.0623 -0.0912  0.2947
   19MOL    H71 6587   3.321   5.170   6.916  0.0078 -0.4368  0.0691
   19MOL    H72 6588   3.168   5.185   6.866  1.1740  1.8956 -0.5064
   19MOL    H73 6589   3.205   5.069   7.006 -0.8139 -0.0074  0.6529
   19MOL    C74 6590   3.462   5.462   7.100 -0.4557 -0.0065  0.0222
   19MOL    C75 6591   3.455   5.620   7.104 -0.2942 -0.1465  0.4123
   19MOL    C76 6592   3.464   5.668   6.956 -0.8695  0.1733  0.7284
   19MOL    C77 6593   3.338   5.647   6.873  0.1480  0.0388 -0.2663
   19MOL    C78 6594   3.352   5.677   6.727 -0.2659  0.4563  0.1529
   19MOL    C79 6595   3.205   5.708   6.926 -0.1959  0.0691 -0.5259
   19MOL    H80 6596   3.420   5.431   7.004 -0.4947  1.6392 -0.5125
   19MOL    H81 6597   3.565   5.428   7.096 -0.8200 -1.2828  1.3081
   19MOL    H82 6598   3.361   5.648   7.153 -0.0884 -0.2758  0.8867
   19MOL    H83 6599   3.480   5.776   6.951  1.3613 -0.1885 -0.4531
   19MOL    H84 6600   3.553   5.634   6.904 -0.2696  0.8434  1.3039
   19MOL    H85 6601   3.323   5.539   6.867 -0.9785  0.0220  2.2683
   19MOL    H86 6602   3.437   5.640   6.671 -0.9246  0.6438 -0.9848
   19MOL    H87 6603   3.352   5.782   6.699 -1.3076  0.3467 -0.2802
   19MOL    H88 6604   3.267   5.643   6.667 -1.1766 -0.3747  1.8697
   19MOL    H89 6605   3.206   5.817   6.923 -1.2811  0.2051  1.9798
   19MOL    H90 6606   3.117   5.678   6.870 -0.2903  1.5987 -1.1987
   19MOL    H91 6607   3.184   5.679   7.030 -2.4805 -1.1463 -1.2895
   19MOL    C92 6608   3.576   5.690   7.174  0.3072 -0.1857  0.2979
   19MOL    C93 6609   3.547   5.787   7.293 -0.8614 -0.7537 -0.3236
   19MOL    C94 6610   3.680   5.832   7.370 -0.4580  0.8381 -0.0368
   19MOL    C95 6611   3.739   5.720   7.461  0.6011  0.2258  0.3978
   19MOL    C96 6612   3.888   5.736   7.471 -0.2322 -0.8520 -0.1908
   19MOL    C97 6613   3.681   5.716   7.601  0.7575  0.2875 -0.4639
   19MOL    H98 6614   3.646   5.613   7.207  0.3343 -0.5757 -0.6488
   19MOL    H99 6615   3.636   5.748   7.104  1.7719 -1.1040  0.7750
   19MOL   H100 6616   3.487   5.742   7.372 -1.2570 -0.3289 -0.3833
   19MOL   H101 6617   3.671   5.927   7.423 -0.9404  1.3072 -0.9561
   19MOL   H102 6618   3.746   5.867   7.291  0.9717 -0.9874  0.3328
   19MOL   H103 6619   3.726   5.626   7.406 -1.6407  0.1601  0.9740
   19MOL   H104 6620   3.937   5.640   7.487  1.2371  0.0961  1.1861
   19MOL   H105 6621   3.916   5.810   7.547  1.8216  0.0930 -1.7935
   19MOL   H106 6622   3.931   5.780   7.381  0.8509 -2.4416 -0.4668
   19MOL   H107 6623   3.680   5.809   7.659  0.8905 -0.3033  0.5035
   19MOL   H108 6624   3.735   5.648   7.667 -0.7325  1.5834  2.1956
   19MOL   H109 6625   3.578   5.683   7.592  1.1687 -0.8863 -0.8530
   19MOL   C110 6626   3.476   5.915   7.227  0.0449  0.1501 -0.2884
   19MOL   C111 6627   3.376   5.996   7.316 -0.3602  0.5134  0.2461
   19MOL   C112 6628   3.271   5.912   7.391  0.2417  0.3446  0.1182
   19MOL   C113 6629   3.168   5.839   7.297  0.2894  0.3839  0.1654
   19MOL   C114 6630   3.075   5.936   7.220 -0.4635 -1.0039  0.1542
   19MOL   C115 6631   3.078   5.748   7.383  0.2934 -0.2673 -0.1251
   19MOL   H116 6632   3.417   5.885   7.141 -0.6513  2.5742 -0.6952
   19MOL   H117 6633   3.550   5.981   7.181 -0.0857  0.3596 -0.1990
   19MOL   H118 6634   3.327   6.066   7.247  0.3556  1.3134  0.5431
   19MOL   H119 6635   3.223   5.989   7.451  0.0088  0.3396 -0.0603
   19MOL   H120 6636   3.316   5.835   7.454  0.5453  0.3391 -0.1002
   19MOL   H121 6637   3.215   5.775   7.223 -2.7435 -0.1355 -1.4060
   19MOL   H122 6638   3.030   6.007   7.290 -1.0636  1.1848 -2.3738
   19MOL   H123 6639   3.005   5.870   7.170  1.4669 -1.5442 -1.9132
   19MOL   H124 6640   3.119   5.992   7.137 -0.1801  1.2775  1.7942
   19MOL   H125 6641   3.020   5.798   7.461 -0.5356  1.5452 -1.8465
   19MOL   H126 6642   3.146   5.670   7.417  3.1984  2.3290  0.1823
   19MOL   H127 6643   3.005   5.697   7.320 -0.3002 -0.4540  0.6968
   19MOL   C128 6644   3.449   6.088   7.413 -0.8254  0.4965 -1.1249
   19MOL   C129 6645   3.396   6.226   7.445  0.1951  0.1775  0.1460
   19MOL   C130 6646   3.408   6.318   7.322 -0.2831 -0.3255  0.8430
   19MOL   C131 6647   3.337   6.459   7.318 -0.7525  0.1132  0.4262
   19MOL   C132 6648   3.342   6.520   7.178  0.2068  0.4860  0.5881
   19MOL   C133 6649   3.189   6.455   7.348  0.5317  0.2583  1.0943
   19MOL   H134 6650   3.552   6.101   7.379 -1.2298 -2.5904 -3.7798
   19MOL   H135 6651   3.446   6.026   7.503 -0.6438  0.7292 -0.9608
   19MOL   H136 6652   3.288   6.211   7.453  0.4284 -1.6757 -0.0223
   19MOL   H137 6653   3.511   6.319   7.288 -0.0282 -1.8746  1.5629
   19MOL   H138 6654   3.363   6.267   7.237  2.6423  0.1603 -1.0886
   19MOL   H139 6655   3.398   6.515   7.389  1.5157 -3.1109  1.1087
   19MOL   H140 6656   3.291   6.465   7.099 -0.0268  2.1935 -0.4929
   19MOL   H141 6657   3.444   6.529   7.142 -0.2221  0.6475 -0.6251
   19MOL   H142 6658   3.284   6.612   7.166 -0.4958  0.0307  0.4530
   19MOL   H143 6659   3.144   6.384   7.279  0.5341  0.8583  0.4826
   19MOL   H144 6660   3.179   6.413   7.449 -0.8324 -0.2993  0.7522
   19MOL   H145 6661   3.155   6.557   7.334 -0.1730 -0.0501  0.4860
   19MOL   C146 6662   3.437   6.275   7.582 -0.5676  0.4645 -0.1880
   19MOL   C147 6663   3.586   6.292   7.591  0.6205 -0.5441  0.0376
   19MOL   C148 6664   3.648   6.187   7.686  0.2826 -0.2158 -0.1424
   19MOL   C149 6665   3.802   6.183   7.696 -0.6786 -0.1611 -0.0911
   19MOL   C150 6666   3.847   6.079   0.048 -0.0511 -0.1692  0.4327
   19MOL   C151 6667   3.872   6.141   7.560 -0.5964  0.3020 -0.6113
   19MOL   H152 6668   3.396   6.204   7.654 -2.3954  0.9110 -0.7465
   19MOL   H153 6669   3.384   6.369   7.600 -0.9811  0.3128 -0.6027
   19MOL   H154 6670   3.632   6.289   7.493 -0.8414 -0.1237 -0.6826
   19MOL   H155 6671   3.601   6.211   0.029 -1.2380 -1.3797 -0.5933
   19MOL   H156 6672   3.605   6.089   7.666  0.0098 -0.3622  1.1131
   19MOL   H157 6673   3.846   6.277   7.731  1.6377 -1.6199  1.0451
   19MOL   H158 6674   3.840   6.125   0.147 -0.9525 -0.0687  0.3340
   19MOL   H159 6675   3.951   6.057   0.026 -0.0238  0.9458 -0.6082
   19MOL   H160 6676   3.787   5.989   0.043 -0.3438  0.0893 -0.8061
   19MOL   H161 6677   3.842   6.199   7.473 -2.9766  1.3233  0.8321
   19MOL   H162 6678   3.851   6.034   7.547  0.8103 -0.0141 -0.3621
   19MOL   H163 6679   3.980   6.150   7.566 -0.4322 -0.6815 -1.9121
   19MOL   C164 6680   3.604   6.443   7.652 -0.0909  0.4596  0.1533
   19MOL   C165 6681   3.718   6.524   7.583 -0.4242  0.4142  0.8454
   19MOL   C166 6682   3.703   6.544   7.431 -0.1176  0.3125 -0.0631
   19MOL   C167 6683   3.834   6.578   7.368  0.0753 -0.2551  0.1607
   19MOL   C168 6684   3.925   6.451   7.357 -0.2277 -0.4607 -1.2728
   19MOL   C169 6685   3.803   6.635   7.226 -0.5670  0.5968  0.4647
   19MOL   H170 6686   3.513   6.499   7.632  0.0814  0.6034 -0.2390
   19MOL   H171 6687   3.626   6.433   0.006  1.1211  1.3705  0.0022
   19MOL   H172 6688   3.808   6.465   7.601 -0.4295  0.4160  0.8770
   19MOL   H173 6689   3.662   6.450   7.395  0.6038 -0.2755  0.6430
   19MOL   H174 6690   3.628   6.624   7.429 -0.2619  0.1675 -0.4563
   19MOL   H175 6691   3.879   6.665   7.415 -1.2376  0.2171  0.5716
   19MOL   H176 6692   3.870   6.363   7.324 -2.8235 -0.2964  2.3758
   19MOL   H177 6693   3.966   6.433   7.457 -2.3142  3.3816  0.3826
   19MOL   H178 6694   4.014   6.468   7.296 -0.0772  0.3058 -0.8476
   19MOL   H179 6695   3.732   6.718   7.228  1.2611  2.2207 -0.4568
   19MOL   H180 6696   3.769   6.555   7.160  2.7581 -0.6334  0.1210
   19MOL   H181 6697   3.891   6.659   7.166 -0.4193 -1.4285 -0.1876
   19MOL   C182 6698   3.724   6.656   7.668 -0.4324 -1.0656  0.1061
   19MOL   C183 6699   3.816   6.666   0.037  0.0200  0.2569  0.3924
   19MOL   C184 6700   3.967   6.682   7.744  0.0785 -0.1251 -0.6703
   19MOL   C185 6701   4.059   6.635   0.112 -0.6559 -0.7544  0.0985
   19MOL   C186 6702   4.075   6.488   0.128 -0.0040  0.2890  0.2967
   19MOL   C187 6703   4.202   6.697   0.109  0.1527 -0.0405 -0.2489
   19MOL   H188 6704   3.621   6.667   7.704 -1.1339 -2.0004 -1.5511
   19MOL   H189 6705   3.743   6.746   7.610  2.4635 -1.3128  0.6229
   19MOL   H190 6706   3.791   6.574   0.090 -0.9129  0.3224  0.0651
   19MOL   H191 6707   3.977   6.787   7.718  1.5396  0.1812  1.0118
   19MOL   H192 6708   3.998   6.622   7.659  2.7976  0.7569 -0.3358
   19MOL   H193 6709   4.023   6.665   0.210 -2.2410  0.1258 -0.7319
   19MOL   H194 6710   4.105   6.428   0.042  0.9089  0.1323  0.7231
   19MOL   H195 6711   3.976   6.450   0.153  0.2905 -0.0878  0.9005
   19MOL   H196 6712   4.138   6.464   0.214  1.8162 -0.7748 -1.2846
   19MOL   H197 6713   4.262   6.690   0.018  0.6088  1.1632 -0.0488
   19MOL   H198 6714   4.262   6.674   0.196  0.7129  2.6448  0.1413
   19MOL   H199 6715   4.173   6.802   0.120 -0.9217 -0.3876  0.2692
   19MOL   C200 6716   3.771   6.776   0.132 -0.3419 -0.1726 -0.2237
   19MOL   C201 6717   3.646   6.739   0.219  0.5335  0.3218 -0.5923
   19MOL   C202 6718   3.567   6.866   0.253  0.0831 -0.1103  0.1880
   19MOL   C203 6719   3.494   6.921   0.135  0.2541 -0.8425  0.3586
   19MOL   C204 6720   3.373   6.831   0.093  0.0788  0.3315 -0.0006
   19MOL   C205 6721   3.455   7.063   0.158  0.1427 -0.0054  0.4018
   19MOL   H206 6722   3.754   6.864   0.069 -1.4172  0.4911  0.9678
   19MOL   H207 6723   3.854   6.810   0.193 -0.3118  0.2948 -0.5208
   19MOL   H208 6724   3.579   6.670   0.167  1.0991 -0.7907  0.1194
   19MOL   H209 6725   3.489   6.828   0.318 -0.3252 -1.2290 -0.9331
   19MOL   H210 6726   3.619   6.942   0.312 -0.1220 -1.2911  1.9270
   19MOL   H211 6727   3.556   6.929   0.045 -2.3012 -1.3773 -1.5077
   19MOL   H212 6728   3.303   6.802   0.171  1.1437  0.4474  1.0176
   19MOL   H213 6729   3.419   6.738   0.058  2.7490  1.6675 -0.1726
   19MOL   H214 6730   3.319   6.874   0.009 -1.2388 -1.0068  0.1413
   19MOL   H215 6731   3.390   7.104   0.081 -0.3686  0.7878  1.2498
   19MOL   H216 6732   3.548   7.120   0.157 -0.5153  1.0765  0.6410
   19MOL   H217 6733   3.399   7.074   0.251  1.0278 -2.3438  1.2456
   19MOL   C218 6734   3.693   6.667   0.349 -0.4599  0.0478 -0.0132
   19MOL   C219 6735   3.590   6.578   0.427  0.0099 -1.0556 -0.7736
   19MOL   C220 6736   3.663   6.532   0.559  0.0426 -0.0204 -0.1094
   19MOL   C221 6737   3.714   6.631   0.667  0.0444  0.1427 -0.4457
   19MOL   C222 6738   3.666   6.596   0.811  0.0204 -0.0102  0.0809
   19MOL   C223 6739   3.868   6.644   0.669  0.5020  0.7887  0.0478
   19MOL   H224 6740   3.778   6.600   0.335 -1.3953 -1.1696  0.0542
   19MOL   H225 6741   3.728   6.750   0.410  0.9049  1.9174 -3.2315
   19MOL   H226 6742   3.505   6.637   0.462 -0.0671 -1.6187 -0.0060
   19MOL   H227 6743   3.597   6.463   0.611  0.6699  0.5218  1.4303
   19MOL   H228 6744   3.751   6.475   0.529 -0.2076  0.8916 -2.7849
   19MOL   H229 6745   3.676   6.732   0.653  0.4267  0.3723  0.1336
   19MOL   H230 6746   3.697   6.499   0.850 -0.2220 -0.1175  0.0095
   19MOL   H231 6747   3.696   6.663   0.891 -0.4573  0.5366 -0.1903
   19MOL   H232 6748   3.558   6.608   0.814 -0.0843 -0.3845 -1.5014
   19MOL   H233 6749   3.910   6.653   0.568 -1.5320  2.2691 -0.7041
   19MOL   H234 6750   3.911   6.731   0.719 -0.6184  1.9873 -1.0294
   19MOL   H235 6751   3.911   6.551   0.705 -1.4870 -0.6068 -1.1302
   19MOL   C236 6752   3.548   6.460   0.343  0.2759 -0.0437 -0.4319
   19MOL   C237 6753   3.452   6.360   0.404 -0.3348  0.0670  0.0633
   19MOL   C238 6754   3.444   6.226   0.328  0.0999 -0.3047 -0.6729
   19MOL   C239 6755   3.568   6.138   0.309  0.0545 -0.1928 -0.4392
   19MOL   C240 6756   3.637   6.114   0.441  0.4026 -0.3680  0.6812
   19MOL   C241 6757   3.527   6.012   0.244  0.4383 -0.1563  0.0149
   19MOL   H242 6758   3.644   6.411   0.324 -0.4257 -0.9045 -1.8499
   19MOL   H243 6759   3.520   6.488   0.242  1.0371  3.1080  0.1973
   19MOL   H244 6760   3.483   6.344   0.507  1.4173  1.0324 -0.3030
   19MOL   H245 6761   3.401   6.244   0.229  0.2353 -2.0819 -1.0685
   19MOL   H246 6762   3.366   6.173   0.384  0.8808  1.0441  1.7797
   19MOL   H247 6763   3.629   6.195   0.238 -0.0010  2.1866  1.3702
   19MOL   H248 6764   3.566   6.060   0.504 -0.5753 -0.9935 -0.9228
   19MOL   H249 6765   3.665   6.206   0.491 -2.8573  0.9616  0.1965
   19MOL   H250 6766   3.729   6.058   0.422  0.6626  0.4574 -0.5928
   19MOL   H251 6767   3.475   5.943   0.311  1.2932 -0.0206  0.8243
   19MOL   H252 6768   3.606   5.943   0.214  0.2354  0.0858 -1.1059
   19MOL   H253 6769   3.469   6.045   0.157 -0.4088 -0.7925  0.3257
   19MOL   C254 6770   3.313   6.433   0.405  0.1141 -0.1572  0.1095
   19MOL   C255 6771   3.201   6.355   0.491  0.1075 -0.2243  1.0175
   19MOL   C256 6772   3.236   6.354   0.637 -0.1564 -0.4303  0.9039
   19MOL   C257 6773   3.135   6.282   0.732  0.0087 -0.1447  0.4750
   19MOL   C258 6774   3.153   6.319   0.876 -0.3335 -0.2705  0.9411
   19MOL   C259 6775   3.151   6.132   0.720  0.3515 -0.0576  0.1270
   19MOL   H260 6776   3.321   6.532   0.449 -2.9861  0.4892 -0.6182
   19MOL   H261 6777   3.283   6.453   0.302  3.8644 -2.6896 -1.5850
   19MOL   H262 6778   3.184   6.251   0.464 -1.0653  0.8275 -2.6013
   19MOL   H263 6779   3.247   6.458   0.669  2.8451  0.3370 -2.2947
   19MOL   H264 6780   3.334   6.308   0.651 -1.0560 -2.9631 -0.7710
   19MOL   H265 6781   3.033   6.315   0.712  0.4176  0.5082 -0.5928
   19MOL   H266 6782   3.241   6.269   0.915  0.2590  0.0635  0.0368
   19MOL   H267 6783   3.066   6.290   0.936  0.0020 -2.4825  0.4036
   19MOL   H268 6784   3.173   6.425   0.894 -1.2478 -0.0445  0.6461
   19MOL   H269 6785   3.112   6.090   0.628 -1.3159 -0.3132  0.9300
   19MOL   H270 6786   3.255   6.101   0.718  0.7686  1.3935 -1.5600
   19MOL   H271 6787   3.101   6.079   0.801 -0.6886 -1.3008 -1.2984
   19MOL   C272 6788   3.057   6.425   0.459  0.6638 -0.0229 -0.3914
   19MOL   C273 6789   3.020   6.467   0.309  0.0058 -0.1807  0.2108
   19MOL   C274 6790   3.013   6.339   0.224  0.6850  0.6059 -0.5481
   19MOL   C275 6791   3.020   6.366   0.074  0.6223  0.3566 -0.2636
   19MOL   C276 6792   2.980   6.234   7.749 -0.0443 -0.7180 -0.4672
   19MOL   C277 6793   3.167   6.415   0.045 -0.5190 -0.2116 -0.3284
   19MOL   H278 6794   2.981   6.354   0.492 -0.6363  1.8459  0.6850
   19MOL   H279 6795   3.045   6.515   0.519 -5.2897 -1.8643  1.5179
   19MOL   H280 6796   3.097   6.538   0.278  0.0253 -1.5681 -3.1832
   19MOL   H281 6797   2.916   6.293   0.238  0.9987  0.7730  2.6198
   19MOL   H282 6798   3.085   6.263   0.256 -1.4372 -0.4791  1.8001
   19MOL   H283 6799   2.947   6.445   0.056 -0.2828 -0.5410 -0.6618
   19MOL   H284 6800   3.018   6.149   0.055 -0.2466 -0.3489  0.2116
   19MOL   H285 6801   2.872   6.227   7.733 -0.4572 -0.7920  2.0590
   19MOL   H286 6802   3.032   6.222   7.654 -1.9641 -0.5685 -1.5541
   19MOL   H287 6803   3.242   6.339   0.068 -1.2321 -1.5375 -2.2914
   19MOL   H288 6804   3.183   6.459   7.699  0.7956 -2.3730 -1.1386
   19MOL   H289 6805   3.191   6.498   0.112 -0.5131  0.6887 -1.4375
   19MOL   C290 6806   2.897   6.560   0.324 -0.3988 -0.2603 -0.1658
   19MOL   C291 6807   2.905   6.708   0.373 -0.3513 -0.2382  1.4696
   19MOL   C292 6808   2.951   6.792   0.248 -0.1470  0.0530 -0.2064
   19MOL   C293 6809   2.951   6.949   0.263 -0.5020 -0.8688  0.2735
   19MOL   C294 6810   3.046   6.992   0.382 -0.2024 -0.1476  0.1026
   19MOL   C295 6811   3.000   7.019   0.127  0.5857 -0.5541  0.7286
   19MOL   H296 6812   2.846   6.575   0.229 -0.3661 -1.6739 -0.4193
   19MOL   H297 6813   2.827   6.502   0.385  0.6069 -2.1968 -0.8041
   19MOL   H298 6814   2.970   6.722   0.460  0.6906  0.8360  0.5446
   19MOL   H299 6815   2.887   6.770   0.163  0.0338  2.3753 -0.9861
   19MOL   H300 6816   3.055   6.764   0.234  0.3487 -0.7518  4.3793
   19MOL   H301 6817   2.852   6.987   0.285  0.6787  0.5949  3.2954
   19MOL   H302 6818   3.009   6.968   0.482  1.4376  0.2171  0.8151
   19MOL   H303 6819   3.064   7.100   0.382  1.1179 -0.3672  0.2920
   19MOL   H304 6820   3.140   6.938   0.375  0.5742  1.1066  0.8127
   19MOL   H305 6821   2.999   7.125   0.153  0.6588 -0.8904  2.1686
   19MOL   H306 6822   2.932   7.005   0.043  1.8032  0.8183 -0.5186
   19MOL   H307 6823   3.101   6.992   0.098  0.7340  1.5116 -0.8286
   19MOL   C308 6824   2.782   6.766   0.455  0.8842 -0.4920  0.4561
   19MOL   C309 6825   2.737   6.685   0.579  0.2631  0.1660 -0.5542
   19MOL   C310 6826   2.761   6.754   0.714  0.4305 -0.3184 -0.1094
   19MOL   C311 6827   2.907   6.786   0.742  0.1389 -0.3349 -0.6251
   19MOL   C312 6828   2.911   6.907   0.842 -0.1376  0.4339  0.1588
   19MOL   C313 6829   2.982   6.668   0.799 -1.1668 -0.1525 -0.1514
   19MOL   H314 6830   2.799   6.871   0.479 -0.4082 -0.0977 -0.2882
   19MOL   H315 6831   2.707   6.781   0.378  3.7950 -1.4262 -2.6954
   19MOL   H316 6832   2.803   6.599   0.582  2.5822  1.8917 -0.7874
   19MOL   H317 6833   2.726   6.696   0.800 -0.3419 -0.2999 -0.4077
   19MOL   H318 6834   2.696   6.841   0.713 -0.3815 -0.9111  0.1752
   19MOL   H319 6835   2.956   6.825   0.652  0.8779 -0.5883 -0.3312
   19MOL   H320 6836   2.849   6.894   0.932 -0.0509  1.5855  0.3920
   19MOL   H321 6837   2.879   7.003   0.802  1.0091  0.2173 -1.2861
   19MOL   H322 6838   3.015   6.927   0.866 -0.4433  0.4970  1.4849
   19MOL   H323 6839   2.921   6.616   0.872 -1.5584 -3.8580 -3.0102
   19MOL   H324 6840   3.019   6.598   0.725 -0.2834 -0.5065  0.6128
   19MOL   H325 6841   3.081   6.698   0.835 -1.2076 -1.8079  1.3842
   19MOL   C326 6842   2.595   6.629   0.554 -0.0735  0.1057  0.1587
   19MOL   C327 6843   2.563   6.518   0.654  0.9835  0.7021 -0.1473
   19MOL   C328 6844   2.619   6.382   0.606  0.8989 -0.6991  0.2742
   19MOL   C329 6845   2.615   6.275   0.722 -1.0764  0.3159  0.0836
   19MOL   C330 6846   2.536   6.144   0.687  0.5522  0.8967 -0.0705
   19MOL   C331 6847   2.760   6.237   0.772 -0.4626 -0.3512  0.0205
   19MOL   H332 6848   2.569   6.592   0.455 -2.6127 -0.1937  0.8937
   19MOL   H333 6849   2.526   6.714   0.557  0.6012  0.7662 -1.8297
   19MOL   H334 6850   2.614   6.537   0.748 -0.1111  0.5461  0.4784
   19MOL   H335 6851   2.556   6.343   0.526  1.5418 -0.7294 -0.2194
   19MOL   H336 6852   2.720   6.395   0.566  1.0764 -0.6171  0.7422
   19MOL   H337 6853   2.563   6.317   0.808  0.4046  1.7040  0.3160
   19MOL   H338 6854   2.437   6.159   0.643  1.0754  0.0648 -1.5731
   19MOL   H339 6855   2.518   6.079   0.773 -1.1619  1.2758 -0.1381
   19MOL   H340 6856   2.593   6.094   0.609 -3.0045  0.0656 -2.2294
   19MOL   H341 6857   2.817   6.326   0.798 -0.4894 -1.1194  2.9154
   19MOL   H342 6858   2.747   6.183   0.866 -0.9097 -0.6658 -0.2193
   19MOL   H343 6859   2.822   6.169   0.713  0.6644 -1.4094  2.3569
   19MOL   C344 6860   2.410   6.508   0.662  0.3848 -0.2699 -0.1647
   19MOL   C345 6861   2.338   6.618   0.743  0.7781  0.4167 -0.3998
   19MOL   C346 6862   2.186   6.611   0.736  0.5365 -0.2533  0.0473
   19MOL   C347 6863   2.122   6.718   0.648 -0.7803 -0.1853 -1.4049
   19MOL   C348 6864   1.970   6.728   0.689  0.3543  0.1336  0.4718
   19MOL   C349 6865   2.149   6.688   0.493 -0.4614 -0.1282  0.7334
   19MOL   H350 6866   2.371   6.415   0.706  0.4034 -1.3888 -2.4429
   19MOL   H351 6867   2.383   6.504   0.556  2.9143 -2.2711 -0.7723
   19MOL   H352 6868   2.371   6.718   0.713 -1.2852  1.1191 -0.4239
   19MOL   H353 6869   2.160   6.510   0.704  1.0072 -1.1885  2.4882
   19MOL   H354 6870   2.139   6.629   0.832 -1.0734 -1.0186 -0.5903
   19MOL   H355 6871   2.162   6.814   0.683  2.0105 -2.2007  1.1835
   19MOL   H356 6872   1.962   6.756   0.794 -0.8251  2.2886 -0.1582
   19MOL   H357 6873   1.924   6.812   0.636 -0.6789  0.4954  1.9190
   19MOL   H358 6874   1.919   6.634   0.674  0.4270  0.0864  0.5197
   19MOL   H359 6875   2.257   6.683   0.477 -0.5047 -0.2719  0.4951
   19MOL   H360 6876   2.120   6.765   0.421 -0.5340  0.2226  1.1343
   19MOL   H361 6877   2.112   6.590   0.464 -0.2174 -0.4025  1.3382
   19MOL   H362 6878   2.361   6.601   0.848  2.0031 -0.2813 -0.7657
   20MOL     C1 6879   2.859   3.629   5.299 -0.0313 -0.5292 -0.4732
   20MOL     C2 6880   2.740   3.712   5.346 -0.7063 -0.2659 -0.1694
   20MOL     C3 6881   2.635   3.625   5.422 -0.7682  0.9211  0.0991
   20MOL     C4 6882   2.667   3.605   5.572 -0.7036  0.6911 -0.0717
   20MOL     C5 6883   2.580   3.505   5.653  0.4421  0.6025  0.3021
   20MOL     C6 6884   2.673   3.736   5.649 -0.7220 -0.8624  0.3224
   20MOL     H7 6885   2.911   3.587   5.385 -0.6648 -0.7603 -0.1998
   20MOL     H8 6886   2.821   3.542   5.246 -0.4073  0.2090 -1.4241
   20MOL     H9 6887   2.794   3.785   5.407  1.7140 -2.3372  0.2832
   20MOL    H10 6888   2.535   3.667   5.414 -1.6709 -0.9683  1.1266
   20MOL    H11 6889   2.635   3.527   5.374 -0.1668  1.4675 -1.0535
   20MOL    H12 6890   2.767   3.564   5.586 -0.2521  2.5435  2.5602
   20MOL    H13 6891   2.480   3.548   5.655 -0.0343 -0.4164 -1.2006
   20MOL    H14 6892   2.597   3.404   5.616  0.0114  0.2060  1.1765
   20MOL    H15 6893   2.601   3.512   5.760 -2.3302  2.5648  0.7825
   20MOL    H16 6894   2.715   3.823   5.599  1.2985 -1.8910  0.1735
   20MOL    H17 6895   2.737   3.717   5.736 -1.5991 -1.3185  0.8711
   20MOL    H18 6896   2.574   3.774   5.672 -1.6203 -2.0757 -1.4908
   20MOL    H19 6897   2.936   3.687   5.248 -0.9983 -0.2688 -1.6570
   20MOL    C20 6898   2.667   3.785   5.230  0.2557  0.0824 -0.1925
   20MOL    C21 6899   2.610   3.923   5.265  0.8484 -0.5545 -0.1067
   20MOL    C22 6900   2.720   4.033   5.281 -0.6415 -0.5390 -0.1498
   20MOL    C23 6901   2.672   4.151   5.383  0.0278 -0.3283 -0.6841
   20MOL    C24 6902   2.651   4.106   5.529 -0.0344 -0.3179 -0.0355
   20MOL    C25 6903   2.751   4.283   5.363 -0.3388  0.2493 -0.0736
   20MOL    H26 6904   2.742   3.805   5.155  0.5961  1.7473  0.5581
   20MOL    H27 6905   2.605   3.708   5.184  3.0806 -2.8568  0.7157
   20MOL    H28 6906   2.562   3.907   5.361 -0.5940 -1.4578 -0.9512
   20MOL    H29 6907   2.730   4.086   5.187 -0.3166  0.6353  0.5405
   20MOL    H30 6908   2.817   3.993   5.313  0.5139  0.8760 -1.8003
   20MOL    H31 6909   2.575   4.180   5.342 -0.3950 -1.2859 -0.3893
   20MOL    H32 6910   2.622   4.184   5.599  1.5712 -0.5964  0.9730
   20MOL    H33 6911   2.744   4.068   5.571  1.1118  3.0287  0.6415
   20MOL    H34 6912   2.566   4.039   5.539 -0.6292  0.2080 -1.3921
   20MOL    H35 6913   2.853   4.285   5.400 -1.0746  1.4226  1.9513
   20MOL    H36 6914   2.757   4.311   5.257  3.2327  1.6247  0.4249
   20MOL    H37 6915   2.699   4.368   5.409  0.2211  0.7829 -0.4172
   20MOL    C38 6916   2.490   3.949   5.166 -0.6535  0.2523  0.5014
   20MOL    C39 6917   2.358   3.890   5.216 -0.2058 -0.0415  0.4691
   20MOL    C40 6918   2.259   3.888   5.095  0.4717 -0.1361  0.0123
   20MOL    C41 6919   2.278   3.765   5.001  0.1533 -0.6491 -0.2106
   20MOL    C42 6920   2.214   3.785   4.863 -0.6277  0.0725 -0.3754
   20MOL    C43 6921   2.227   3.632   5.066 -0.2586  0.2435 -0.0505
   20MOL    H44 6922   2.518   3.898   5.074  1.2809 -0.0197  1.2231
   20MOL    H45 6923   2.487   4.054   5.136  1.1001  0.1369 -0.1258
   20MOL    H46 6924   2.367   3.792   5.263 -1.2511 -0.2020  0.3480
   20MOL    H47 6925   2.271   3.982   5.042 -2.9872  0.1600 -0.3571
   20MOL    H48 6926   2.159   3.879   5.137 -0.6313  0.0586 -2.5563
   20MOL    H49 6927   2.385   3.747   4.992  0.5636  0.9731  1.3569
   20MOL    H50 6928   2.206   3.695   4.802  0.0243 -1.3887  1.6032
   20MOL    H51 6929   2.115   3.829   4.875 -0.3520  0.3701  0.9234
   20MOL    H52 6930   2.280   3.853   4.809  0.5073 -1.6892 -1.2600
   20MOL    H53 6931   2.124   3.648   5.097 -0.2351 -2.7601  1.7111
   20MOL    H54 6932   2.292   3.611   5.151 -1.5496  0.2670  0.9523
   20MOL    H55 6933   2.245   3.547   5.000 -0.5418  0.4164 -0.3554
   20MOL    C56 6934   2.298   3.989   5.320 -0.2273  0.0194 -0.1334
   20MOL    C57 6935   2.189   3.925   5.410 -0.2855 -0.2862  1.0639
   20MOL    C58 6936   2.095   4.024   5.468 -0.4218 -0.2108 -0.3670
   20MOL    C59 6937   1.975   4.060   5.375  0.8214 -0.1007 -0.2979
   20MOL    C60 6938   1.897   4.170   5.442 -0.3182 -0.2293 -0.3676
   20MOL    C61 6939   1.885   3.941   5.365 -0.3946 -0.6481  0.1012
   20MOL    H62 6940   2.258   4.074   5.264  0.8583  1.5505  1.3579
   20MOL    H63 6941   2.367   4.023   5.397  0.7605 -0.2149 -0.9017
   20MOL    H64 6942   2.130   3.851   5.357  1.9111  0.3457 -2.4192
   20MOL    H65 6943   2.047   4.000   5.563  0.4855  0.7591  0.3420
   20MOL    H66 6944   2.145   4.120   5.479  0.5361 -0.7500 -0.0551
   20MOL    H67 6945   2.003   4.097   5.277  4.5354  0.6558  0.9789
   20MOL    H68 6946   1.844   4.137   5.532  1.7331 -0.1295  0.9215
   20MOL    H69 6947   1.823   4.215   5.375 -1.2906  1.4060  1.7269
   20MOL    H70 6948   1.968   4.249   5.468 -0.5695  0.6027 -2.1448
   20MOL    H71 6949   1.838   3.911   5.459  0.5737 -1.7560  0.2500
   20MOL    H72 6950   1.919   3.855   5.308 -0.4089 -0.5093 -0.1164
   20MOL    H73 6951   1.791   3.960   5.313 -1.0126  0.2153  1.5076
   20MOL    C74 6952   2.259   3.844   5.521  0.2164 -0.5700  0.0960
   20MOL    C75 6953   2.183   3.723   5.587  0.6842  0.5941 -0.1855
   20MOL    C76 6954   2.224   3.709   5.733  0.1123  0.1259  0.3068
   20MOL    C77 6955   2.150   3.795   5.835  0.4016 -0.5047 -0.0683
   20MOL    C78 6956   2.233   3.822   5.960 -0.0302 -0.0700  0.7221
   20MOL    C79 6957   2.010   3.742   5.867 -0.5796  0.0110 -0.1229
   20MOL    H80 6958   2.277   3.921   5.596 -1.1652 -0.0841 -0.0496
   20MOL    H81 6959   2.360   3.808   5.502  0.0738  0.0230 -1.9033
   20MOL    H82 6960   2.077   3.749   5.582  0.5186  0.0717  0.4919
   20MOL    H83 6961   2.224   3.604   5.761 -2.3053  0.0514  0.1390
   20MOL    H84 6962   2.330   3.734   5.737  0.6312 -1.8003 -0.7959
   20MOL    H85 6963   2.124   3.892   5.793  1.2320  0.2250  1.0653
   20MOL    H86 6964   2.169   3.833   6.047  1.1308 -0.1451  1.6056
   20MOL    H87 6965   2.277   3.922   5.957  0.8512 -0.4665  0.2458
   20MOL    H88 6966   2.303   3.740   5.974 -0.7423 -0.5928  1.2470
   20MOL    H89 6967   1.953   3.721   5.777 -0.4207 -0.3508 -0.1369
   20MOL    H90 6968   2.011   3.651   5.927 -1.4809  0.4281  0.5519
   20MOL    H91 6969   1.956   3.819   5.923  0.1116  1.0361 -0.8634
   20MOL    C92 6970   2.202   3.586   5.514  0.3482 -0.4083  0.5930
   20MOL    C93 6971   2.099   3.472   5.546 -0.0035 -0.7708 -0.1649
   20MOL    C94 6972   1.993   3.446   5.433 -0.5431 -0.0954  0.1496
   20MOL    C95 6973   1.896   3.563   5.404  0.1977 -0.0520  0.2152
   20MOL    C96 6974   1.819   3.533   5.276  0.4006 -0.1235  0.2589
   20MOL    C97 6975   1.803   3.606   5.517 -0.2560  0.2538 -0.3001
   20MOL    H98 6976   2.200   3.614   5.409 -0.1285  0.8450  0.9229
   20MOL    H99 6977   2.308   3.571   5.529  0.1197 -0.8385  1.8756
   20MOL   H100 6978   2.033   3.506   5.625 -1.5798 -0.5954 -1.5207
   20MOL   H101 6979   1.936   3.356   5.457 -0.3188  0.0695  1.3195
   20MOL   H102 6980   2.047   3.407   5.346 -1.8208 -1.1596 -0.1906
   20MOL   H103 6981   1.955   3.649   5.372  0.1327 -0.1341 -0.1259
   20MOL   H104 6982   1.881   3.552   5.188  0.0258  0.1916  0.0618
   20MOL   H105 6983   1.739   3.606   5.270  1.7049  1.3425  0.3273
   20MOL   H106 6984   1.774   3.434   5.262 -3.3316  1.1360  2.6859
   20MOL   H107 6985   1.859   3.623   5.610  0.4751 -0.4128 -0.6116
   20MOL   H108 6986   1.735   3.528   5.550  1.1534 -0.2408  1.5613
   20MOL   H109 6987   1.752   3.700   5.496 -1.3215 -0.5768 -1.4333
   20MOL   C110 6988   2.170   3.347   5.608  0.5838 -0.2278 -1.1372
   20MOL   C111 6989   2.229   3.239   5.514  0.2075 -0.4887 -0.4990
   20MOL   C112 6990   2.325   3.295   5.400 -0.2556 -0.2475  0.1164
   20MOL   C113 6991   2.380   3.207   5.289  0.6492 -0.7127 -0.2587
   20MOL   C114 6992   2.449   3.288   5.175 -0.6713  0.2950 -0.3329
   20MOL   C115 6993   2.269   3.115   5.228  0.7658 -1.4233 -0.1028
   20MOL   H116 6994   2.115   3.309   5.694  2.4273  2.9064  1.5281
   20MOL   H117 6995   2.247   3.392   5.670  1.1815 -4.1250  1.1467
   20MOL   H118 6996   2.143   3.187   5.474 -1.0811  0.3850  1.0501
   20MOL   H119 6997   2.405   3.348   5.453  0.8779 -0.2974 -1.4910
   20MOL   H120 6998   2.283   3.379   5.344  1.1517  0.8623  0.6785
   20MOL   H121 6999   2.461   3.148   5.331  0.8659  1.3250  2.3690
   20MOL   H122 7000   2.381   3.367   5.142 -0.2851  0.6486 -0.2869
   20MOL   H123 7001   2.464   3.236   5.080  0.8357 -1.2080  0.7001
   20MOL   H124 7002   2.542   3.339   5.198 -0.6305 -0.3803  1.0197
   20MOL   H125 7003   2.304   3.074   5.133  0.2447 -0.3384 -0.7845
   20MOL   H126 7004   2.179   3.176   5.224  2.6193  1.5158  1.1513
   20MOL   H127 7005   2.253   3.029   5.292 -0.8313 -0.0401  1.3916
   20MOL   C128 7006   2.313   3.135   5.592  0.0352 -0.1222 -0.4456
   20MOL   C129 7007   2.250   3.046   5.699 -0.6324  0.6212 -0.3163
   20MOL   C130 7008   2.346   2.944   5.773  0.4193 -0.1697  0.0859
   20MOL   C131 7009   2.481   2.998   5.827  0.0491 -0.3617  0.4814
   20MOL   C132 7010   2.462   3.109   5.933 -0.4161 -0.7658  0.5226
   20MOL   C133 7011   2.561   2.883   5.897 -1.1027 -0.0378 -0.2156
   20MOL   H134 7012   2.399   3.183   5.638  1.0331 -0.5035 -1.8917
   20MOL   H135 7013   2.360   3.066   5.522  2.0671  2.7639 -1.9884
   20MOL   H136 7014   2.216   3.118   5.773 -0.2112  0.4338  0.0571
   20MOL   H137 7015   2.298   2.910   5.864 -3.6569 -0.1972 -1.9385
   20MOL   H138 7016   2.351   2.850   5.716  0.9927 -0.1117  0.0308
   20MOL   H139 7017   2.543   3.032   5.744  1.2678 -0.1653  1.4456
   20MOL   H140 7018   2.427   3.199   5.881  1.5692 -0.5869 -0.5408
   20MOL   H141 7019   2.557   3.143   5.973 -0.1841  0.2840 -0.8787
   20MOL   H142 7020   2.402   3.090   6.022  0.3166  0.9907  1.3942
   20MOL   H143 7021   2.522   2.842   5.990 -2.7592  0.6180 -0.6039
   20MOL   H144 7022   2.570   2.799   5.829 -0.1117 -0.7087  0.7092
   20MOL   H145 7023   2.663   2.916   5.919 -0.8515 -0.8826 -0.0822
   20MOL   C146 7024   2.120   2.978   5.643 -0.2853  0.1796  0.4462
   20MOL   C147 7025   2.046   2.884   5.730  0.5594 -0.8652 -0.0732
   20MOL   C148 7026   1.926   2.824   5.650 -0.3589  0.3418 -0.7732
   20MOL   C149 7027   1.925   2.669   5.637  0.5162 -0.0311  0.6053
   20MOL   C150 7028   1.789   2.611   5.598 -0.6004 -0.2494  0.5111
   20MOL   C151 7029   2.037   2.616   5.551 -0.7693  0.0133  0.1952
   20MOL   H152 7030   2.149   2.928   5.550  1.6190  1.9531  0.0445
   20MOL   H153 7031   2.049   3.056   5.617  0.1499  0.6680  0.7200
   20MOL   H154 7032   2.119   2.810   5.765  0.7352  0.0425  1.5307
   20MOL   H155 7033   1.832   2.858   5.694  0.5098  2.2905 -0.3760
   20MOL   H156 7034   1.919   2.871   5.552  0.4851 -1.7325 -1.8525
   20MOL   H157 7035   1.936   2.635   5.740 -1.2922 -0.9270  0.5349
   20MOL   H158 7036   1.734   2.648   5.512  1.7023  0.7882 -0.5677
   20MOL   H159 7037   1.720   2.629   5.680 -1.1770 -1.2708  0.2572
   20MOL   H160 7038   1.794   2.502   5.587 -0.3023 -0.1053 -0.9613
   20MOL   H161 7039   2.127   2.617   5.613 -1.6107  1.0579  1.4076
   20MOL   H162 7040   2.051   2.680   5.464 -0.4943 -0.1312  0.1324
   20MOL   H163 7041   2.032   2.510   5.525 -1.3471 -0.3441  1.7276
   20MOL   C164 7042   1.989   2.963   5.852  0.1884 -0.0130  0.3942
   20MOL   C165 7043   1.916   2.872   5.952 -0.0000  0.8570 -0.0960
   20MOL   C166 7044   2.016   2.773   6.025 -0.9926  0.0782 -0.9383
   20MOL   C167 7045   1.969   2.674   6.133 -0.5024 -0.0303 -0.3249
   20MOL   C168 7046   1.856   2.582   6.093  0.0970 -0.3666 -0.6032
   20MOL   C169 7047   2.086   2.582   6.170  0.9746  0.3219  0.2157
   20MOL   H170 7048   2.074   3.010   5.901 -0.3209  0.4155  0.8816
   20MOL   H171 7049   1.929   3.044   5.812 -0.2994  0.0188  1.1592
   20MOL   H172 7050   1.841   2.807   5.908  2.1894 -1.9465  0.1475
   20MOL   H173 7051   2.070   2.714   5.952 -1.1236  0.9610 -1.7547
   20MOL   H174 7052   2.093   2.827   6.079  0.2611 -1.0421 -1.5864
   20MOL   H175 7053   1.940   2.721   6.226 -0.6810 -1.4845  0.3679
   20MOL   H176 7054   1.863   2.525   6.001 -0.3397 -0.5063 -0.5501
   20MOL   H177 7055   1.766   2.643   6.092  1.4388  1.6551  0.3879
   20MOL   H178 7056   1.835   2.508   6.171  0.0945 -1.3396 -1.5139
   20MOL   H179 7057   2.112   2.513   6.091  0.1019 -0.6400  0.7588
   20MOL   H180 7058   2.062   2.519   6.256 -0.7334 -0.8296 -1.0781
   20MOL   H181 7059   2.174   2.639   6.201  0.7174  0.2261  1.1611
   20MOL   C182 7060   1.854   2.961   6.061 -0.0365  0.2528 -0.9468
   20MOL   C183 7061   1.722   3.037   6.028 -0.2767 -0.1227 -0.5298
   20MOL   C184 7062   1.593   2.945   6.011  0.1626 -0.2480  0.0218
   20MOL   C185 7063   1.548   2.891   5.872 -0.4054 -0.4984 -0.4160
   20MOL   C186 7064   1.428   2.798   5.886  0.1323  0.4859 -0.3036
   20MOL   C187 7065   1.511   3.015   5.793  0.5369  0.6757 -0.0837
   20MOL   H188 7066   1.930   3.014   6.117 -1.0070  2.3036 -1.5203
   20MOL   H189 7067   1.813   2.900   6.142  1.8397  1.8928  1.2837
   20MOL   H190 7068   1.738   3.088   5.933 -3.2789  3.1876  0.6504
   20MOL   H191 7069   1.502   2.995   6.044  0.6548 -0.7183  2.2228
   20MOL   H192 7070   1.597   2.863   6.083  0.0948 -2.0301 -1.9868
   20MOL   H193 7071   1.631   2.840   5.822 -2.0544 -2.6250 -1.0827
   20MOL   H194 7072   1.341   2.834   5.941  0.6321  0.3319  0.6069
   20MOL   H195 7073   1.461   2.711   5.943  0.5741  0.1442 -1.0789
   20MOL   H196 7074   1.397   2.763   5.788  0.2971 -1.8133  0.4280
   20MOL   H197 7075   1.594   3.086   5.795  0.1880  1.0722  2.5339
   20MOL   H198 7076   1.426   3.077   5.822  0.2392  0.3444 -0.2453
   20MOL   H199 7077   1.501   2.991   5.687  0.1799 -1.1712  0.3476
   20MOL   C200 7078   1.697   3.145   6.135 -0.3806 -0.6359  0.5403
   20MOL   C201 7079   1.616   3.275   6.091  0.7365 -0.1488  0.2044
   20MOL   C202 7080   1.694   3.386   6.025  0.2058  0.1284  0.3697
   20MOL   C203 7081   1.607   3.494   5.954 -0.2471  0.0906  0.0185
   20MOL   C204 7082   1.652   3.638   5.990  0.4932 -0.3050 -0.0013
   20MOL   C205 7083   1.612   3.471   5.797  0.2954 -0.0428  0.0767
   20MOL   H206 7084   1.801   3.178   6.148 -0.5907  1.6627 -2.8761
   20MOL   H207 7085   1.663   3.108   6.232  0.3882  0.4927  1.2566
   20MOL   H208 7086   1.543   3.262   6.011  1.2004  2.6329 -0.7022
   20MOL   H209 7087   1.757   3.428   6.104  0.2749 -0.0806  0.4265
   20MOL   H210 7088   1.763   3.340   5.953 -1.1478  0.9658 -1.5081
   20MOL   H211 7089   1.505   3.478   5.989 -0.6036 -0.7758 -1.4040
   20MOL   H212 7090   1.565   3.704   5.985 -0.3215 -1.4753 -2.1651
   20MOL   H213 7091   1.735   3.675   5.931  2.5179 -0.3278  2.7353
   20MOL   H214 7092   1.698   3.651   6.088 -0.0022  0.1744  0.1658
   20MOL   H215 7093   1.719   3.463   5.775  0.3285 -0.5751  0.4328
   20MOL   H216 7094   1.566   3.549   5.736 -0.1237  0.0776  0.5447
   20MOL   H217 7095   1.571   3.373   5.774  2.7334 -1.4786  1.6586
   20MOL   C218 7096   1.542   3.336   6.217  0.2324 -0.2657  0.1021
   20MOL   C219 7097   1.416   3.255   6.261  1.0079 -0.1469 -0.6007
   20MOL   C220 7098   1.295   3.305   6.174  0.1144 -0.8227 -0.4477
   20MOL   C221 7099   1.167   3.216   6.189 -0.8322  0.3328  0.3075
   20MOL   C222 7100   1.036   3.294   6.151 -0.6107 -0.1000  0.1233
   20MOL   C223 7101   1.179   3.083   6.117 -0.4241 -0.1767  0.2242
   20MOL   H224 7102   1.613   3.352   6.298  0.2215  2.3699 -0.3545
   20MOL   H225 7103   1.506   3.437   6.195  2.1379  0.4503  0.0908
   20MOL   H226 7104   1.427   3.150   6.234 -2.0854 -0.5832 -0.3054
   20MOL   H227 7105   1.265   3.408   6.194  0.0693 -1.1796  1.4715
   20MOL   H228 7106   1.323   3.297   6.069  1.9900  1.3485 -0.1357
   20MOL   H229 7107   1.151   3.188   6.293 -2.0191  0.8701  0.2796
   20MOL   H230 7108   0.949   3.245   6.196 -1.2559  0.4645 -0.4969
   20MOL   H231 7109   1.053   3.394   6.190 -2.7142  0.0495  0.7015
   20MOL   H232 7110   1.049   3.301   6.043  0.1242  0.3772  0.2428
   20MOL   H233 7111   1.215   3.097   6.015 -1.5483 -0.7426 -0.2507
   20MOL   H234 7112   1.249   3.008   6.154 -0.2773 -0.6088 -0.9161
   20MOL   H235 7113   1.084   3.030   6.122 -1.5483  1.8688  1.4773
   20MOL   C236 7114   1.390   3.263   6.415 -0.0611 -0.0093 -0.2701
   20MOL   C237 7115   1.477   3.166   6.497 -0.6061 -0.0533  0.2176
   20MOL   C238 7116   1.416   3.029   6.467 -0.7394  0.1274  0.1827
   20MOL   C239 7117   1.517   2.928   6.403 -0.0199 -1.0392  0.4782
   20MOL   C240 7118   1.647   2.911   6.485 -0.2067  0.0756 -0.6715
   20MOL   C241 7119   1.455   2.792   6.371  0.1360 -0.2566  0.0729
   20MOL   H242 7120   1.286   3.247   6.443 -0.9690  0.4039 -3.3068
   20MOL   H243 7121   1.401   3.365   6.449 -0.5529 -0.3877  1.0690
   20MOL   H244 7122   1.577   3.172   6.456 -1.0305  1.8307 -0.5947
   20MOL   H245 7123   1.325   3.035   6.408 -0.0521 -2.3363 -1.1887
   20MOL   H246 7124   1.368   3.000   6.560 -0.0303  1.6376  1.0546
   20MOL   H247 7125   1.550   2.970   6.308 -1.8041  0.9166  0.6895
   20MOL   H248 7126   1.703   2.824   6.451 -1.3739 -1.2085  0.6290
   20MOL   H249 7127   1.635   2.898   6.592 -0.0126 -2.0116 -0.8901
   20MOL   H250 7128   1.717   2.994   6.478  0.8430 -0.3888  3.2755
   20MOL   H251 7129   1.537   2.731   6.334  0.5470 -0.6623  1.6029
   20MOL   H252 7130   1.377   2.802   6.295 -0.0517 -2.0340  0.0251
   20MOL   H253 7131   1.423   2.733   6.457  1.8141 -1.5120 -0.1612
   20MOL   C254 7132   1.482   3.205   6.645  0.2158  0.3774  0.1171
   20MOL   C255 7133   1.597   3.295   6.705  0.6108 -0.1753  0.4351
   20MOL   C256 7134   1.742   3.248   6.665  0.4575  0.4492  0.7314
   20MOL   C257 7135   1.803   3.132   6.736 -0.2432  0.2613 -0.0990
   20MOL   C258 7136   1.835   3.169   6.885 -0.7268  0.1170  0.2424
   20MOL   C259 7137   1.934   3.104   6.665  0.1000 -0.1919 -0.0111
   20MOL   H260 7138   1.385   3.249   6.667  0.0027 -1.0680  2.1544
   20MOL   H261 7139   1.492   3.116   6.706  0.5026  1.3518  1.5169
   20MOL   H262 7140   1.602   3.290   6.814  2.2583  1.9416  0.4923
   20MOL   H263 7141   1.796   3.343   6.671  1.6757 -0.1913 -0.0081
   20MOL   H264 7142   1.749   3.241   6.557 -3.4609  1.0979  0.3747
   20MOL   H265 7143   1.742   3.042   6.733  0.3425 -0.1176 -0.7586
   20MOL   H266 7144   1.889   3.262   6.906 -2.3317  1.0332  0.3714
   20MOL   H267 7145   1.894   3.087   6.926 -1.5680 -0.0218  1.1744
   20MOL   H268 7146   1.745   3.184   6.943 -1.2647 -3.4680  0.4263
   20MOL   H269 7147   1.928   3.076   6.559 -2.6675  0.9055 -0.1936
   20MOL   H270 7148   1.999   3.190   6.678 -0.5597  0.7692 -2.5967
   20MOL   H271 7149   1.998   3.031   6.714  1.3553  0.0710 -1.2342
   20MOL   C272 7150   1.572   3.443   6.680 -0.2862  0.9843  0.6024
   20MOL   C273 7151   1.440   3.505   6.725 -0.4014 -0.7317 -0.6351
   20MOL   C274 7152   1.405   3.469   6.873 -0.3878  0.1418 -0.0745
   20MOL   C275 7153   1.276   3.524   6.939 -0.0861 -0.4959 -0.6094
   20MOL   C276 7154   1.257   3.458   7.083  0.0743 -0.2460 -0.3114
   20MOL   C277 7155   1.153   3.496   6.842 -0.1779 -0.0179 -0.6896
   20MOL   H278 7156   1.650   3.497   6.734  0.8678  2.4238 -2.3345
   20MOL   H279 7157   1.602   3.461   6.576  0.4755 -0.0603  0.6403
   20MOL   H280 7158   1.363   3.477   6.653 -0.0767 -0.1672 -1.2172
   20MOL   H281 7159   1.483   3.526   6.924 -0.2344  1.8756 -2.1357
   20MOL   H282 7160   1.400   3.361   6.889 -1.7561 -0.1277 -2.1322
   20MOL   H283 7161   1.279   3.631   6.956  1.6100 -0.7167  0.6628
   20MOL   H284 7162   1.158   3.481   7.122  1.0144  1.5743  1.0080
   20MOL   H285 7163   1.267   3.349   7.077 -0.9503 -0.4236  0.9974
   20MOL   H286 7164   1.322   3.491   7.163  0.7171 -1.4333 -0.3268
   20MOL   H287 7165   1.170   3.394   6.807 -0.5399 -1.0333  2.0103
   20MOL   H288 7166   1.058   3.478   6.893 -1.3198  0.3622 -2.6086
   20MOL   H289 7167   1.137   3.561   6.756 -0.4069  0.0931 -0.5627
   20MOL   C290 7168   1.451   3.664   6.716  0.7523 -1.2346 -0.2808
   20MOL   C291 7169   1.483   3.729   6.575  0.2675  0.4002 -0.0292
   20MOL   C292 7170   1.347   3.725   6.496  0.3542  0.6367 -0.1360
   20MOL   C293 7171   1.344   3.816   6.371  1.0282 -0.1091  0.4647
   20MOL   C294 7172   1.454   3.782   6.272  1.0256  0.4887 -0.5382
   20MOL   C295 7173   1.212   3.816   6.307  0.5980 -0.5411  0.4601
   20MOL   H296 7174   1.360   3.714   6.749  0.3949  0.2103 -3.3097
   20MOL   H297 7175   1.532   3.687   6.785 -0.3490 -1.7663  1.2082
   20MOL   H298 7176   1.550   3.661   6.523  0.7046 -1.9422  3.4500
   20MOL   H299 7177   1.265   3.754   6.562  0.2242 -0.1337  0.0411
   20MOL   H300 7178   1.323   3.623   6.469  1.4726 -0.9271  4.4460
   20MOL   H301 7179   1.358   3.918   6.407  0.6521  0.6147 -1.3962
   20MOL   H302 7180   1.448   3.677   6.242 -2.2469  0.0502  1.3738
   20MOL   H303 7181   1.555   3.796   6.312  0.3372 -1.1822  1.9649
   20MOL   H304 7182   1.450   3.842   6.182  1.7718  2.1564  0.5155
   20MOL   H305 7183   1.187   3.727   6.250 -0.6111  0.2787 -0.3067
   20MOL   H306 7184   1.207   3.895   6.231 -1.5519 -0.2950  0.8364
   20MOL   H307 7185   1.121   3.822   6.367 -0.3403 -1.3402 -0.8576
   20MOL   C308 7186   1.531   3.878   6.590 -0.6560 -0.0272  0.2397
   20MOL   C309 7187   1.672   3.890   6.662 -0.7965  0.1853 -1.0540
   20MOL   C310 7188   1.777   3.836   6.568  0.1265 -0.8573  0.5790
   20MOL   C311 7189   1.839   3.706   6.611 -0.0150 -0.7163  0.1512
   20MOL   C312 7190   1.943   3.666   6.508  0.0304  0.6094  0.9082
   20MOL   C313 7191   1.897   3.704   6.758  0.0001  0.0345  0.3596
   20MOL   H314 7192   1.536   3.935   6.498 -0.6168 -1.5606 -0.7174
   20MOL   H315 7193   1.461   3.935   6.652  0.8668 -0.2426  2.2083
   20MOL   H316 7194   1.660   3.834   6.754  1.6490  0.9257 -0.2528
   20MOL   H317 7195   1.845   3.914   6.536 -0.5147 -0.9697 -1.0892
   20MOL   H318 7196   1.718   3.807   6.481 -1.6931  1.5745  0.9542
   20MOL   H319 7197   1.765   3.627   6.601 -1.7657  0.9661 -0.5119
   20MOL   H320 7198   1.962   3.558   6.511  0.4099  0.6390 -0.2873
   20MOL   H321 7199   2.038   3.717   6.523  1.2632 -0.3615 -2.9982
   20MOL   H322 7200   1.921   3.695   6.406 -2.2872 -0.7080  1.0065
   20MOL   H323 7201   1.945   3.609   6.783  1.0216  0.3364 -0.4397
   20MOL   H324 7202   1.968   3.784   6.777 -1.0600  1.0472  0.1062
   20MOL   H325 7203   1.827   3.736   6.835  1.6393  2.5026  0.9102
   20MOL   C326 7204   1.715   4.030   6.715  0.5948 -0.5593  0.5417
   20MOL   C327 7205   1.615   4.091   6.819  0.0030 -0.4667  0.3928
   20MOL   C328 7206   1.662   4.232   6.871 -0.1149 -0.5960  0.0642
   20MOL   C329 7207   1.724   4.333   6.772 -0.4537  0.4041 -0.1472
   20MOL   C330 7208   1.640   4.376   6.656 -0.1379 -0.4157 -0.5747
   20MOL   C331 7209   1.761   4.461   6.854 -0.6539  0.6401  0.0068
   20MOL   H332 7210   1.746   4.093   6.632 -0.2589 -0.7652  0.0557
   20MOL   H333 7211   1.805   4.005   6.772 -0.0621 -2.5618  0.7684
   20MOL   H334 7212   1.535   4.131   6.757  0.1481 -1.0774 -0.2006
   20MOL   H335 7213   1.586   4.271   6.939  0.8386  4.5778 -1.6757
   20MOL   H336 7214   1.746   4.222   6.940 -0.0425  1.2913  0.2776
   20MOL   H337 7215   1.817   4.287   6.738 -0.2723 -0.2394  1.1595
   20MOL   H338 7216   1.697   4.442   6.591 -0.4963 -0.7721 -1.2608
   20MOL   H339 7217   1.548   4.428   6.684  0.0901  0.2035 -0.9550
   20MOL   H340 7218   1.616   4.288   6.596  0.7584  0.0298 -1.5991
   20MOL   H341 7219   1.830   4.451   6.938  0.3461 -0.3716 -0.9138
   20MOL   H342 7220   1.807   4.535   6.788 -1.1226  1.7539  0.8996
   20MOL   H343 7221   1.676   4.515   6.896 -0.2820  0.2770  1.2647
   20MOL   C344 7222   1.559   4.005   6.934  0.7096  0.4396  0.3033
   20MOL   C345 7223   1.664   3.938   7.018  0.1625 -0.1489  0.1728
   20MOL   C346 7224   1.594   3.829   7.106 -0.0130  0.0864 -0.0349
   20MOL   C347 7225   1.682   3.760   7.211 -0.1646  0.2222 -0.0538
   20MOL   C348 7226   1.770   3.653   7.141  0.6959  0.8501  0.2206
   20MOL   C349 7227   1.605   3.721   7.346  0.4310  0.0552 -0.3804
   20MOL   H350 7228   1.482   3.943   6.888 -0.0848  1.9463 -0.4446
   20MOL   H351 7229   1.501   4.076   6.994  1.5204 -0.1717  1.8459
   20MOL   H352 7230   1.694   4.021   7.082 -2.5870  1.2836 -0.2808
   20MOL   H353 7231   1.507   3.868   7.159  1.8265  2.4811  1.3004
   20MOL   H354 7232   1.543   3.753   7.046 -0.2498 -0.3928  0.7669
   20MOL   H355 7233   1.751   3.838   7.242  1.4413 -1.9448  2.0288
   20MOL   H356 7234   1.855   3.633   7.206  0.4527 -0.0460  0.2604
   20MOL   H357 7235   1.714   3.569   7.100 -0.7436  1.2693  1.2998
   20MOL   H358 7236   1.831   3.690   7.058  0.9103  2.4364  1.0617
   20MOL   H359 7237   1.578   3.814   7.394 -1.6282 -0.5047 -0.4174
   20MOL   H360 7238   1.666   3.661   7.413  0.9847  0.1794 -0.7678
   20MOL   H361 7239   1.511   3.674   7.318  0.9570 -0.7976 -0.7601
   20MOL   H362 7240   1.760   3.906   6.978  0.5532 -0.8778  1.6593
   21MOL     C1 7241   5.522   0.933   1.381  0.2832 -0.1120  0.7632
   21MOL     C2 7242   5.430   1.037   1.322 -0.6186  0.4296  0.2476
   21MOL     C3 7243   5.296   1.027   1.385  0.1580  0.8058 -0.1158
   21MOL     C4 7244   5.290   1.101   1.520  0.2256 -0.6206 -0.4583
   21MOL     C5 7245   5.163   1.064   1.600  0.2779 -0.2183  0.3697
   21MOL     C6 7246   5.295   1.253   1.487 -0.0857  0.1077 -0.3022
   21MOL     H7 7247   5.629   0.937   1.361  1.0766 -3.6365  3.7765
   21MOL     H8 7248   5.520   0.931   1.490 -0.3262 -2.0914  0.7409
   21MOL     H9 7249   5.485   1.128   1.344 -0.2674  0.1262  0.6513
   21MOL    H10 7250   5.213   1.065   1.326 -1.1611  0.0818  1.2233
   21MOL    H11 7251   5.266   0.922   1.397  1.2815  0.5739  0.6972
   21MOL    H12 7252   5.374   1.085   1.588 -0.5557  0.0352  0.6725
   21MOL    H13 7253   5.068   1.084   1.550  0.4648 -0.1622  0.0378
   21MOL    H14 7254   5.164   0.960   1.633 -1.7342 -0.7115 -0.9883
   21MOL    H15 7255   5.149   1.109   1.698 -2.7121  2.0496 -1.0264
   21MOL    H16 7256   5.375   1.291   1.424 -0.2031  1.7766  0.5314
   21MOL    H17 7257   5.315   1.311   1.577 -1.9153 -1.4087  1.1341
   21MOL    H18 7258   5.202   1.295   1.448 -0.3831 -1.2579 -1.0722
   21MOL    H19 7259   5.504   0.831   1.347 -1.4239  0.6641 -0.7653
   21MOL    C20 7260   5.424   1.019   1.179  0.1496 -0.1106 -0.3217
   21MOL    C21 7261   5.371   1.144   1.097  0.2529 -0.7889  0.5709
   21MOL    C22 7262   5.446   1.276   1.121 -0.4933 -0.5130  0.2616
   21MOL    C23 7263   5.601   1.275   1.099  0.1719 -0.4242 -0.2722
   21MOL    C24 7264   5.644   1.249   0.953  0.7264 -0.2430 -0.0298
   21MOL    C25 7265   5.659   1.419   1.130  0.2345  0.1059 -0.3699
   21MOL    H26 7266   5.526   0.995   1.150  1.6636  1.3066  3.5209
   21MOL    H27 7267   5.350   0.940   1.167  0.1134 -0.2161  0.5617
   21MOL    H28 7268   5.276   1.156   1.151 -1.0033 -1.6870 -1.3922
   21MOL    H29 7269   5.434   1.297   1.227 -0.1282 -0.5953  0.3206
   21MOL    H30 7270   5.404   1.349   1.052  2.1847  1.1122  0.2822
   21MOL    H31 7271   5.647   1.201   1.165 -2.7987 -0.5938  1.6915
   21MOL    H32 7272   5.646   1.140   0.946 -0.1691 -0.1616 -2.2974
   21MOL    H33 7273   5.739   1.297   0.929 -0.2784  2.0348  0.4673
   21MOL    H34 7274   5.572   1.292   0.883  0.2278 -0.7249  0.1862
   21MOL    H35 7275   5.764   1.437   1.105  0.7988  1.7290  2.8551
   21MOL    H36 7276   5.602   1.486   1.066  1.0669 -0.5776 -1.8363
   21MOL    H37 7277   5.642   1.435   1.237  0.7039 -0.5325 -0.1969
   21MOL    C38 7278   5.353   1.118   0.950  0.0026  0.2843  0.4256
   21MOL    C39 7279   5.210   1.060   0.924 -0.0462  0.7420 -0.5942
   21MOL    C40 7280   5.198   1.015   0.772 -0.2157  0.0864  0.3579
   21MOL    C41 7281   5.076   0.923   0.744 -0.6419 -0.2130 -0.2215
   21MOL    C42 7282   5.104   0.781   0.811 -0.1899 -0.4351  0.3927
   21MOL    C43 7283   5.060   0.912   0.593 -0.1057 -0.3302 -0.1194
   21MOL    H44 7284   5.441   1.062   0.918 -0.7926 -0.1870 -0.9981
   21MOL    H45 7285   5.363   1.211   0.894  1.7733  1.2330  2.2710
   21MOL    H46 7286   5.195   0.969   0.982  1.1526  1.6312  1.1344
   21MOL    H47 7287   5.294   0.970   0.746 -0.3292 -1.3434  2.3475
   21MOL    H48 7288   5.201   1.099   0.703  1.1103  1.2253  1.7587
   21MOL    H49 7289   4.991   0.983   0.776  0.3749  0.2745  1.6592
   21MOL    H50 7290   5.195   0.730   0.779 -0.4287  0.0934 -1.1785
   21MOL    H51 7291   5.099   0.793   0.919 -1.7987 -0.7008  0.3576
   21MOL    H52 7292   5.021   0.715   0.786  0.9852 -1.2092 -1.6165
   21MOL    H53 7293   5.146   0.857   0.554  1.1897  1.0882  0.6815
   21MOL    H54 7294   5.043   1.005   0.539 -0.3542 -0.1660  0.2411
   21MOL    H55 7295   4.975   0.847   0.569 -0.6970  0.2420  0.4078
   21MOL    C56 7296   5.091   1.162   0.960 -0.0562  0.0826  0.5616
   21MOL    C57 7297   4.986   1.127   1.062 -0.1145  0.1825 -0.4526
   21MOL    C58 7298   4.946   0.976   1.070  0.3978 -0.4616  0.2934
   21MOL    C59 7299   4.844   0.938   1.179 -1.3014 -0.7227 -0.5503
   21MOL    C60 7300   4.881   0.983   1.314 -0.7759 -0.0258 -0.8034
   21MOL    C61 7301   4.821   0.791   1.175 -0.3330  0.0902  0.6294
   21MOL    H62 7302   5.035   1.180   0.868  1.7729  1.4900 -0.3067
   21MOL    H63 7303   5.133   1.262   0.969  1.1465 -0.1294 -2.0811
   21MOL    H64 7304   5.038   1.140   1.157 -1.0029  0.9251 -0.0668
   21MOL    H65 7305   4.911   0.939   0.974 -0.9449 -0.9070  0.9438
   21MOL    H66 7306   5.031   0.914   1.096  0.0464  0.0184  2.7072
   21MOL    H67 7307   4.749   0.985   1.152  0.1806  1.6783 -1.7201
   21MOL    H68 7308   4.870   1.090   1.326 -0.1619 -0.2514  2.0595
   21MOL    H69 7309   4.985   0.958   1.339 -1.0455 -1.5977 -1.1734
   21MOL    H70 7310   4.819   0.938   1.391 -0.1711 -1.9884 -1.4311
   21MOL    H71 7311   4.749   0.742   1.241 -0.6960 -1.8827 -1.1659
   21MOL    H72 7312   4.911   0.731   1.190 -0.1507 -0.6719 -3.0275
   21MOL    H73 7313   4.790   0.758   1.076 -0.9424  0.0028  0.8500
   21MOL    C74 7314   4.867   1.226   1.061 -0.0115 -0.0795 -0.2464
   21MOL    C75 7315   4.885   1.385   1.059  0.1739  0.0026 -0.0423
   21MOL    C76 7316   4.963   1.431   1.183  0.7956  0.1974  0.5696
   21MOL    C77 7317   5.038   1.562   1.170 -0.5403  0.3164 -1.0878
   21MOL    C78 7318   5.171   1.538   1.101  0.3851  0.4138  0.2011
   21MOL    C79 7319   5.080   1.608   1.319  0.1664  0.6010 -0.0219
   21MOL    H80 7320   4.824   1.211   1.160  0.0288 -1.0362 -0.3697
   21MOL    H81 7321   4.795   1.183   0.991 -0.2382  3.0308 -2.0063
   21MOL    H82 7322   4.942   1.422   0.974  0.7770  1.5442  1.0246
   21MOL    H83 7323   4.890   1.431   1.264 -1.8341  1.0512 -1.7419
   21MOL    H84 7324   5.037   1.358   1.218 -0.8431 -2.1127 -0.6309
   21MOL    H85 7325   4.984   1.641   1.118 -1.3886  0.6135  0.2471
   21MOL    H86 7326   5.234   1.627   1.092  1.9854 -0.5355  1.5700
   21MOL    H87 7327   5.143   1.505   1.001 -0.2979 -2.6564  1.3539
   21MOL    H88 7328   5.227   1.457   1.148 -1.4571 -0.8551  0.2515
   21MOL    H89 7329   5.152   1.689   1.314  1.4764 -0.5859 -0.7532
   21MOL    H90 7330   4.992   1.644   1.372 -0.4642  0.3432 -0.8837
   21MOL    H91 7331   5.130   1.530   1.376 -0.2177  0.5872  0.2936
   21MOL    C92 7332   4.750   1.446   1.041 -0.8418  0.2123  0.5189
   21MOL    C93 7333   4.729   1.515   0.906  0.3642 -0.1302 -0.1936
   21MOL    C94 7334   4.703   1.429   0.779 -0.5753 -0.6280  0.1573
   21MOL    C95 7335   4.824   1.379   0.698 -0.4524  0.2185  0.2573
   21MOL    C96 7336   4.804   1.241   0.630  0.0129 -0.6816 -0.4860
   21MOL    C97 7337   4.867   1.477   0.594 -0.4483 -0.0118  0.6698
   21MOL    H98 7338   4.665   1.384   1.070 -0.5455 -0.2550  0.3969
   21MOL    H99 7339   4.739   1.515   1.124  0.0661  0.3861  0.4931
   21MOL   H100 7340   4.817   1.576   0.887 -1.0832  2.3057  0.6809
   21MOL   H101 7341   4.634   1.487   0.717 -0.4125 -2.3247 -1.6998
   21MOL   H102 7342   4.654   1.336   0.808  0.0219 -0.6137  1.2255
   21MOL   H103 7343   4.913   1.366   0.760 -0.1653  1.3703  0.1041
   21MOL   H104 7344   4.706   1.226   0.583 -0.2793 -1.1851  0.2704
   21MOL   H105 7345   4.803   1.165   0.708 -1.3544  0.0790  0.2692
   21MOL   H106 7346   4.889   1.223   0.565 -1.1167 -2.1002 -1.6039
   21MOL   H107 7347   4.951   1.437   0.536 -1.5648 -1.3802 -0.0286
   21MOL   H108 7348   4.895   1.570   0.644  3.1818 -0.7319  0.1518
   21MOL   H109 7349   4.786   1.506   0.528  0.1909 -0.4215 -0.3169
   21MOL   C110 7350   4.603   1.604   0.927  0.8300  0.7815  0.2139
   21MOL   C111 7351   4.619   1.733   1.003 -0.3368 -0.1583  0.0117
   21MOL   C112 7352   4.683   1.835   0.902  0.5686  0.2509  0.2133
   21MOL   C113 7353   4.759   1.955   0.973  0.4041  0.4617 -0.3708
   21MOL   C114 7354   4.762   2.082   0.882 -0.7900  0.1169 -0.0752
   21MOL   C115 7355   4.900   1.892   1.014 -0.2533  0.2465 -0.2023
   21MOL   H116 7356   4.544   1.541   0.994 -1.2541  1.7995 -0.6309
   21MOL   H117 7357   4.541   1.632   0.842 -0.0029 -0.2390  0.4755
   21MOL   H118 7358   4.683   1.713   1.089  0.6669 -1.4789 -1.0163
   21MOL   H119 7359   4.605   1.881   0.841 -0.4002 -1.4674  0.1102
   21MOL   H120 7360   4.743   1.782   0.829 -1.9253 -1.2412 -0.8343
   21MOL   H121 7361   4.716   1.984   1.069  0.0507  0.2725 -0.4714
   21MOL   H122 7362   4.829   2.079   0.796 -1.5518 -1.0320 -0.6375
   21MOL   H123 7363   4.787   2.174   0.934  0.4745 -0.6654  0.7424
   21MOL   H124 7364   4.665   2.109   0.842 -0.7458 -0.1304 -0.3539
   21MOL   H125 7365   4.958   1.858   0.928 -0.4944 -0.1014 -0.2264
   21MOL   H126 7366   4.885   1.816   1.090  2.9595  2.1355  2.4610
   21MOL   H127 7367   4.961   1.958   1.076  1.4940 -1.7995  0.3138
   21MOL   C128 7368   4.485   1.785   1.056  0.8286  0.1743 -0.6404
   21MOL   C129 7369   4.453   1.717   1.192 -0.0423  0.2545 -1.0974
   21MOL   C130 7370   4.304   1.704   1.221 -0.8226  0.3189  0.2989
   21MOL   C131 7371   4.234   1.571   1.187 -0.5930 -0.4071 -0.7997
   21MOL   C132 7372   4.102   1.565   1.258 -0.4738  0.2710 -0.4349
   21MOL   C133 7373   4.233   1.540   1.040 -0.0039 -0.7569  0.6281
   21MOL   H134 7374   4.405   1.764   0.984  1.6736 -1.1990 -1.2174
   21MOL   H135 7375   4.472   1.892   1.070  1.8342  0.2769 -0.4921
   21MOL   H136 7376   4.500   1.620   1.207  0.1923  0.7444  1.4814
   21MOL   H137 7377   4.287   1.724   1.326 -1.9900 -0.8519  0.3454
   21MOL   H138 7378   4.253   1.780   1.161  1.9062  0.3377 -2.1532
   21MOL   H139 7379   4.299   1.496   1.231 -1.4094 -1.5079 -1.4409
   21MOL   H140 7380   4.048   1.471   1.244 -1.2656  0.9389 -1.9963
   21MOL   H141 7381   4.039   1.644   1.218 -1.2775  0.0374  0.3539
   21MOL   H142 7382   4.118   1.591   1.363  2.9163 -0.0754 -0.8121
   21MOL   H143 7383   4.172   1.614   0.988 -2.1048 -1.3630  2.1527
   21MOL   H144 7384   4.333   1.548   0.996 -0.1973  0.9589  0.4831
   21MOL   H145 7385   4.180   1.448   1.017  0.9290 -0.7263 -1.7776
   21MOL   C146 7386   4.514   1.805   1.308  0.1009  0.5325  0.3983
   21MOL   C147 7387   4.530   1.721   1.432  0.0544 -0.5201  0.1024
   21MOL   C148 7388   4.524   1.812   1.557 -0.2736 -0.2435  0.7992
   21MOL   C149 7389   4.379   1.854   1.612 -0.1355 -0.5073  0.3633
   21MOL   C150 7390   4.323   1.742   1.696 -0.4948 -0.1710  0.8091
   21MOL   C151 7391   4.391   1.986   1.690 -0.0437  0.3295  0.8948
   21MOL   H152 7392   4.458   1.899   1.315 -1.1766 -0.2660  1.2804
   21MOL   H153 7393   4.616   1.838   1.288  0.7875 -1.8142 -0.0720
   21MOL   H154 7394   4.446   1.653   1.446 -0.7343  0.2139 -0.9732
   21MOL   H155 7395   4.574   1.758   1.637 -1.0121 -0.2082  1.2801
   21MOL   H156 7396   4.577   1.906   1.540 -0.6350  0.2641  2.4124
   21MOL   H157 7397   4.317   1.863   1.523 -0.2474 -2.1851  0.2556
   21MOL   H158 7398   4.216   1.751   1.717 -0.3698 -0.8571  1.7810
   21MOL   H159 7399   4.372   1.740   1.794 -1.1535  2.1043  1.2220
   21MOL   H160 7400   4.334   1.645   1.648  1.5369  0.0447  0.8034
   21MOL   H161 7401   4.493   1.990   1.731  0.0296 -0.3695  0.7925
   21MOL   H162 7402   4.319   2.000   1.770 -0.3514  2.0526  0.3393
   21MOL   H163 7403   4.375   2.070   1.623 -0.3494  0.1936  0.7980
   21MOL   C164 7404   4.666   1.644   1.419 -0.0338  0.2253  0.8140
   21MOL   C165 7405   4.667   1.513   1.503  0.5008 -0.3995  0.3929
   21MOL   C166 7406   4.619   1.394   1.416 -0.3048  0.5251 -0.2732
   21MOL   C167 7407   4.548   1.277   1.484  0.2738 -0.1165 -0.8133
   21MOL   C168 7408   4.409   1.303   1.539  0.1830 -0.4867 -0.0712
   21MOL   C169 7409   4.530   1.167   1.388 -0.4487  0.1185  0.0741
   21MOL   H170 7410   4.686   1.626   1.313 -2.3012  3.5885 -0.2608
   21MOL   H171 7411   4.739   1.717   1.455  1.5471  0.8654 -3.3276
   21MOL   H172 7412   4.585   1.530   1.572  0.4836 -0.6109  0.4243
   21MOL   H173 7413   4.543   1.437   1.351 -0.3728  3.3027  1.5702
   21MOL   H174 7414   4.706   1.364   1.357 -0.1094  0.5959 -0.0222
   21MOL   H175 7415   4.603   1.234   1.568 -1.5916 -0.7832  0.1019
   21MOL   H176 7416   4.407   1.398   1.593 -0.9025  0.0436 -1.0091
   21MOL   H177 7417   4.385   1.221   1.606 -1.3009 -3.8484 -4.4670
   21MOL   H178 7418   4.334   1.299   1.460 -0.0200 -1.1049  0.1549
   21MOL   H179 7419   4.620   1.134   1.336 -1.2219 -2.5972  0.4196
   21MOL   H180 7420   4.461   1.202   1.311 -1.7255 -0.9036  0.7368
   21MOL   H181 7421   4.488   1.079   1.437  2.5058 -0.7667  1.1019
   21MOL   C182 7422   4.801   1.480   1.579 -0.0742 -0.1497 -0.3781
   21MOL   C183 7423   4.796   1.500   1.735 -0.4531  0.2421 -0.0615
   21MOL   C184 7424   4.734   1.379   1.820  0.2645 -0.3977  0.0899
   21MOL   C185 7425   4.668   1.410   1.952  0.3518  0.0473 -0.0569
   21MOL   C186 7426   4.526   1.469   1.936 -0.3550 -0.4936  0.2386
   21MOL   C187 7427   4.656   1.281   2.041  0.2591 -0.5458 -0.0577
   21MOL   H188 7428   4.878   1.543   1.534 -1.1927  2.9556  1.8504
   21MOL   H189 7429   4.834   1.378   1.559 -2.2344 -0.5161 -2.2151
   21MOL   H190 7430   4.733   1.588   1.748  1.8594  1.8496  0.5380
   21MOL   H191 7431   4.820   1.318   1.848 -0.0577 -0.2282  1.4837
   21MOL   H192 7432   4.667   1.316   1.762 -0.1286  0.2493 -0.1598
   21MOL   H193 7433   4.722   1.483   2.013 -1.2751 -0.7700  2.4611
   21MOL   H194 7434   4.493   1.493   2.037  2.0834 -0.1135  0.9731
   21MOL   H195 7435   4.459   1.401   1.885  0.0287 -0.2689 -0.5740
   21MOL   H196 7436   4.516   1.561   1.877  1.1841 -0.9723 -0.8076
   21MOL   H197 7437   4.649   1.301   2.148 -0.6761 -0.8348 -0.0654
   21MOL   H198 7438   4.743   1.215   2.035  0.6778  0.0818 -1.0524
   21MOL   H199 7439   4.573   1.216   2.014  1.2675 -1.5508 -0.8050
   21MOL   C200 7440   4.931   1.535   1.802  0.1737 -0.0614  0.1947
   21MOL   C201 7441   4.989   1.671   1.767 -0.2756 -0.1066  0.3035
   21MOL   C202 7442   5.126   1.688   1.837  0.7442  0.2524 -0.0866
   21MOL   C203 7443   5.237   1.587   1.799 -0.0746  0.3021  0.5427
   21MOL   C204 7444   5.248   1.584   1.646 -0.0045 -0.6114  0.6055
   21MOL   C205 7445   5.356   1.623   1.881 -0.1119 -0.2358 -0.0521
   21MOL   H206 7446   4.999   1.453   1.779 -0.4924  0.0557 -2.2742
   21MOL   H207 7447   4.923   1.546   1.910 -1.2641  2.5266 -0.1326
   21MOL   H208 7448   5.002   1.663   1.659 -0.8460 -0.5194  0.2657
   21MOL   H209 7449   5.168   1.789   1.832 -0.4853  0.7070 -1.5643
   21MOL   H210 7450   5.107   1.689   1.945  0.9661 -2.0725  0.0091
   21MOL   H211 7451   5.211   1.487   1.834  1.5688 -0.3045  0.0511
   21MOL   H212 7452   5.221   1.674   1.591 -0.5449 -0.3694  1.2582
   21MOL   H213 7453   5.173   1.509   1.621  2.2759 -2.5655 -0.6077
   21MOL   H214 7454   5.349   1.560   1.612  0.7960 -1.0366  3.1515
   21MOL   H215 7455   5.409   1.710   1.844  0.0161  0.3060  1.3882
   21MOL   H216 7456   5.427   1.540   1.885 -0.7403 -0.9068 -2.3934
   21MOL   H217 7457   5.326   1.630   1.986 -0.8170 -0.9241 -0.2021
   21MOL   C218 7458   4.897   1.794   1.789  0.2170  0.7616  0.2090
   21MOL   C219 7459   4.937   1.925   1.728 -0.3138  0.9010 -0.0518
   21MOL   C220 7460   4.851   2.040   1.798  0.1896 -0.0689  0.2977
   21MOL   C221 7461   4.906   2.091   1.937  0.2684 -0.0996  0.0702
   21MOL   C222 7462   5.053   2.144   1.922  0.8580 -0.7632  0.4717
   21MOL   C223 7463   4.820   2.208   1.993  0.3078 -0.1245 -0.2503
   21MOL   H224 7464   4.796   1.777   1.754  0.9315  1.8840 -2.4871
   21MOL   H225 7465   4.887   1.801   1.898 -0.6849  3.0994 -0.0009
   21MOL   H226 7466   5.043   1.945   1.741 -0.0973 -0.7419  0.7640
   21MOL   H227 7467   4.833   2.125   1.732 -0.2650 -2.3741 -2.6159
   21MOL   H228 7468   4.752   2.000   1.815 -0.4243  1.1726 -0.2481
   21MOL   H229 7469   4.917   2.019   2.018  1.5364 -0.1743 -0.1675
   21MOL   H230 7470   5.116   2.057   1.902  1.2633  0.0358 -1.8500
   21MOL   H231 7471   5.060   2.214   1.839 -2.0241 -2.5948 -1.4391
   21MOL   H232 7472   5.082   2.181   2.020 -0.3890 -0.9180  0.9087
   21MOL   H233 7473   4.844   2.231   2.096  3.6508 -1.4706 -0.6646
   21MOL   H234 7474   4.827   2.294   1.926  0.3108 -1.6511 -2.2504
   21MOL   H235 7475   4.716   2.179   2.002 -0.2529  1.3808 -1.5707
   21MOL   C236 7476   4.908   1.940   1.572  0.3279  0.7456  0.2583
   21MOL   C237 7477   4.975   2.061   1.497  0.3182 -0.1564  0.3752
   21MOL   C238 7478   4.892   2.119   1.375 -0.2816 -0.4422  0.2659
   21MOL   C239 7479   4.764   2.187   1.419 -0.4970  0.3890  0.1683
   21MOL   C240 7480   4.797   2.332   1.469 -0.1252 -0.3109  0.5105
   21MOL   C241 7481   4.671   2.202   1.304 -0.0326 -0.5420  0.0397
   21MOL   H242 7482   4.800   1.945   1.557  0.8590  2.4149 -3.3878
   21MOL   H243 7483   4.940   1.847   1.525  1.1324  1.5790 -0.8738
   21MOL   H244 7484   4.966   2.138   1.573 -2.2889  0.9732 -1.0127
   21MOL   H245 7485   4.870   2.039   1.305 -1.6951 -0.4149  0.6579
   21MOL   H246 7486   4.951   2.184   1.311 -1.8872  1.6111  0.8247
   21MOL   H247 7487   4.717   2.135   1.502  3.5307 -0.9060  1.7783
   21MOL   H248 7488   4.831   2.350   1.571  0.1287  1.0173  0.1985
   21MOL   H249 7489   4.706   2.392   1.465  0.4830  0.5628 -0.5089
   21MOL   H250 7490   4.871   2.370   1.399  1.2858 -0.6956  1.7565
   21MOL   H251 7491   4.595   2.276   1.329  1.7223  0.7603  1.7729
   21MOL   H252 7492   4.627   2.103   1.297 -0.2720 -0.6499  2.5072
   21MOL   H253 7493   4.719   2.244   1.215 -0.6479  0.7638  0.3054
   21MOL   C254 7494   5.117   2.023   1.463  0.3966  0.1687 -0.8411
   21MOL   C255 7495   5.220   2.122   1.520  0.9314 -0.7707 -0.3119
   21MOL   C256 7496   5.358   2.058   1.520  0.3324  0.2752 -0.7171
   21MOL   C257 7497   5.387   1.955   1.637 -0.3424 -0.3749 -0.9307
   21MOL   C258 7498   5.406   2.031   1.773 -0.0309 -0.3726  0.3343
   21MOL   C259 7499   5.512   1.870   1.595 -0.4767 -0.5871  0.0743
   21MOL   H260 7500   5.143   1.928   1.510 -1.9560 -0.0248  0.1283
   21MOL   H261 7501   5.124   1.999   1.357 -0.3047 -0.7831 -0.6777
   21MOL   H262 7502   5.182   2.145   1.620  0.7197  1.5505 -0.8867
   21MOL   H263 7503   5.439   2.126   1.493 -0.2455  1.4368  0.4506
   21MOL   H264 7504   5.366   2.004   1.426 -2.1270 -0.1440 -0.7096
   21MOL   H265 7505   5.305   1.883   1.636  0.6868 -1.6132  0.6092
   21MOL   H266 7506   5.340   2.116   1.787  0.5379  0.1970 -0.3840
   21MOL   H267 7507   5.502   2.083   1.765  0.1147 -0.3527  1.8698
   21MOL   H268 7508   5.409   1.959   1.856  0.3844 -0.9299 -0.1597
   21MOL   H269 7509   5.526   1.800   1.678 -1.0461  0.8342  1.4049
   21MOL   H270 7510   5.493   1.811   1.506 -0.2106  2.1415 -1.8640
   21MOL   H271 7511   5.598   1.934   1.577 -0.6263 -0.5113 -0.3640
   21MOL   C272 7512   5.204   2.255   1.446 -0.1586  0.6095  0.2963
   21MOL   C273 7513   5.296   2.375   1.480 -0.3599 -0.0214  0.4137
   21MOL   C274 7514   5.315   2.466   1.358 -0.5018  0.2669 -0.1082
   21MOL   C275 7515   5.430   2.404   1.263  0.2063 -0.3580  0.2367
   21MOL   C276 7516   5.565   2.474   1.276 -0.7620  0.2133  0.3083
   21MOL   C277 7517   5.390   2.409   1.116 -0.4365  0.3093 -0.0848
   21MOL   H278 7518   5.211   2.235   1.339  0.7060 -1.4755  0.7215
   21MOL   H279 7519   5.106   2.298   1.468 -1.4788 -0.1286 -3.6770
   21MOL   H280 7520   5.396   2.346   1.513 -0.8605 -1.4242  0.6990
   21MOL   H281 7521   5.340   2.570   1.380  1.4482 -0.6856  2.4154
   21MOL   H282 7522   5.225   2.467   1.296 -0.8698  1.6923  0.4218
   21MOL   H283 7523   5.445   2.301   1.294  2.7921  0.3389  1.4481
   21MOL   H284 7524   5.564   2.576   1.239  0.9589  0.2272  0.2207
   21MOL   H285 7525   5.586   2.477   1.383 -1.1904  1.0288  0.3661
   21MOL   H286 7526   5.647   2.431   1.217 -0.8738  0.3508  0.0535
   21MOL   H287 7527   5.383   2.502   1.059  0.7239 -0.4264 -1.4820
   21MOL   H288 7528   5.468   2.349   1.068 -1.6878 -1.5330  0.1570
   21MOL   H289 7529   5.296   2.355   1.112  0.9338 -2.2014  0.4651
   21MOL   C290 7530   5.219   2.450   1.596  0.1718  0.0274 -0.4346
   21MOL   C291 7531   5.300   2.525   1.710 -0.0025  0.4688 -0.4568
   21MOL   C292 7532   5.203   2.623   1.777 -0.4219 -0.0833  0.4660
   21MOL   C293 7533   5.256   2.702   1.898  0.5220  0.0946  0.5292
   21MOL   C294 7534   5.354   2.817   1.841  0.0980 -0.5620 -0.3823
   21MOL   C295 7535   5.138   2.753   1.990 -0.3280 -0.6014 -0.0187
   21MOL   H296 7536   5.148   2.520   1.552 -0.3989 -0.8292 -0.8893
   21MOL   H297 7537   5.152   2.384   1.652  2.0989 -0.2622  1.6120
   21MOL   H298 7538   5.383   2.574   1.659  0.7913 -0.7266 -0.3216
   21MOL   H299 7539   5.117   2.563   1.806  0.6908 -2.2528 -0.6366
   21MOL   H300 7540   5.160   2.693   1.705  0.7295  0.3587  0.1894
   21MOL   H301 7541   5.321   2.635   1.955 -2.0508 -0.0867  3.3854
   21MOL   H302 7542   5.415   2.767   1.766  0.6649 -2.3912  1.2416
   21MOL   H303 7543   5.417   2.862   1.918 -0.1787 -1.3969  0.3427
   21MOL   H304 7544   5.310   2.904   1.793  1.5124 -0.0746 -0.8230
   21MOL   H305 7545   5.191   2.781   2.080  1.4693  0.9986 -1.5238
   21MOL   H306 7546   5.063   2.675   2.005  0.1520 -0.7847  1.4629
   21MOL   H307 7547   5.083   2.840   1.954  2.2128  1.5651  1.1789
   21MOL   C308 7548   5.361   2.421   1.805 -0.0798  0.0906  0.7974
   21MOL   C309 7549   5.505   2.453   1.849 -0.2954  0.8804 -0.0311
   21MOL   C310 7550   5.546   2.366   1.981 -0.0238 -0.3233 -0.5948
   21MOL   C311 7551   5.625   2.446   2.090  0.2202  0.0117  0.1884
   21MOL   C312 7552   5.540   2.527   2.194  0.1078 -0.0166 -0.5346
   21MOL   C313 7553   5.709   2.354   2.176 -0.6310  0.4620  1.0126
   21MOL   H314 7554   5.299   2.404   1.893 -2.6488 -2.5687 -1.4586
   21MOL   H315 7555   5.359   2.325   1.755 -0.3504  0.6828 -0.3608
   21MOL   H316 7556   5.513   2.559   1.874  0.8982  0.7218  0.2780
   21MOL   H317 7557   5.600   2.276   1.950 -0.5627  0.5289 -4.3369
   21MOL   H318 7558   5.452   2.335   2.025  0.6587 -1.0615  0.3765
   21MOL   H319 7559   5.684   2.519   2.035 -1.0885  1.3550  0.5180
   21MOL   H320 7560   5.478   2.607   2.155 -0.7341  0.9271  2.5413
   21MOL   H321 7561   5.597   2.584   2.268 -0.6851  0.7053 -0.4769
   21MOL   H322 7562   5.480   2.463   2.258  2.1461  0.1136  1.5792
   21MOL   H323 7563   5.783   2.295   2.123 -0.2270 -0.3826  2.4641
   21MOL   H324 7564   5.758   2.413   2.254  1.1321  0.3919 -0.0149
   21MOL   H325 7565   5.640   2.293   2.234 -3.0135 -1.2536 -3.4533
   21MOL   C326 7566   5.601   2.412   1.736  0.5051  0.3309 -0.2803
   21MOL   C327 7567   5.745   2.474   1.756 -0.0425 -0.1380  0.3767
   21MOL   C328 7568   5.741   2.623   1.713 -0.7036  0.0637 -0.4963
   21MOL   C329 7569   5.804   2.719   1.827  0.8361 -0.4587 -0.1344
   21MOL   C330 7570   5.948   2.678   1.871 -0.0909  0.2355 -0.1706
   21MOL   C331 7571   5.805   2.856   1.785  0.4845  0.1382  0.3016
   21MOL   H332 7572   5.568   2.444   1.638  0.3939  0.6977 -0.1228
   21MOL   H333 7573   5.600   2.303   1.732 -1.7896  0.1907  2.3158
   21MOL   H334 7574   5.788   2.457   1.855 -0.4515 -1.1100  0.3862
   21MOL   H335 7575   5.800   2.628   1.622  0.6655  2.9900  0.4894
   21MOL   H336 7576   5.640   2.649   1.679 -1.4302  1.5518  2.6250
   21MOL   H337 7577   5.743   2.720   1.918  2.1136  3.2918  0.7679
   21MOL   H338 7578   6.025   2.650   1.799  2.6678  0.3458  2.6506
   21MOL   H339 7579   5.934   2.600   1.947  0.6258 -0.5440 -0.8210
   21MOL   H340 7580   5.996   2.768   1.908  0.5748 -0.1149 -0.1698
   21MOL   H341 7581   5.819   2.929   1.864  1.6278  1.5431 -1.1572
   21MOL   H342 7582   5.879   2.884   1.710  0.0910  1.4840  0.4018
   21MOL   H343 7583   5.708   2.887   1.745 -0.6491 -1.4772  1.7017
   21MOL   C344 7584   5.853   2.402   1.661 -0.0960  0.9715 -0.1572
   21MOL   C345 7585   5.905   2.271   1.726  0.2901  0.1058 -0.0442
   21MOL   C346 7586   5.967   2.169   1.627 -0.6853 -0.9966 -0.2917
   21MOL   C347 7587   6.036   2.062   1.700  0.3495  0.8799 -0.3041
   21MOL   C348 7588   6.167   2.115   1.761  0.3283 -0.2508  0.0241
   21MOL   C349 7589   6.065   1.957   1.593 -0.2609  0.1782 -0.4551
   21MOL   H350 7590   5.943   2.464   1.659  1.8324 -1.7360 -0.2552
   21MOL   H351 7591   5.812   2.379   1.563  1.4403 -0.4733 -0.4768
   21MOL   H352 7592   5.812   2.224   1.758  0.4009  0.3101  0.6019
   21MOL   H353 7593   5.896   2.122   1.558 -4.1210  0.5927  1.9989
   21MOL   H354 7594   6.036   2.218   1.558  1.4215 -1.6784  1.2972
   21MOL   H355 7595   5.976   2.005   1.771 -0.7734  0.0717 -1.8663
   21MOL   H356 7596   6.234   2.169   1.693  3.4495  0.1379  3.2359
   21MOL   H357 7597   6.153   2.181   1.847  1.7487  1.7334 -1.2179
   21MOL   H358 7598   6.237   2.036   1.786 -1.0949 -1.8981 -1.1129
   21MOL   H359 7599   6.111   1.873   1.644  0.8058  1.7605  1.2722
   21MOL   H360 7600   6.136   1.986   1.516  0.7730 -0.1637  0.3538
   21MOL   H361 7601   5.981   1.906   1.546  0.1356 -1.3186  0.4152
   21MOL   H362 7602   5.968   2.304   1.809 -0.1595  1.4439 -0.2176
   22MOL     C1 7603   1.943   7.214   0.588  0.1347 -0.5230 -0.4724
   22MOL     C2 7604   1.870   7.312   0.683 -0.0064 -0.2320 -0.4935
   22MOL     C3 7605   1.787   7.414   0.598  0.0522 -0.2826  0.1339
   22MOL     C4 7606   1.690   7.510   0.673 -0.0720 -0.0074  0.6939
   22MOL     C5 7607   1.580   7.442   0.762 -0.2281  0.2480  0.2261
   22MOL     C6 7608   1.611   7.579   0.555 -0.4067  0.0923 -0.4855
   22MOL     H7 7609   1.999   7.260   0.507  0.9896 -1.8232 -0.6454
   22MOL     H8 7610   2.016   7.145   0.632 -1.3333 -1.0302  1.2188
   22MOL     H9 7611   1.794   7.259   0.740 -0.0450 -0.7099 -0.9903
   22MOL    H10 7612   1.856   7.462   0.529 -0.6900 -0.0289 -0.4444
   22MOL    H11 7613   1.729   7.354   0.528 -0.2869 -0.0508  0.2107
   22MOL    H12 7614   1.748   7.581   0.732  0.2287 -0.1732  0.5979
   22MOL    H13 7615   1.516   7.377   0.704 -1.0744  0.3726  1.0047
   22MOL    H14 7616   1.624   7.390   0.847 -1.6215  2.1589  2.1959
   22MOL    H15 7617   1.524   7.526   0.804  1.0989  0.8079  0.9114
   22MOL    H16 7618   1.564   7.503   0.493 -1.3015  0.2677 -0.0359
   22MOL    H17 7619   1.680   7.629   0.487 -1.4493  2.5142  0.1786
   22MOL    H18 7620   1.536   7.654   0.583 -1.4650  0.0562 -3.1258
   22MOL    H19 7621   1.866   7.156   0.537 -0.1577  0.0996 -0.7408
   22MOL    C20 7622   1.963   7.387   0.771  0.6643 -0.1262 -0.5428
   22MOL    C21 7623   2.041   7.308   0.883  0.7999  0.0238  0.1437
   22MOL    C22 7624   2.190   7.348   0.910 -0.4752  0.0118 -0.7348
   22MOL    C23 7625   2.307   7.310   0.806 -0.1019 -0.2448 -0.3217
   22MOL    C24 7626   2.302   7.354   0.659 -0.4120  0.6276  0.0748
   22MOL    C25 7627   2.438   7.361   0.869  0.5680  0.1291  0.3084
   22MOL    H26 7628   2.035   7.425   0.698  0.9134  2.8090  1.1729
   22MOL    H27 7629   1.933   7.483   0.813  0.4870  1.2793 -3.7353
   22MOL    H28 7630   2.038   7.204   0.851 -1.0565 -0.8230  2.9253
   22MOL    H29 7631   2.216   7.299   1.004 -2.1656 -1.0474 -0.7966
   22MOL    H30 7632   2.198   7.455   0.931  1.0671  0.1867 -2.1022
   22MOL    H31 7633   2.313   7.201   0.808 -2.3632 -0.4365 -2.0955
   22MOL    H32 7634   2.217   7.319   0.600  1.0864  1.0955 -2.3982
   22MOL    H33 7635   2.385   7.322   0.596 -1.0775 -0.1200 -0.4247
   22MOL    H34 7636   2.300   7.462   0.647 -1.0948  0.7484  1.1936
   22MOL    H35 7637   2.523   7.343   0.803  0.0725 -0.9399 -0.0545
   22MOL    H36 7638   2.415   7.467   0.878 -0.6448 -0.0106 -0.9748
   22MOL    H37 7639   2.468   7.316   0.963  1.3497 -1.4310 -0.6630
   22MOL    C38 7640   1.963   7.308   1.026  0.2565  0.7059  0.3685
   22MOL    C39 7641   1.986   7.199   1.129 -0.5525  0.0863  0.2316
   22MOL    C40 7642   1.877   7.097   1.122  0.2777  0.3910 -0.1209
   22MOL    C41 7643   1.903   6.967   1.205  0.6102 -0.6652  0.7561
   22MOL    C42 7644   2.004   6.881   1.125 -0.0292 -0.0375 -0.7562
   22MOL    C43 7645   1.772   6.890   1.211 -0.2287  0.7290 -0.6853
   22MOL    H44 7646   1.858   7.300   0.996  0.3036  1.0162  0.1238
   22MOL    H45 7647   1.974   7.407   1.069 -2.3586  1.3305 -0.2711
   22MOL    H46 7648   2.080   7.148   1.109 -0.6083  0.8810 -2.2877
   22MOL    H47 7649   1.858   7.065   1.019 -0.5932 -0.5115  0.3077
   22MOL    H48 7650   1.779   7.139   1.144  1.1672  1.8191  1.1978
   22MOL    H49 7651   1.948   6.984   1.303 -1.0432  2.1189  1.0920
   22MOL    H50 7652   2.105   6.915   1.105  0.0888  0.2979  0.3986
   22MOL    H51 7653   2.024   6.789   1.180 -0.3290  0.3699  0.0428
   22MOL    H52 7654   1.963   6.848   1.029  1.2114 -1.3431 -0.8514
   22MOL    H53 7655   1.749   6.827   1.125  0.4871 -0.5910  0.0548
   22MOL    H54 7656   1.682   6.948   1.232 -0.5984  0.0569 -0.3844
   22MOL    H55 7657   1.787   6.818   1.292  1.1524  2.1169  0.3265
   22MOL    C56 7658   2.003   7.257   1.276 -0.0304  0.0795 -0.1994
   22MOL    C57 7659   2.139   7.310   1.314 -0.9416 -0.1249 -0.5616
   22MOL    C58 7660   2.228   7.190   1.363 -1.0850  0.3987  0.2277
   22MOL    C59 7661   2.383   7.202   1.368  0.1574 -0.4101 -0.9264
   22MOL    C60 7662   2.444   7.238   1.230  0.0403 -0.8739 -0.0892
   22MOL    C61 7663   2.438   7.075   1.429 -0.3773  0.3282  0.4072
   22MOL    H62 7664   1.962   7.197   1.357 -0.7971  1.0046  0.1042
   22MOL    H63 7665   1.937   7.343   1.284  1.0168  0.6159  3.2201
   22MOL    H64 7666   2.181   7.356   1.225  0.0862 -0.7786 -0.4209
   22MOL    H65 7667   2.197   7.157   1.462 -3.0163  0.4103 -0.3522
   22MOL    H66 7668   2.219   7.104   1.297 -1.5006 -0.7827  1.8054
   22MOL    H67 7669   2.410   7.281   1.438 -2.2178 -0.3416 -0.0238
   22MOL    H68 7670   2.421   7.168   1.150 -1.0284 -1.1001  0.4156
   22MOL    H69 7671   2.549   7.270   1.227  0.1879 -1.1763  1.5105
   22MOL    H70 7672   2.397   7.330   1.196  1.4240  0.7411  2.2082
   22MOL    H71 7673   2.398   7.063   1.530 -1.3192 -0.5279 -0.0655
   22MOL    H72 7674   2.546   7.076   1.445 -0.4567 -0.0890  0.9737
   22MOL    H73 7675   2.417   7.003   1.350  1.3385 -0.7983  0.9316
   22MOL    C74 7676   2.140   7.428   1.413 -0.1418  0.2384 -0.3494
   22MOL    C75 7677   2.073   7.560   1.357 -0.0442  0.8493 -1.3040
   22MOL    C76 7678   2.174   7.670   1.297  0.1163  0.1335 -0.1845
   22MOL    C77 7679   2.111   0.025   1.200 -1.0191 -0.3418  0.3988
   22MOL    C78 7680   2.029   7.716   1.079 -0.6894  0.1295  0.2614
   22MOL    C79 7681   2.229   0.114   1.157  0.8100 -0.0184  0.0356
   22MOL    H80 7682   2.242   7.445   1.449 -0.3489 -0.7771  0.7363
   22MOL    H81 7683   2.092   7.391   1.504 -2.5132  1.0816 -1.2147
   22MOL    H82 7684   1.998   7.528   1.285 -0.4938 -0.1247 -0.4192
   22MOL    H83 7685   2.218   7.724   1.382 -1.0060  0.3841  0.2548
   22MOL    H84 7686   2.258   7.620   1.249  0.1736  0.2606 -0.2171
   22MOL    H85 7687   2.044   0.084   1.262 -0.3762 -0.1122  0.8789
   22MOL    H86 7688   1.941   7.665   1.119 -1.0005  1.6427  1.5397
   22MOL    H87 7689   2.085   7.635   1.031  0.0612 -0.3728  1.9464
   22MOL    H88 7690   1.993   0.037   1.007  0.0187  1.4380  1.2214
   22MOL    H89 7691   2.205   0.198   1.092  0.9158 -0.6124 -0.7785
   22MOL    H90 7692   2.281   0.144   1.248  0.0549 -1.3777  0.9308
   22MOL    H91 7693   2.299   0.057   1.095 -0.9501 -0.6015 -1.4706
   22MOL    C92 7694   1.988   7.609   1.474  0.3348  0.6706 -0.2317
   22MOL    C93 7695   1.844   7.545   1.476 -0.3437  0.2538  0.0616
   22MOL    C94 7696   1.767   7.564   1.613 -0.4781  0.8729  0.6389
   22MOL    C95 7697   1.835   7.466   1.714 -0.6971 -0.7110  0.0955
   22MOL    C96 7698   1.810   7.510   1.863  0.0232  0.2575  0.7550
   22MOL    C97 7699   1.800   7.323   1.702 -0.4504  0.3238 -0.0842
   22MOL    H98 7700   2.048   7.599   1.564  1.1407 -4.0542 -1.1718
   22MOL    H99 7701   1.972   7.716   1.462 -0.1018  0.3671 -2.6075
   22MOL   H100 7702   1.850   7.437   1.458  0.9605  0.3388 -0.0420
   22MOL   H101 7703   1.660   7.544   1.613 -0.3540  0.1916  0.6167
   22MOL   H102 7704   1.791   7.666   1.642 -0.2411  1.2651 -0.8696
   22MOL   H103 7705   1.940   7.479   1.687 -0.9770  1.9654  0.1457
   22MOL   H104 7706   1.706   7.497   1.893  0.3603 -1.6635  1.1713
   22MOL   H105 7707   1.845   7.611   1.885  0.2320  0.2940  0.2705
   22MOL   H106 7708   1.873   7.449   1.929 -2.0412 -2.5724  0.1714
   22MOL   H107 7709   1.821   7.283   1.603  0.2156  0.2386  0.0886
   22MOL   H108 7710   1.712   7.273   1.741 -1.3170  1.3740 -0.6695
   22MOL   H109 7711   1.871   7.274   1.769 -0.1663 -0.5180 -0.9964
   22MOL   C110 7712   1.751   7.610   1.364 -0.2391  0.7346  0.7279
   22MOL   C111 7713   1.613   7.542   1.341  0.2402 -0.1316  0.0433
   22MOL   C112 7714   1.527   7.634   1.247  0.1822  0.7715  0.2310
   22MOL   C113 7715   1.470   0.005   1.318  0.4453  0.4612  0.0197
   22MOL   C114 7716   1.361   7.733   1.428 -0.1677 -0.4566 -0.3526
   22MOL   C115 7717   1.416   0.106   1.221  0.4897 -0.0714 -0.7437
   22MOL   H116 7718   1.799   7.633   1.269 -0.9919 -2.9754 -0.6169
   22MOL   H117 7719   1.741   7.712   1.403  1.2630  0.9300  0.6445
   22MOL   H118 7720   1.559   7.539   1.436 -2.2957 -0.8715 -1.3579
   22MOL   H119 7721   1.438   7.578   1.216  0.5483 -0.2254  0.9642
   22MOL   H120 7722   1.581   7.650   1.154 -0.5327  0.1965 -0.2902
   22MOL   H121 7723   1.552   0.061   1.363 -0.9056  2.0994  0.5191
   22MOL   H122 7724   1.277   7.684   1.379 -0.2777  0.4229 -1.0509
   22MOL   H123 7725   1.326   0.077   1.466 -1.4401 -1.8047  2.0339
   22MOL   H124 7726   1.393   7.691   1.524 -0.2975  0.7251  0.2222
   22MOL   H125 7727   1.360   0.179   1.278  0.5383 -0.7236  0.1417
   22MOL   H126 7728   1.346   0.069   1.146 -1.5680  1.2079  0.5234
   22MOL   H127 7729   1.501   0.149   1.168 -0.5154  0.3759 -2.0216
   22MOL   C128 7730   1.631   7.408   1.269  0.1968 -0.0423 -0.4957
   22MOL   C129 7731   1.501   7.326   1.251  0.2695  0.0504  0.1587
   22MOL   C130 7732   1.494   7.201   1.346  0.1373 -0.5226  1.1950
   22MOL   C131 7733   1.505   7.239   1.499 -0.8162 -0.4422  0.4531
   22MOL   C132 7734   1.380   7.325   1.534  0.2133  0.0701  0.0010
   22MOL   C133 7735   1.524   7.117   1.593  0.2721  0.3949 -0.2199
   22MOL   H134 7736   1.700   7.346   1.326 -1.6548 -3.5623 -1.8895
   22MOL   H135 7737   1.688   7.429   1.179  0.9723 -0.9255 -0.2168
   22MOL   H136 7738   1.414   7.380   1.287  0.4248  0.1970  0.3176
   22MOL   H137 7739   1.403   7.147   1.320 -0.8913  1.4138  0.6850
   22MOL   H138 7740   1.572   7.133   1.311  1.7899  2.0142 -0.2046
   22MOL   H139 7741   1.582   7.317   1.506 -1.0379  0.0017 -1.5532
   22MOL   H140 7742   1.294   7.283   1.481 -0.8028  2.1654 -0.0264
   22MOL   H141 7743   1.379   7.431   1.508  1.5532  0.1978  0.4379
   22MOL   H142 7744   1.363   7.329   1.641 -2.1583  2.4032 -0.4210
   22MOL   H143 7745   1.440   7.050   1.577  0.4423 -0.7173  3.1732
   22MOL   H144 7746   1.621   7.070   1.579 -1.1398 -2.5074 -0.6716
   22MOL   H145 7747   1.514   7.150   1.697  0.4631 -1.8750  0.5478
   22MOL   C146 7748   1.483   7.279   1.107 -0.0956  0.5397  0.6987
   22MOL   C147 7749   1.353   7.219   1.050  0.4800 -0.3092 -0.4855
   22MOL   C148 7750   1.364   7.195   0.899  0.0247 -0.4761  0.0762
   22MOL   C149 7751   1.473   7.108   0.853 -0.0983  0.3262  0.3791
   22MOL   C150 7752   1.475   6.966   0.911  0.5172 -1.0779  0.0836
   22MOL   C151 7753   1.471   7.091   0.699 -0.0654 -0.2960  0.3773
   22MOL   H152 7754   1.566   7.213   1.084 -2.1765 -1.8219 -0.2984
   22MOL   H153 7755   1.505   7.366   1.046 -2.4973  0.8618  0.2487
   22MOL   H154 7756   1.343   7.120   1.093  0.5602 -0.5623 -1.0503
   22MOL   H155 7757   1.279   7.138   0.860 -0.3773  0.7017 -0.7967
   22MOL   H156 7758   1.363   7.287   0.841  3.0186 -0.7753 -0.4920
   22MOL   H157 7759   1.573   7.146   0.874  0.3646  0.6949 -2.3450
   22MOL   H158 7760   1.483   6.957   1.019 -2.0120 -1.9833  0.2202
   22MOL   H159 7761   1.555   6.909   0.865 -1.2560 -1.2568 -2.8997
   22MOL   H160 7762   1.386   6.908   0.884  0.3616 -0.5019 -0.6792
   22MOL   H161 7763   1.395   7.017   0.674 -1.0471  0.8629 -0.1409
   22MOL   H162 7764   1.560   7.041   0.662 -0.2726 -0.0742 -0.4458
   22MOL   H163 7765   1.452   7.179   0.637 -0.3390  0.1591  1.1039
   22MOL   C164 7766   1.231   7.312   1.092 -0.8644  0.3783 -1.2579
   22MOL   C165 7767   1.088   7.291   1.045 -0.0776 -0.1805  0.6934
   22MOL   C166 7768   1.056   7.145   1.045 -0.2646 -0.3172  0.3317
   22MOL   C167 7769   0.948   7.097   0.944  0.5480 -0.5555 -0.1178
   22MOL   C168 7770   1.006   7.073   0.809 -0.6103 -0.1546  0.0831
   22MOL   C169 7771   0.888   6.966   1.002  0.4687  0.4805  0.2784
   22MOL   H170 7772   1.235   7.332   1.199  2.8201 -0.6447 -1.1514
   22MOL   H171 7773   1.262   7.414   1.070  0.7079  0.1805 -0.0259
   22MOL   H172 7774   1.076   7.309   0.938 -1.0252 -0.4313  0.7521
   22MOL   H173 7775   1.142   7.081   1.025  0.1936 -0.0751  1.4707
   22MOL   H174 7776   1.052   7.118   1.151  1.5924 -0.5484  0.3587
   22MOL   H175 7777   0.866   7.168   0.949 -0.8352 -2.0626 -0.8477
   22MOL   H176 7778   1.081   6.994   0.816  0.2320  0.5734 -0.5978
   22MOL   H177 7779   1.049   7.159   0.758  3.4164 -1.7796  0.5718
   22MOL   H178 7780   0.933   7.032   0.738 -0.4719 -1.5508  0.7254
   22MOL   H179 7781   0.858   6.967   1.107 -0.7211 -0.6845 -0.0377
   22MOL   H180 7782   0.960   6.885   0.992 -2.0423 -1.7552 -0.4140
   22MOL   H181 7783   0.799   6.941   0.944  1.1328 -1.8335  0.2208
   22MOL   C182 7784   0.986   7.383   1.129 -0.0587 -1.0098  0.6624
   22MOL   C183 7785   0.963   7.531   1.083 -0.6394  0.0310  0.2398
   22MOL   C184 7786   0.935   7.527   0.925  0.0962 -0.1983 -0.1392
   22MOL   C185 7787   1.053   7.560   0.828  1.2200 -0.3456 -0.3006
   22MOL   C186 7788   1.019   7.518   0.685 -0.6594 -0.3310  0.1972
   22MOL   C187 7789   1.117   7.703   0.851  0.0148 -0.3585  0.0153
   22MOL   H188 7790   1.023   7.385   1.232 -2.4621  1.6465  1.5372
   22MOL   H189 7791   0.895   7.323   1.129  0.0396 -1.1581  0.0547
   22MOL   H190 7792   1.052   7.591   1.102  1.6390 -3.5813  1.3945
   22MOL   H191 7793   0.867   7.608   0.900 -0.0227 -1.1450 -3.0139
   22MOL   H192 7794   0.892   7.431   0.897  0.6519 -0.5537  0.2271
   22MOL   H193 7795   1.137   7.497   0.857 -1.5591 -3.0430  2.0783
   22MOL   H194 7796   0.987   7.414   0.672  0.5794 -0.8191  0.9952
   22MOL   H195 7797   1.111   7.532   0.627 -1.6622  0.5887 -1.1969
   22MOL   H196 7798   0.940   7.587   0.656  1.0403  1.3663 -0.5030
   22MOL   H197 7799   1.169   7.714   0.945  0.6524  2.5763 -0.6517
   22MOL   H198 7800   1.036   0.024   0.852 -0.8838 -1.3040 -1.2762
   22MOL   H199 7801   1.188   7.725   0.771  1.5088 -2.1518  0.7992
   22MOL   C200 7802   0.832   7.597   1.152  0.1283 -0.2520 -0.5373
   22MOL   C201 7803   0.839   7.611   1.307 -0.0684  0.2290 -0.3235
   22MOL   C202 7804   0.708   7.623   1.392  0.8279  0.3604  0.1272
   22MOL   C203 7805   0.630   7.747   1.359  0.0265 -0.4128  0.2841
   22MOL   C204 7806   0.514   7.709   1.271  0.2941  0.1801  0.5541
   22MOL   C205 7807   0.573   0.055   1.487  0.2169 -0.1890 -0.1648
   22MOL   H206 7808   0.748   7.530   1.136  0.9868 -1.4457 -0.1403
   22MOL   H207 7809   0.812   7.690   1.099  3.0748  0.5781 -0.3056
   22MOL   H208 7810   0.874   7.513   1.339  3.3217  1.4986  0.1143
   22MOL   H209 7811   0.650   7.533   1.371  0.5907  0.7660 -1.0098
   22MOL   H210 7812   0.728   7.605   1.497 -1.1471 -0.9135  0.3106
   22MOL   H211 7813   0.691   0.066   1.304 -0.5178  0.3454  0.6552
   22MOL   H212 7814   0.560   7.671   1.180  0.8575  1.5624  0.2579
   22MOL   H213 7815   0.451   0.038   1.237  1.9274  1.0453 -0.4628
   22MOL   H214 7816   0.457   7.624   1.308  0.0841  0.0815  0.0140
   22MOL   H215 7817   0.480   0.000   1.504  0.2865  0.7120  3.6052
   22MOL   H216 7818   0.546   0.159   1.471 -2.1455 -0.9741 -1.6062
   22MOL   H217 7819   0.636   0.047   1.576  0.8195 -0.1570 -0.5915
   22MOL   C218 7820   0.941   7.719   1.351 -0.8342  0.6287  0.2787
   22MOL   C219 7821   0.970   7.740   1.500  0.3456 -0.1399 -0.2684
   22MOL   C220 7822   1.044   0.122   1.522 -0.5096 -0.5702  0.0195
   22MOL   C221 7823   0.966   0.253   1.522 -0.4760 -0.0574 -0.4715
   22MOL   C222 7824   0.880   0.262   1.643 -0.0452  0.2158  0.4268
   22MOL   C223 7825   1.065   0.373   1.521 -0.8304 -0.5876  0.1291
   22MOL   H224 7826   1.038   7.687   1.312 -2.0966 -4.6282  1.1681
   22MOL   H225 7827   0.911   0.061   1.305 -0.4784  0.3720 -0.4770
   22MOL   H226 7828   0.875   0.002   1.551 -0.0673  1.6925 -1.4926
   22MOL   H227 7829   1.101   0.121   1.615  0.7441 -0.2458 -0.7394
   22MOL   H228 7830   1.113   0.127   1.439 -0.2186  0.9460  0.3412
   22MOL   H229 7831   0.907   0.269   1.431 -0.7064 -0.3549 -0.3743
   22MOL   H230 7832   0.933   0.291   1.735 -2.0860 -0.3544  1.8209
   22MOL   H231 7833   0.813   0.343   1.615  0.8538  0.9694  0.3941
   22MOL   H232 7834   0.827   0.170   1.667  2.8287 -1.2411  1.4119
   22MOL   H233 7835   1.008   0.463   1.495 -0.4607  0.6205  3.2521
   22MOL   H234 7836   1.124   0.380   1.613  0.6545  1.4981 -0.9458
   22MOL   H235 7837   1.151   0.368   1.455 -0.1418 -2.1544  1.1247
   22MOL   C236 7838   1.047   7.625   1.562 -0.0283 -0.0625 -0.5622
   22MOL   C237 7839   0.978   7.568   1.687  0.0750 -0.8483  0.1868
   22MOL   C238 7840   0.988   7.668   1.803 -0.4804  0.0050  0.3931
   22MOL   C239 7841   0.884   7.655   1.917 -0.0147 -0.5884  0.2058
   22MOL   C240 7842   0.929   7.726   2.047 -0.0471  0.7705 -0.1633
   22MOL   C241 7843   0.749   7.696   1.861  0.0639  0.3014  0.4726
   22MOL   H242 7844   1.152   7.638   1.588 -0.6823 -0.6932  2.6276
   22MOL   H243 7845   1.052   7.550   1.484 -2.0303 -1.3142  0.4565
   22MOL   H244 7846   0.873   7.553   1.665  0.1241 -1.4601  0.3435
   22MOL   H245 7847   0.965   0.016   1.768 -0.4700  0.3151  1.2800
   22MOL   H246 7848   1.087   7.665   1.849 -1.0581 -1.0096  1.6135
   22MOL   H247 7849   0.874   7.549   1.942 -0.4043 -0.7059 -0.4381
   22MOL   H248 7850   0.938   0.082   2.037  0.2507  0.6583 -1.1036
   22MOL   H249 7851   1.023   7.705   2.097 -0.6566 -1.1410  0.2234
   22MOL   H250 7852   0.850   7.710   2.121 -1.2106 -1.7737 -1.9066
   22MOL   H251 7853   0.716   7.619   1.791  1.5682 -0.7467  0.8921
   22MOL   H252 7854   0.741   0.041   1.813  0.3553  0.5438  0.9139
   22MOL   H253 7855   0.668   7.693   1.935  1.0656 -3.2802  1.5217
   22MOL   C254 7856   1.036   7.435   1.744  0.3427 -0.7329  0.4876
   22MOL   C255 7857   0.949   7.308   1.707 -0.1503  0.3822 -0.5157
   22MOL   C256 7858   0.808   7.301   1.784 -0.1658  0.1685  0.0879
   22MOL   C257 7859   0.803   7.284   1.935  0.0722 -0.0643  0.2529
   22MOL   C258 7860   0.825   7.132   1.955  0.0537 -0.3173 -0.0875
   22MOL   C259 7861   0.661   7.325   1.982  0.1968 -0.3467 -0.4222
   22MOL   H260 7862   1.135   7.423   1.700 -0.4014 -0.0477 -1.4383
   22MOL   H261 7863   1.034   7.424   1.852  0.2830  0.9857  0.6725
   22MOL   H262 7864   1.010   7.227   1.747  0.3327  0.2927 -1.4292
   22MOL   H263 7865   0.734   7.241   1.731 -0.9638  1.1482  0.0885
   22MOL   H264 7866   0.762   7.398   1.762  0.6006  0.6475  0.5670
   22MOL   H265 7867   0.883   7.332   1.992 -0.4810  0.0238  0.9703
   22MOL   H266 7868   0.919   7.094   1.913  0.6296 -1.0452  1.7846
   22MOL   H267 7869   0.749   7.073   1.904  1.8301 -2.2231 -0.6306
   22MOL   H268 7870   0.811   7.100   2.058 -0.4847  2.0609  0.6081
   22MOL   H269 7871   0.587   7.285   1.913  1.7708  0.6165 -2.7387
   22MOL   H270 7872   0.639   7.284   2.081  1.7905  1.8828  0.9071
   22MOL   H271 7873   0.662   7.434   1.972 -0.0938 -0.5346 -2.6799
   22MOL   C272 7874   0.939   7.286   1.555 -0.0327  0.0168 -0.5700
   22MOL   C273 7875   0.907   7.140   1.516  0.2628  0.1555 -0.4026
   22MOL   C274 7876   0.817   7.133   1.390  0.1510 -0.3941 -0.6019
   22MOL   C275 7877   0.682   7.198   1.411  0.0853 -0.3356  0.2478
   22MOL   C276 7878   0.585   7.108   1.493 -0.1255 -0.9407 -0.3178
   22MOL   C277 7879   0.616   7.240   1.278  0.5635 -0.0670 -0.6779
   22MOL   H278 7880   0.859   7.354   1.523  0.8300  1.6298  0.6358
   22MOL   H279 7881   1.033   7.331   1.523  0.4892  1.9657  3.3759
   22MOL   H280 7882   0.866   7.095   1.606 -0.9245 -1.0358 -1.5250
   22MOL   H281 7883   0.807   7.029   1.357 -0.8632 -0.5528  0.1734
   22MOL   H282 7884   0.861   7.185   1.305  1.6768  0.7841  0.8751
   22MOL   H283 7885   0.678   7.295   1.462  1.9828 -0.3711  0.5060
   22MOL   H284 7886   0.483   7.147   1.484  0.3223  0.3688  0.1815
   22MOL   H285 7887   0.584   7.007   1.451  0.5961 -1.4881  0.9569
   22MOL   H286 7888   0.604   7.108   1.600 -0.7918  1.2423 -0.1725
   22MOL   H287 7889   0.515   7.280   1.290  0.9213  0.6556  0.0096
   22MOL   H288 7890   0.671   7.321   1.230 -0.9297  0.6288 -1.2550
   22MOL   H289 7891   0.611   7.154   1.212  1.4036  0.8636 -1.9780
   22MOL   C290 7892   1.046   7.068   1.499 -0.3333 -0.0666  0.6969
   22MOL   C291 7893   1.054   6.911   1.461  0.1338  0.3275  0.4414
   22MOL   C292 7894   1.196   6.862   1.438  0.3858 -0.5210  0.4170
   22MOL   C293 7895   1.256   6.873   1.298  0.0767 -0.2080 -0.0385
   22MOL   C294 7896   1.405   6.844   1.308 -0.5269  0.4030 -0.0427
   22MOL   C295 7897   1.180   6.780   1.191 -0.0041 -0.1099 -0.4927
   22MOL   H296 7898   1.105   7.118   1.422 -1.0936 -0.6861 -0.3002
   22MOL   H297 7899   1.100   7.079   1.593  0.3517  3.3305 -0.0359
   22MOL   H298 7900   0.991   6.890   1.374  0.0166 -1.3254  0.8949
   22MOL   H299 7901   1.200   6.763   1.482 -2.5273 -0.8569  0.0138
   22MOL   H300 7902   1.260   6.922   1.503 -0.5586  0.7298  0.2190
   22MOL   H301 7903   1.251   6.972   1.251  1.4128  0.0562  0.3559
   22MOL   H302 7904   1.460   6.855   1.214 -1.0984 -2.3580 -0.7553
   22MOL   H303 7905   1.420   6.739   1.333 -3.4864  0.7413  3.3805
   22MOL   H304 7906   1.462   6.896   1.385 -0.5904 -0.4195  0.5603
   22MOL   H305 7907   1.240   6.756   1.103  0.6401  0.7147 -0.2800
   22MOL   H306 7908   1.088   6.829   1.161  1.0710  1.3730 -1.4448
   22MOL   H307 7909   1.149   6.691   1.247  1.0417 -0.2394 -0.1076
   22MOL   C308 7910   0.998   6.818   1.577 -0.1843  0.1191 -0.1213
   22MOL   C309 7911   0.959   6.675   1.540  0.0561 -0.1605 -0.7550
   22MOL   C310 7912   0.992   6.578   1.662 -0.1047  0.5146 -0.1703
   22MOL   C311 7913   1.143   6.541   1.681  0.8181  0.4098  0.5988
   22MOL   C312 7914   1.148   6.478   1.823 -0.0924  0.0264  0.6645
   22MOL   C313 7915   1.190   6.442   1.572  0.0037 -0.5494  0.1363
   22MOL   H314 7916   1.069   6.824   1.660  0.9404 -0.6901 -1.0074
   22MOL   H315 7917   0.905   6.862   1.613  0.6883  2.1733 -0.3005
   22MOL   H316 7918   1.015   6.662   1.447 -0.4902 -0.5872 -1.0346
   22MOL   H317 7919   0.942   6.485   1.633  1.8583 -0.1838 -1.3973
   22MOL   H318 7920   0.942   6.614   1.752  0.8702 -1.1822  1.0891
   22MOL   H319 7921   1.204   6.631   1.684  0.2349  0.7928  1.1488
   22MOL   H320 7922   1.116   6.555   1.893  0.2065 -0.8549  1.7752
   22MOL   H321 7923   1.252   6.468   1.857  0.8197 -0.8796 -2.2522
   22MOL   H322 7924   1.087   6.390   1.837 -0.5808 -0.1046 -1.9780
   22MOL   H323 7925   1.192   6.500   1.479  1.3710 -0.8905 -0.0447
   22MOL   H324 7926   1.287   6.400   1.597 -0.7924 -0.7823  3.0222
   22MOL   H325 7927   1.122   6.358   1.554  0.5171 -1.2068  1.2072
   22MOL   C326 7928   0.809   6.666   1.496  0.0289 -0.2913  0.0135
   22MOL   C327 7929   0.776   6.538   1.419  0.3039  0.4612  0.2481
   22MOL   C328 7930   0.852   6.540   1.274 -0.5842 -0.1206 -0.2399
   22MOL   C329 7931   0.849   6.402   1.200  0.0818 -0.6531  0.5280
   22MOL   C330 7932   0.913   6.413   1.063  0.3980  0.0212 -0.1447
   22MOL   C331 7933   0.909   6.280   1.277 -0.9051 -0.4649  0.8734
   22MOL   H332 7934   0.780   6.752   1.436 -0.4098  0.0869  0.7566
   22MOL   H333 7935   0.741   6.666   1.581 -1.4858  0.7141 -1.1668
   22MOL   H334 7936   0.815   6.449   1.470  2.2458 -0.5199 -2.8149
   22MOL   H335 7937   0.795   6.613   1.218 -0.9138  0.7525  1.2156
   22MOL   H336 7938   0.959   6.556   1.277 -0.3284 -1.4491 -1.4514
   22MOL   H337 7939   0.744   6.373   1.187 -0.9079  1.9368  2.3118
   22MOL   H338 7940   0.999   6.479   1.056  1.1033 -0.8954 -0.1390
   22MOL   H339 7941   0.845   6.468   0.998  1.4614  0.2800 -1.0585
   22MOL   H340 7942   0.923   6.319   1.010  0.6365  1.8167 -3.4527
   22MOL   H341 7943   0.899   6.189   1.217  0.8543  0.6128 -1.1162
   22MOL   H342 7944   1.011   6.297   1.312 -0.4825  0.0416 -0.5879
   22MOL   H343 7945   0.849   6.274   1.368  1.5871  2.1194  2.7921
   22MOL   C344 7946   0.633   6.502   1.408  0.2454 -0.0580 -0.4148
   22MOL   C345 7947   0.564   6.445   1.527 -0.4329 -0.2745 -0.1814
   22MOL   C346 7948   0.413   6.425   1.506 -0.2803  0.1555 -0.3523
   22MOL   C347 7949   0.339   6.362   1.628  0.6290 -0.8500  0.0342
   22MOL   C348 7950   0.381   6.215   1.648  0.3374 -0.0275  0.1447
   22MOL   C349 7951   0.188   6.373   1.614  0.0266 -0.5157  0.0944
   22MOL   H350 7952   0.616   6.447   1.315  1.7379  0.0612 -0.7639
   22MOL   H351 7953   0.589   6.599   1.385  1.2562  0.3995 -0.4134
   22MOL   H352 7954   0.579   6.511   1.612  0.4087  0.0088 -0.5457
   22MOL   H353 7955   0.359   6.515   1.476 -0.2282  1.2955  2.7795
   22MOL   H354 7956   0.386   6.357   1.425 -0.3683 -0.6002  0.3023
   22MOL   H355 7957   0.362   6.424   1.715 -0.4299  1.8819 -1.5722
   22MOL   H356 7958   0.312   6.166   1.718 -0.3786 -0.0336 -0.5570
   22MOL   H357 7959   0.368   6.153   1.560 -3.0236  0.7926 -0.0384
   22MOL   H358 7960   0.475   6.190   1.697  0.0962  0.6269  0.9666
   22MOL   H359 7961   0.163   6.307   1.531 -0.2273  0.1185 -0.3321
   22MOL   H360 7962   0.144   6.469   1.588 -0.0318  0.1362  2.4373
   22MOL   H361 7963   0.136   6.344   1.706 -1.6380 -0.5452 -0.8451
   22MOL   H362 7964   0.611   6.350   1.549  2.4070  0.4317 -2.8715
   23MOL     C1 7965   5.957   4.613   0.129  0.0060 -0.6706 -0.6950
   23MOL     C2 7966   5.993   4.607   7.724 -0.4678  0.1673  0.7427
   23MOL     C3 7967   6.129   4.673   7.706  0.1997 -0.4197 -0.4249
   23MOL     C4 7968   6.253   4.590   7.752  0.3412  0.0056  0.6533
   23MOL     C5 7969   6.381   4.670   0.012  0.5186  0.2586  0.9776
   23MOL     C6 7970   6.277   4.476   7.648 -0.1487 -0.1905  0.1526
   23MOL     H7 7971   5.855   4.582   0.151 -0.6910  1.2099 -1.1393
   23MOL     H8 7972   6.008   4.538   0.189 -0.5678  1.3103  2.4249
   23MOL     H9 7973   6.005   4.502   7.695 -1.4345  0.0992  0.5722
   23MOL    H10 7974   6.139   4.712   7.605 -2.5510 -0.4734 -0.7521
   23MOL    H11 7975   6.133   4.761   0.017 -2.1390 -1.2330  0.9345
   23MOL    H12 7976   6.233   4.551   0.099 -1.5912  1.1339  0.7297
   23MOL    H13 7977   6.466   4.604   0.029  0.1518 -0.9654 -1.6283
   23MOL    H14 7978   6.392   4.723   7.669 -0.5868  1.0351  1.2687
   23MOL    H15 7979   6.379   4.749   0.087 -2.0340  1.0682  0.1342
   23MOL    H16 7980   6.312   4.512   7.552 -0.0364 -1.1176 -0.1562
   23MOL    H17 7981   6.190   4.412   7.636  0.1192 -0.2988 -1.2241
   23MOL    H18 7982   6.355   4.408   7.683  0.1360  1.3154  2.6028
   23MOL    H19 7983   5.961   4.710   0.180  1.3875 -0.6870 -0.7536
   23MOL    C20 7984   5.887   4.662   7.623  0.0298  0.3768 -0.9382
   23MOL    C21 7985   5.744   4.628   7.661  0.6170  0.1298  0.0678
   23MOL    C22 7986   5.650   4.703   7.559 -0.4827 -0.1991 -0.6470
   23MOL    C23 7987   5.668   4.857   7.530 -0.5414  0.7733 -0.2825
   23MOL    C24 7988   5.569   4.902   7.427  0.1060  0.8111  0.0925
   23MOL    C25 7989   5.649   4.938   7.657  0.4858  0.4229  0.0646
   23MOL    H26 7990   5.900   4.770   7.631  2.1743  0.2484 -2.3545
   23MOL    H27 7991   5.916   4.640   7.520 -2.5219 -2.6466 -1.0943
   23MOL    H28 7992   5.726   4.673   0.007  1.9691 -1.3247  0.9885
   23MOL    H29 7993   5.547   4.705   7.594 -0.0684  1.9139  0.4967
   23MOL    H30 7994   5.652   4.648   7.465 -0.7599 -1.8585  0.3028
   23MOL    H31 7995   5.769   4.870   7.490  0.4700 -0.3899  1.8276
   23MOL    H32 7996   5.574   4.828   7.347 -0.9853  1.3601 -0.4879
   23MOL    H33 7997   5.583   5.005   7.394  1.7119  0.9545  1.1223
   23MOL    H34 7998   5.463   4.902   7.450  0.2635  2.3078  0.9271
   23MOL    H35 7999   5.681   5.041   7.643 -2.7244  1.6302  1.0967
   23MOL    H36 8000   5.543   4.957   7.679 -0.4512 -2.8986 -1.3075
   23MOL    H37 8001   5.702   4.902   7.745 -0.8149  0.4728  0.8913
   23MOL    C38 8002   5.711   4.474   7.664  0.4331  0.5124 -0.5964
   23MOL    C39 8003   5.571   4.422   7.701  0.2173  0.3121 -0.5150
   23MOL    C40 8004   5.526   4.452   0.095 -0.6000 -0.1962  0.3025
   23MOL    C41 8005   5.389   4.486   0.132 -0.1606  0.3437 -0.0755
   23MOL    C42 8006   5.320   4.594   0.046  0.4122 -0.2727  0.2739
   23MOL    C43 8007   5.387   4.519   0.284 -0.1605  0.2434 -0.7070
   23MOL    H44 8008   5.774   4.433   7.742 -2.0752 -1.8747  0.2470
   23MOL    H45 8009   5.743   4.433   7.568 -0.1939 -1.4233 -0.0156
   23MOL    H46 8010   5.509   4.484   7.636  1.1629  0.0914 -1.6466
   23MOL    H47 8011   5.585   4.542   0.114  0.2308 -0.2935 -1.7695
   23MOL    H48 8012   5.571   4.375   0.158 -0.3703  0.0173  0.3995
   23MOL    H49 8013   5.340   4.392   0.109 -0.1944  0.7344 -1.7137
   23MOL    H50 8014   5.346   4.697   0.070 -0.2698  0.2912 -1.3678
   23MOL    H51 8015   5.340   4.577   7.693  2.6365 -0.8874  0.7671
   23MOL    H52 8016   5.214   4.582   0.069  0.2523  1.6816  0.6528
   23MOL    H53 8017   5.419   4.622   0.296 -1.9747  0.6041  1.3437
   23MOL    H54 8018   5.453   4.452   0.340 -1.2905  0.3287  0.7440
   23MOL    H55 8019   5.286   4.504   0.322 -0.6686  0.8757 -1.7887
   23MOL    C56 8020   5.540   4.267   7.670 -0.4474  0.0271 -0.3524
   23MOL    C57 8021   5.531   4.212   7.524 -0.2419  0.8998  0.1171
   23MOL    C58 8022   5.385   4.218   7.470 -0.1177  0.7159  0.2649
   23MOL    C59 8023   5.310   4.354   7.476  0.0336  0.4000  0.8893
   23MOL    C60 8024   5.163   4.330   7.439 -0.1757  0.3141 -0.7278
   23MOL    C61 8025   5.367   4.466   7.388 -1.0866 -0.5006 -0.3739
   23MOL    H62 8026   5.446   4.239   7.718 -0.5172 -1.0425 -1.0947
   23MOL    H63 8027   5.606   4.209   7.735 -1.1435 -0.2476  0.1097
   23MOL    H64 8028   5.581   4.278   7.453 -0.8366 -0.5424 -1.6650
   23MOL    H65 8029   5.378   4.181   7.367  3.6974  1.3788 -0.3212
   23MOL    H66 8030   5.330   4.136   7.517 -1.2189  0.3978 -1.5246
   23MOL    H67 8031   5.302   4.368   7.584  1.5244 -3.3537  1.5746
   23MOL    H68 8032   5.119   4.251   7.500 -3.1329 -0.1810 -3.3319
   23MOL    H69 8033   5.148   4.293   7.338 -1.3498 -1.7605  0.1799
   23MOL    H70 8034   5.099   4.417   7.457 -1.4605 -1.2692  2.8072
   23MOL    H71 8035   5.365   4.450   7.280  0.1142 -0.6498 -0.3808
   23MOL    H72 8036   5.468   4.491   7.421 -0.3921 -2.0300 -1.2781
   23MOL    H73 8037   5.290   4.541   7.405 -2.7562 -2.0129 -0.9724
   23MOL    C74 8038   5.594   4.077   7.504  0.0539 -0.7612  0.2808
   23MOL    C75 8039   5.747   4.079   7.515 -0.5257 -0.1693 -0.7727
   23MOL    C76 8040   5.833   4.157   7.405 -0.5928 -0.0212  0.1670
   23MOL    C77 8041   5.945   4.235   7.477  0.1216  0.4602  0.3236
   23MOL    C78 8042   5.984   4.359   7.391 -0.3649 -0.6242 -0.4296
   23MOL    C79 8043   6.069   4.148   7.507 -0.0323  0.2422 -0.1562
   23MOL    H80 8044   5.566   4.047   7.403 -2.7045 -1.0291  1.0859
   23MOL    H81 8045   5.541   4.008   7.569 -0.0071  1.4884  2.6966
   23MOL    H82 8046   5.791   4.107   7.611  0.5714  0.8668 -1.5559
   23MOL    H83 8047   5.870   4.089   7.327  0.0033  2.6407 -1.9588
   23MOL    H84 8048   5.774   4.227   7.347  1.2357  0.3143 -1.3523
   23MOL    H85 8049   5.914   4.276   7.573  0.2701  1.7323 -0.1572
   23MOL    H86 8050   5.899   4.425   7.375 -0.4579 -0.7351 -0.3921
   23MOL    H87 8051   6.012   4.340   7.287  0.6505  0.7277 -0.4237
   23MOL    H88 8052   6.070   4.420   7.417 -0.6850  0.3567 -1.6260
   23MOL    H89 8053   6.153   4.206   7.546 -0.3581 -0.1294  1.1428
   23MOL    H90 8054   6.055   4.079   7.590 -0.7028  2.3003  1.4882
   23MOL    H91 8055   6.090   4.082   7.423  0.6833  1.5081 -0.9860
   23MOL    C92 8056   5.798   3.928   7.510  0.1129  0.5302  0.0711
   23MOL    C93 8057   5.749   3.847   7.630  0.5294  0.7146 -0.3225
   23MOL    C94 8058   5.722   3.702   7.589  0.2876 -0.2519 -0.4339
   23MOL    C95 8059   5.591   3.670   7.518  0.1644  0.0639 -0.0729
   23MOL    C96 8060   5.595   3.528   7.461  0.0869 -0.2781  0.2543
   23MOL    C97 8061   5.473   3.680   7.618  0.2975 -0.3034  0.2659
   23MOL    H98 8062   5.757   3.879   7.421  0.9158  3.0698 -1.7755
   23MOL    H99 8063   5.905   3.922   7.495  0.3869  0.6372  1.8743
   23MOL   H100 8064   5.652   3.873   7.672  0.2977 -0.0430 -0.3779
   23MOL   H101 8065   5.730   3.644   7.681 -2.3684 -1.7912 -1.1233
   23MOL   H102 8066   5.806   3.666   7.530  0.5293  0.8334 -0.7819
   23MOL   H103 8067   5.577   3.748   7.443 -0.8583 -0.9975 -1.0145
   23MOL   H104 8068   5.585   3.459   7.545 -1.1152  2.1720  2.1907
   23MOL   H105 8069   5.675   3.500   7.391 -0.3518 -0.8980 -0.0032
   23MOL   H106 8070   5.504   3.513   7.403  0.7877 -0.8567 -0.7285
   23MOL   H107 8071   5.436   3.780   7.642  0.5589 -0.3372  0.8145
   23MOL   H108 8072   5.511   3.637   7.711  1.0274  2.1746  1.1553
   23MOL   H109 8073   5.388   3.621   7.585 -0.5895  0.4258  1.2244
   23MOL   C110 8074   5.845   3.844   7.743 -0.5404  0.1525  0.3633
   23MOL   C111 8075   5.775   3.842   0.132 -1.1024  0.1442  0.0946
   23MOL   C112 8076   5.871   3.788   0.245 -0.0986 -0.2541 -0.8005
   23MOL   C113 8077   5.907   3.637   0.253 -0.4341 -1.0336  0.4819
   23MOL   C114 8078   5.791   3.545   0.280 -0.0982 -0.9036 -0.4365
   23MOL   C115 8079   6.017   3.615   0.360  0.0563  0.0171 -0.0664
   23MOL   H116 8080   5.904   3.936   7.743 -0.6230  0.2166  1.4076
   23MOL   H117 8081   5.917   3.763   7.741  0.6171  1.1270  1.7157
   23MOL   H118 8082   5.692   3.771   0.127 -1.1512  0.2338 -0.4020
   23MOL   H119 8083   5.832   3.809   0.345  1.0041  0.0236 -0.4263
   23MOL   H120 8084   5.960   3.846   0.222 -0.4955 -1.0140 -4.5482
   23MOL   H121 8085   5.953   3.611   0.157 -1.7117  0.7006 -0.6389
   23MOL   H122 8086   5.725   3.580   0.359  0.5858 -1.3267  0.3210
   23MOL   H123 8087   5.838   3.452   0.310  1.7775  0.2517  0.2977
   23MOL   H124 8088   5.737   3.515   0.190  3.0083 -1.3876 -2.2107
   23MOL   H125 8089   6.101   3.685   0.354  0.7852 -0.6987  1.5572
   23MOL   H126 8090   6.054   3.518   0.329  1.1188  0.7654 -1.1729
   23MOL   H127 8091   5.967   3.617   0.457 -0.9999  0.2320 -0.6072
   23MOL   C128 8092   5.726   3.983   0.174 -0.2846  0.6840 -0.1640
   23MOL   C129 8093   5.614   3.993   0.276  0.3168  0.1317 -0.0612
   23MOL   C130 8094   5.478   3.942   0.225  0.9726 -0.1478  0.1816
   23MOL   C131 8095   5.371   3.917   0.331  0.4952 -0.0301 -0.1058
   23MOL   C132 8096   5.230   3.963   0.282 -0.9744  0.2250 -0.3839
   23MOL   C133 8097   5.360   3.766   0.379  0.5819 -0.0035 -0.0210
   23MOL   H134 8098   5.699   4.045   0.089 -1.6486 -0.0138 -0.2542
   23MOL   H135 8099   5.814   4.025   0.224  0.2931 -1.1621  0.3821
   23MOL   H136 8100   5.647   3.914   0.344 -1.4493 -0.9377 -0.4127
   23MOL   H137 8101   5.445   4.003   0.141  1.3720 -2.0803 -1.4188
   23MOL   H138 8102   5.502   3.844   0.186  0.5616 -0.0970 -0.2033
   23MOL   H139 8103   5.399   3.967   0.424 -0.2760  1.7523 -0.8067
   23MOL   H140 8104   5.241   4.069   0.259 -0.8055  0.6197  1.3967
   23MOL   H141 8105   5.149   3.956   0.355  0.2644 -1.1621  0.9003
   23MOL   H142 8106   5.192   3.913   0.193 -0.9344  0.4782 -0.5433
   23MOL   H143 8107   5.447   3.724   0.431  1.1108 -0.3296 -1.1466
   23MOL   H144 8108   5.273   3.758   0.444  1.4939 -1.7525  1.0322
   23MOL   H145 8109   5.338   3.704   0.292  2.1444 -1.1747  0.3769
   23MOL   C146 8110   5.604   4.120   0.356 -0.7797  0.4100  0.2798
   23MOL   C147 8111   5.660   4.129   0.501 -0.0407 -0.4305  0.0376
   23MOL   C148 8112   5.593   4.243   0.591  0.5594 -0.5745 -0.1463
   23MOL   C149 8113   5.465   4.199   0.661  0.3822 -0.4841 -0.0211
   23MOL   C150 8114   5.492   4.084   0.761 -0.2979 -0.2859 -0.3288
   23MOL   C151 8115   5.399   4.317   0.740 -0.4108  0.9594  0.4788
   23MOL   H152 8116   5.497   4.139   0.367 -0.9903 -0.6328  0.0784
   23MOL   H153 8117   5.635   4.205   0.295 -0.5751  1.5300  1.9260
   23MOL   H154 8118   5.635   4.032   0.542  0.8692 -0.0573  1.5058
   23MOL   H155 8119   5.664   4.271   0.668 -0.0858 -1.1334  0.6649
   23MOL   H156 8120   5.570   4.332   0.532  0.7880 -0.2745  0.2175
   23MOL   H157 8121   5.398   4.171   0.580  1.2110  2.4377 -1.7812
   23MOL   H158 8122   5.564   4.122   0.833  1.3816 -2.8098 -0.5987
   23MOL   H159 8123   5.539   3.993   0.722  0.7677  0.5554 -1.0247
   23MOL   H160 8124   5.395   4.057   0.803  0.6691 -3.7176 -0.1609
   23MOL   H161 8125   5.302   4.298   0.785 -0.0019 -4.4817 -0.6814
   23MOL   H162 8126   5.371   4.394   0.667  1.2461  1.6349  0.5414
   23MOL   H163 8127   5.454   4.358   0.825  3.6194 -0.3694 -1.3562
   23MOL   C164 8128   5.822   4.148   0.494 -0.4272 -0.3279 -0.2118
   23MOL   C165 8129   5.896   4.102   0.625 -0.1924 -0.3240  0.0202
   23MOL   C166 8130   5.922   3.949   0.624 -0.7422  0.2496  0.2264
   23MOL   C167 8131   5.962   3.884   0.759  0.1971  0.0443  0.6898
   23MOL   C168 8132   5.862   3.903   0.871  0.2831  0.0906  0.2082
   23MOL   C169 8133   5.998   3.735   0.750 -0.1291 -0.1455  0.3982
   23MOL   H170 8134   5.866   4.098   0.408  1.6160  0.6234  0.2545
   23MOL   H171 8135   5.847   4.254   0.501  1.8956 -0.9284  1.1150
   23MOL   H172 8136   5.826   4.130   0.703  1.2583 -1.5028  1.7675
   23MOL   H173 8137   5.846   3.899   0.564 -0.0285  0.0777 -0.5351
   23MOL   H174 8138   6.009   3.938   0.560 -1.1524  0.9233 -0.4700
   23MOL   H175 8139   6.059   3.928   0.781  0.4070  0.7586 -1.5668
   23MOL   H176 8140   5.872   4.007   0.900 -2.2359  0.4558 -0.1064
   23MOL   H177 8141   5.881   3.841   0.959 -0.1329 -1.8476 -1.0187
   23MOL   H178 8142   5.765   3.881   0.827  1.2199  0.0289 -1.9074
   23MOL   H179 8143   6.056   3.732   0.658  2.8219  0.2896  2.2123
   23MOL   H180 8144   5.910   3.670   0.746 -0.4519  0.2890  0.3124
   23MOL   H181 8145   6.065   3.705   0.829 -0.1858  2.0737  1.3272
   23MOL   C182 8146   6.019   4.186   0.656 -0.0996 -0.1610 -0.1140
   23MOL   C183 8147   5.985   4.334   0.696  0.0853  0.2001  0.5101
   23MOL   C184 8148   6.058   4.374   0.828  0.1055  0.2212  0.0336
   23MOL   C185 8149   6.018   4.293   0.955 -0.9787  0.5706 -0.0490
   23MOL   C186 8150   6.102   4.332   1.084  0.1011 -0.1980 -0.0749
   23MOL   C187 8151   5.868   4.309   0.986 -0.8587 -0.4728  0.1109
   23MOL   H188 8152   6.091   4.188   0.574 -0.8649  1.5374 -0.7701
   23MOL   H189 8153   6.070   4.129   0.734  2.3361 -0.1076 -1.6038
   23MOL   H190 8154   5.880   4.352   0.719  0.3255  0.8304  1.1215
   23MOL   H191 8155   6.024   4.475   0.852  1.5670  0.5637  0.7029
   23MOL   H192 8156   6.167   4.381   0.830  0.1889  0.8741 -3.2284
   23MOL   H193 8157   6.031   4.185   0.942 -1.9075  0.3094  1.0736
   23MOL   H194 8158   6.208   4.321   1.060  0.1329 -1.2882  0.5580
   23MOL   H195 8159   6.079   4.269   1.169  1.6834  0.0804  0.5838
   23MOL   H196 8160   6.097   4.439   1.104  2.6140 -0.3422  1.5771
   23MOL   H197 8161   5.805   4.264   0.909  0.5841 -2.0327 -0.2011
   23MOL   H198 8162   5.838   4.413   0.993 -0.8851 -0.4510 -0.3106
   23MOL   H199 8163   5.853   4.264   1.084 -0.5661 -1.4513 -0.2889
   23MOL   C200 8164   6.041   4.424   0.582  0.1974 -0.2354 -0.0214
   23MOL   C201 8165   5.990   4.571   0.572 -0.0343 -0.4345 -0.3691
   23MOL   C202 8166   5.840   4.569   0.530 -0.3605  0.0800 -0.0157
   23MOL   C203 8167   5.755   4.662   0.606  0.1523  0.8257 -0.1161
   23MOL   C204 8168   5.617   4.676   0.534 -0.1082 -0.5081  0.3482
   23MOL   C205 8169   5.749   4.654   0.761  0.5894 -0.6216 -0.4354
   23MOL   H206 8170   6.018   4.389   0.481  1.7937  1.3507 -0.9497
   23MOL   H207 8171   6.148   4.415   0.596  0.0110 -1.8907  0.4982
   23MOL   H208 8172   5.998   4.625   0.666  1.3026  0.5954 -1.0542
   23MOL   H209 8173   5.835   4.602   0.426 -2.5131  0.0905  0.0716
   23MOL   H210 8174   5.801   4.467   0.538 -0.6667  0.1745 -0.2615
   23MOL   H211 8175   5.814   4.751   0.583 -1.0732  2.0849  1.5154
   23MOL   H212 8176   5.557   4.585   0.539  2.0312 -2.1261 -2.2735
   23MOL   H213 8177   5.626   4.709   0.430  2.0323  2.4133  1.3838
   23MOL   H214 8178   5.567   4.768   0.566  1.4312  0.3189  0.4186
   23MOL   H215 8179   5.792   4.561   0.800  0.2568 -0.9564 -0.8608
   23MOL   H216 8180   5.646   4.655   0.796  1.0309 -1.7109  0.9383
   23MOL   H217 8181   5.795   4.741   0.806  0.5921 -0.9107  0.1169
   23MOL   C218 8182   6.081   4.654   0.480  0.5106 -0.0532  0.0073
   23MOL   C219 8183   6.219   4.698   0.545  0.0791 -0.8559 -0.2127
   23MOL   C220 8184   6.207   4.843   0.602  1.0456 -0.0573 -0.6116
   23MOL   C221 8185   6.117   4.863   0.727  0.2390  0.2940  0.1546
   23MOL   C222 8186   6.170   4.784   0.850 -0.4369 -0.0579  1.1114
   23MOL   C223 8187   6.111   5.009   0.770  0.0665 -0.0793 -0.4235
   23MOL   H224 8188   6.108   4.608   0.385  0.6263 -0.9885  0.4892
   23MOL   H225 8189   6.036   4.749   0.451  1.8251  0.7790  0.6386
   23MOL   H226 8190   6.245   4.632   0.627  0.4524 -1.1902 -0.5969
   23MOL   H227 8191   6.303   4.891   0.621  0.8397  0.3243 -0.5444
   23MOL   H228 8192   6.174   4.903   0.517  0.3243  1.8552  0.9867
   23MOL   H229 8193   6.013   4.839   0.702  1.1567 -1.4794 -2.1899
   23MOL   H230 8194   6.278   4.791   0.850 -0.3936 -0.3053 -0.8371
   23MOL   H231 8195   6.127   4.824   0.942  1.9301 -0.1086  2.2566
   23MOL   H232 8196   6.152   4.677   0.841  1.2645 -0.0894 -3.2425
   23MOL   H233 8197   6.209   5.056   0.784  0.0663 -0.7187  2.0551
   23MOL   H234 8198   6.050   5.074   0.707 -0.2270  0.9167  0.8715
   23MOL   H235 8199   6.062   5.021   0.867 -0.8657  2.1942 -1.1445
   23MOL   C236 8200   6.325   4.690   0.431 -0.8565 -0.6001 -0.5809
   23MOL   C237 8201   6.470   4.670   0.496  0.3911  0.2071  0.4884
   23MOL   C238 8202   6.595   4.702   0.404  0.1290  0.6215 -0.1710
   23MOL   C239 8203   6.610   4.862   0.371 -0.6208  0.3051 -0.1375
   23MOL   C240 8204   6.639   4.943   0.486 -0.5891  0.1190 -0.6956
   23MOL   C241 8205   6.701   4.887   0.244 -0.2217 -0.2465  0.6519
   23MOL   H242 8206   6.322   4.778   0.367 -0.5430 -0.7520 -0.8061
   23MOL   H243 8207   6.299   4.602   0.371 -3.0097  1.3996 -2.7004
   23MOL   H244 8208   6.473   4.725   0.589  0.6070  2.4961 -0.8377
   23MOL   H245 8209   6.588   4.656   0.305 -1.2245 -0.0875  0.2323
   23MOL   H246 8210   6.683   4.676   0.463 -0.0998  0.3445  0.0551
   23MOL   H247 8211   6.508   4.888   0.341 -0.8350  0.4528  0.7105
   23MOL   H248 8212   6.632   5.051   0.468 -2.0724  0.2148  0.3896
   23MOL   H249 8213   6.746   4.936   0.503 -0.7393  1.6222  0.9729
   23MOL   H250 8214   6.595   4.913   0.581  0.3297  1.4471  0.1733
   23MOL   H251 8215   6.668   4.816   0.168  2.5843 -1.8432  0.8590
   23MOL   H252 8216   6.807   4.868   0.257 -0.4016 -1.3842  0.4868
   23MOL   H253 8217   6.699   4.990   0.206 -1.7483 -0.2404  0.6949
   23MOL   C254 8218   6.466   4.522   0.527  0.1684 -0.2483 -0.5848
   23MOL   C255 8219   6.561   4.489   0.643  0.3001 -0.2019  0.0583
   23MOL   C256 8220   6.496   4.518   0.780 -0.1805  0.4287 -0.1644
   23MOL   C257 8221   6.594   4.531   0.903 -0.4142  0.2145 -0.5521
   23MOL   C258 8222   6.515   4.538   1.034  0.1123 -0.6653  0.1350
   23MOL   C259 8223   6.677   4.662   0.896  0.2641  0.3703  0.1877
   23MOL   H260 8224   6.368   4.477   0.546 -1.9253  4.7872  1.4640
   23MOL   H261 8225   6.498   4.470   0.436  0.5887  0.0644 -0.6140
   23MOL   H262 8226   6.643   4.561   0.638 -1.0914  1.4078  0.0428
   23MOL   H263 8227   6.427   4.438   0.809 -1.3987  1.6637  0.3581
   23MOL   H264 8228   6.428   4.602   0.775 -1.0009 -0.2680 -1.0353
   23MOL   H265 8229   6.658   4.443   0.915  2.1844  1.9168 -1.4851
   23MOL   H266 8230   6.582   4.530   1.120 -2.1103 -0.8422  1.8911
   23MOL   H267 8231   6.433   4.468   1.045 -0.6217  0.3014  0.9544
   23MOL   H268 8232   6.459   4.632   1.040  0.7298 -0.3227  0.5626
   23MOL   H269 8233   6.740   4.671   0.985  1.0470  0.5066 -0.3756
   23MOL   H270 8234   6.747   4.678   0.814  0.0142 -0.4339 -0.1841
   23MOL   H271 8235   6.615   4.751   0.903  0.6601  0.6834 -0.2213
   23MOL   C272 8236   6.628   4.344   0.627 -0.7048  0.3563 -0.0031
   23MOL   C273 8237   6.754   4.343   0.534 -0.3606 -0.2539  1.4665
   23MOL   C274 8238   6.883   4.382   0.603  0.0459 -0.5746  0.5967
   23MOL   C275 8239   6.997   4.432   0.503  0.2747 -0.0086  0.2297
   23MOL   C276 8240   7.124   4.466   0.575 -0.3960 -0.5767 -0.2539
   23MOL   C277 8241   6.956   4.558   0.418 -0.3220 -0.4271 -0.6058
   23MOL   H278 8242   6.650   4.307   0.728 -1.0967  1.0243  0.3343
   23MOL   H279 8243   6.555   4.275   0.587 -0.1335  0.0897 -0.5922
   23MOL   H280 8244   6.731   4.420   0.461  0.4355 -1.1000  0.3208
   23MOL   H281 8245   6.923   4.311   0.676  1.4086  0.8324  1.2623
   23MOL   H282 8246   6.870   4.466   0.672 -1.8114 -1.4188  1.3048
   23MOL   H283 8247   7.018   4.347   0.439 -0.1070 -0.2312  0.4000
   23MOL   H284 8248   7.144   4.394   0.654 -2.7802 -0.4529  0.5080
   23MOL   H285 8249   7.203   4.461   0.500 -1.7806  0.3497 -1.8072
   23MOL   H286 8250   7.122   4.566   0.616 -1.2664 -0.2593 -1.0396
   23MOL   H287 8251   6.917   4.638   0.481 -0.9728  0.8715 -2.6095
   23MOL   H288 8252   7.048   4.602   0.377 -0.6185  1.6203  0.8320
   23MOL   H289 8253   6.877   4.533   0.347  0.9863 -3.2232 -1.1473
   23MOL   C290 8254   6.772   4.212   0.454  0.0812 -0.3256 -1.5355
   23MOL   C291 8255   6.720   4.212   0.307 -0.4300 -0.1173  0.4925
   23MOL   C292 8256   6.829   4.251   0.211 -0.2936  0.2093 -0.0417
   23MOL   C293 8257   6.789   4.314   0.069  0.7083 -0.0544  0.5142
   23MOL   C294 8258   6.708   4.445   0.087  0.2331 -0.2644 -0.1089
   23MOL   C295 8259   6.912   4.329   7.732  0.0613  0.5482  0.6619
   23MOL   H296 8260   6.878   4.187   0.457  0.2336 -0.0952 -4.0721
   23MOL   H297 8261   6.715   4.136   0.508 -1.8193 -0.2924 -3.4143
   23MOL   H298 8262   6.631   4.273   0.295 -0.3680 -0.3927 -1.5974
   23MOL   H299 8263   6.884   4.160   0.189  0.5047  0.2562  1.7085
   23MOL   H300 8264   6.901   4.323   0.250  4.2852 -2.4768 -3.0307
   23MOL   H301 8265   6.732   4.241   0.012  1.6804 -1.1929  0.9634
   23MOL   H302 8266   6.773   4.528   0.114  0.7851 -0.9885  0.8341
   23MOL   H303 8267   6.629   4.438   0.162  0.4637 -0.7039  0.0984
   23MOL   H304 8268   6.660   4.481   7.749  0.6563 -1.4908 -0.8382
   23MOL   H305 8269   6.882   4.358   7.632  0.6455  1.5018  0.7592
   23MOL   H306 8270   6.962   4.232   7.718 -1.7367 -0.3573  0.3836
   23MOL   H307 8271   6.980   4.402   0.024 -0.9736  1.7789  0.2225
   23MOL   C308 8272   6.669   4.069   0.266  0.2944  0.2285 -0.4233
   23MOL   C309 8273   6.515   4.047   0.297  0.8221  0.1250 -0.5633
   23MOL   C310 8274   6.433   4.093   0.175 -0.4613  0.1958 -0.5850
   23MOL   C311 8275   6.287   4.135   0.208 -0.0198 -0.6358 -0.4398
   23MOL   C312 8276   6.277   4.269   0.292  0.4108  0.0109  0.9127
   23MOL   C313 8277   6.187   4.129   0.093 -0.0335  0.2563  0.3942
   23MOL   H314 8278   6.682   4.052   0.160  1.4341  1.8251 -0.5469
   23MOL   H315 8279   6.725   3.991   0.318 -2.1427 -1.1317  0.2731
   23MOL   H316 8280   6.494   4.116   0.378 -1.3185 -1.7470  0.5140
   23MOL   H317 8281   6.432   4.016   0.099 -1.7864  0.2636 -0.6602
   23MOL   H318 8282   6.484   4.175   0.125  1.2432 -0.9425 -0.7047
   23MOL   H319 8283   6.245   4.062   0.278  1.6268 -0.7100  0.4904
   23MOL   H320 8284   6.333   4.274   0.385  0.9949  1.6211  0.4997
   23MOL   H321 8285   6.173   4.301   0.297  1.0661  2.5575 -0.5530
   23MOL   H322 8286   6.328   4.352   0.242 -1.0357  1.1551  1.3096
   23MOL   H323 8287   6.089   4.165   0.126 -0.7312 -0.1332 -1.2063
   23MOL   H324 8288   6.230   4.200   0.023 -0.4098 -0.8559 -1.0059
   23MOL   H325 8289   6.179   4.029   0.050 -0.1317  1.0392 -1.4250
   23MOL   C326 8290   6.471   3.902   0.332  0.2206  0.4526 -0.3119
   23MOL   C327 8291   6.534   3.848   0.470  0.3790 -0.7592  0.5001
   23MOL   C328 8292   6.563   3.695   0.475  0.0413  0.0330  0.0542
   23MOL   C329 8293   6.442   3.599   0.468 -0.4426 -0.3494  0.6002
   23MOL   C330 8294   6.411   3.569   0.315 -0.2898  0.1975 -0.2586
   23MOL   C331 8295   6.468   3.477   0.540 -0.1554 -0.0356 -0.1594
   23MOL   H332 8296   6.491   3.832   0.251  1.7213 -1.3158  1.5383
   23MOL   H333 8297   6.363   3.891   0.347  0.3537 -2.9092 -1.2817
   23MOL   H334 8298   6.629   3.902   0.473 -0.3541  0.5527  0.5793
   23MOL   H335 8299   6.640   3.674   0.401  0.0025  0.4651 -0.1093
   23MOL   H336 8300   6.604   3.681   0.575  2.8836 -0.2430 -1.1240
   23MOL   H337 8301   6.347   3.639   0.504 -0.2982  1.8665 -1.3186
   23MOL   H338 8302   6.501   3.564   0.254 -0.1111  1.9289 -0.1590
   23MOL   H339 8303   6.352   3.650   0.273 -1.5773 -0.2567  0.6224
   23MOL   H340 8304   6.351   3.481   0.291  0.4152 -0.1294 -0.8362
   23MOL   H341 8305   6.576   3.457   0.543  0.1888  1.3484 -2.1694
   23MOL   H342 8306   6.445   3.483   0.646 -0.5189 -1.8015 -0.1243
   23MOL   H343 8307   6.417   3.389   0.501 -0.5594  0.7427 -1.3953
   23MOL   C344 8308   6.446   3.893   0.598 -0.5246  0.1723  0.6885
   23MOL   C345 8309   6.528   3.976   0.700 -0.1855  0.3015 -0.3658
   23MOL   C346 8310   6.442   4.034   0.815 -0.0536  0.4153 -0.2100
   23MOL   C347 8311   6.408   3.927   0.922  0.4298 -0.5558  0.8947
   23MOL   C348 8312   6.308   3.986   1.024 -0.2253  0.0743 -0.1777
   23MOL   C349 8313   6.538   3.876   1.005 -0.1983  0.3710 -0.7494
   23MOL   H350 8314   6.386   3.813   0.640  2.4271 -3.0815 -1.0557
   23MOL   H351 8315   6.363   3.954   0.560 -1.2770 -0.2071  1.7082
   23MOL   H352 8316   6.575   4.060   0.649 -0.1870  0.9381  0.6522
   23MOL   H353 8317   6.505   4.110   0.860 -0.7636  1.3437 -0.7616
   23MOL   H354 8318   6.354   4.074   0.765 -0.3365 -0.7604 -0.6874
   23MOL   H355 8319   6.368   3.834   0.882 -0.2324 -0.3573  1.0875
   23MOL   H356 8320   6.277   3.916   1.101 -0.9425  2.5617  1.8580
   23MOL   H357 8321   6.363   4.067   1.071  0.9712  0.0739 -1.5186
   23MOL   H358 8322   6.215   4.019   0.977  0.2263  0.5506 -0.7453
   23MOL   H359 8323   6.606   3.846   0.925 -0.6564 -1.9763 -0.2745
   23MOL   H360 8324   6.533   3.796   1.078  2.0629 -0.5420 -1.5595
   23MOL   H361 8325   6.594   3.954   1.056  0.5248 -1.9136  2.0936
   23MOL   H362 8326   6.612   3.919   0.739 -0.3049 -0.6895 -1.5300
   24MOL     C1 8327   1.087   7.589   6.522 -0.7398 -0.6896 -0.3830
   24MOL     C2 8328   1.042   7.538   6.657  0.1747 -0.6844 -0.2041
   24MOL     C3 8329   1.000   7.391   6.636  1.4369 -0.2264  0.9241
   24MOL     C4 8330   1.094   7.287   6.586  0.1268  0.1143  0.4435
   24MOL     C5 8331   1.021   7.152   6.579 -0.1158 -0.7690 -0.3147
   24MOL     C6 8332   1.222   7.269   6.669  0.3309 -0.2011  0.3548
   24MOL     H7 8333   1.054   7.526   6.440  1.9977 -2.2423 -0.3322
   24MOL     H8 8334   1.054   7.692   6.511  1.1287 -0.2089 -1.7851
   24MOL     H9 8335   1.127   7.554   6.723 -0.1951 -0.0557  0.1220
   24MOL    H10 8336   0.974   7.340   6.729  1.7739 -1.0206  0.5804
   24MOL    H11 8337   0.913   7.399   6.570  2.0168  1.7933  0.3735
   24MOL    H12 8338   1.120   7.310   6.482  0.3474  1.3066  0.7498
   24MOL    H13 8339   0.937   7.166   6.510 -0.4525 -1.4926 -0.0477
   24MOL    H14 8340   1.084   7.076   6.533  1.3121  0.9886 -1.3548
   24MOL    H15 8341   0.990   7.121   6.679  0.3839  1.0934  0.4494
   24MOL    H16 8342   1.276   7.181   6.635 -0.4028 -0.2763 -0.6214
   24MOL    H17 8343   1.181   7.259   6.770  0.5160  0.8289  0.5402
   24MOL    H18 8344   1.287   7.356   6.659 -0.5043  0.2941 -0.9058
   24MOL    H19 8345   1.195   7.596   6.512 -0.5669 -1.6671  0.6791
   24MOL    C20 8346   0.933   7.631   6.704 -1.1100 -0.3512 -0.5600
   24MOL    C21 8347   0.867   7.607   6.842  0.6446 -0.4110 -0.3915
   24MOL    C22 8348   0.966   7.624   6.960  0.2255  0.4371  0.4075
   24MOL    C23 8349   0.995   7.484   7.020  0.1189 -0.2778  0.0755
   24MOL    C24 8350   1.137   7.483   7.089 -0.7166  0.1962  0.1513
   24MOL    C25 8351   0.889   7.432   7.111 -0.3863  0.3379 -0.4976
   24MOL    H26 8352   0.967   7.735   6.712  1.1787 -1.0091 -1.3930
   24MOL    H27 8353   0.854   7.617   6.631 -3.8420  0.8639  2.0561
   24MOL    H28 8354   0.829   7.505   6.832 -1.0427  0.1524  0.0391
   24MOL    H29 8355   0.919   7.686   7.037 -0.3707 -0.7350  0.9978
   24MOL    H30 8356   1.057   7.676   6.929  0.4469  0.3752  0.9507
   24MOL    H31 8357   0.999   7.409   6.942 -0.9794 -1.5668  1.2144
   24MOL    H32 8358   1.162   7.390   7.139  1.8090  0.6038 -0.2956
   24MOL    H33 8359   1.145   7.571   7.153  0.5766 -0.8246  1.4267
   24MOL    H34 8360   1.211   7.506   7.012  1.4439  1.2772  2.4683
   24MOL    H35 8361   0.787   7.426   7.075 -1.2199  0.8285  1.6880
   24MOL    H36 8362   0.913   7.347   7.176 -0.9835  0.8210  0.3599
   24MOL    H37 8363   0.859   7.500   7.191 -2.1833 -0.9189 -0.0728
   24MOL    C38 8364   0.737   7.691   6.861  0.5137 -0.2782  1.0315
   24MOL    C39 8365   0.631   7.650   6.763  0.2569 -0.1839 -0.0381
   24MOL    C40 8366   0.615   0.004   6.646 -0.6416 -0.2142  0.0671
   24MOL    C41 8367   0.533   7.724   6.519  0.3825 -0.0873  0.7159
   24MOL    C42 8368   0.600   7.613   6.430 -0.4259  0.2663  0.0200
   24MOL    C43 8369   0.495   0.094   6.437  0.0811  0.0835 -0.6363
   24MOL    H44 8370   0.756   0.046   6.864  2.7701 -0.6322  0.1673
   24MOL    H45 8371   0.705   7.678   6.965  2.3668 -2.2986  1.3731
   24MOL    H46 8372   0.657   7.554   6.718 -0.1913  0.2554 -1.2483
   24MOL    H47 8373   0.717   0.036   6.623 -0.4819 -0.8263 -0.0976
   24MOL    H48 8374   0.564   0.081   6.703 -0.0942 -0.7933  1.3788
   24MOL    H49 8375   0.438   7.675   6.541  0.8259  0.3884  3.9549
   24MOL    H50 8376   0.542   7.605   6.338  1.3263  0.2566 -1.0960
   24MOL    H51 8377   0.702   7.638   6.402 -0.8283  1.2213 -0.6088
   24MOL    H52 8378   0.594   7.512   6.469  0.0446 -0.2573 -1.2549
   24MOL    H53 8379   0.440   0.072   6.345  0.8523  1.8165 -1.5235
   24MOL    H54 8380   0.585   0.138   6.396  1.5794 -0.6177  1.7886
   24MOL    H55 8381   0.441   0.171   6.492  2.5642 -1.4960  4.3591
   24MOL    C56 8382   0.505   7.617   6.843  0.4100 -0.2021  0.7096
   24MOL    C57 8383   0.518   7.482   6.921  0.4598  0.0012 -0.4541
   24MOL    C58 8384   0.474   7.355   6.838 -0.0945  0.1805  0.1699
   24MOL    C59 8385   0.544   7.211   6.866  1.2242 -0.1150 -0.2906
   24MOL    C60 8386   0.699   7.217   6.841 -0.2352 -0.2704 -0.5700
   24MOL    C61 8387   0.485   7.087   6.787 -0.5097  0.3016 -0.2714
   24MOL    H62 8388   0.418   7.596   6.781  1.2456  0.7278 -0.7817
   24MOL    H63 8389   0.471   7.701   6.902 -0.4373 -1.4724  2.0820
   24MOL    H64 8390   0.617   7.482   6.968 -0.3247  2.2575  1.2702
   24MOL    H65 8391   0.365   7.351   6.840 -0.1674  0.5246 -1.5817
   24MOL    H66 8392   0.488   7.371   6.731  1.8310  1.1842  0.5523
   24MOL    H67 8393   0.519   7.177   6.966 -2.7891 -0.3946 -1.3036
   24MOL    H68 8394   0.745   7.127   6.882  2.6894  1.4432  0.0162
   24MOL    H69 8395   0.748   7.304   6.883  0.8785 -0.2405 -1.8990
   24MOL    H70 8396   0.721   7.216   6.734  1.3195 -2.0650 -0.2639
   24MOL    H71 8397   0.541   6.997   6.809  0.7199  1.0128 -0.4485
   24MOL    H72 8398   0.493   7.096   6.679 -0.1156 -0.9518 -0.3487
   24MOL    H73 8399   0.383   7.059   6.815 -0.0269 -0.6146  0.5958
   24MOL    C74 8400   0.443   7.474   7.058  0.0693  0.7774 -0.0910
   24MOL    C75 8401   0.460   7.584   7.166 -0.9532 -0.2012 -0.3468
   24MOL    C76 8402   0.446   7.526   7.308 -1.1361  0.4723 -0.4417
   24MOL    C77 8403   0.561   7.440   7.367  0.2814  0.3602  0.0512
   24MOL    C78 8404   0.526   7.359   7.492 -0.4684 -0.1420  0.8766
   24MOL    C79 8405   0.675   7.528   7.411 -0.0595  0.3374 -0.1243
   24MOL    H80 8406   0.475   7.380   7.103  1.4804  1.1511 -0.2791
   24MOL    H81 8407   0.335   7.464   7.046  0.2644 -0.4851 -1.0144
   24MOL    H82 8408   0.563   7.620   7.172 -1.5464  1.1879  1.9562
   24MOL    H83 8409   0.426   7.608   7.378  0.3269  0.7404 -0.3255
   24MOL    H84 8410   0.356   7.468   7.329 -0.4589  0.0012  1.2169
   24MOL    H85 8411   0.605   7.388   7.281 -0.9083 -0.4133 -0.1010
   24MOL    H86 8412   0.469   7.269   7.470  0.4542 -0.4175 -0.4691
   24MOL    H87 8413   0.474   7.418   7.567 -3.8695 -2.6694  0.6448
   24MOL    H88 8414   0.618   7.316   7.532 -0.7210 -0.1554  1.4391
   24MOL    H89 8415   0.760   7.462   7.429 -0.9965 -1.3721 -1.7556
   24MOL    H90 8416   0.684   7.605   7.334 -0.9066 -0.5292 -1.1035
   24MOL    H91 8417   0.641   7.588   7.495 -0.2854 -0.1619  0.1417
   24MOL    C92 8418   0.351   7.693   7.160 -0.1921  0.2852  0.1071
   24MOL    C93 8419   0.385   0.084   7.211 -0.1356  0.6240  0.3506
   24MOL    C94 8420   0.498   0.161   7.134 -0.5772 -0.1239  0.0086
   24MOL    C95 8421   0.579   0.261   7.233 -0.6015 -0.3651 -0.5922
   24MOL    C96 8422   0.661   0.176   7.353  0.1580 -0.2547 -0.2235
   24MOL    C97 8423   0.668   0.343   7.144  0.3986  1.0789 -0.6849
   24MOL    H98 8424   0.327   7.716   7.056 -0.3299  0.1070  0.0990
   24MOL    H99 8425   0.267   7.646   7.210  1.5157 -0.5923  2.2310
   24MOL   H100 8426   0.421   0.076   7.314  1.7446 -0.3046 -0.3586
   24MOL   H101 8427   0.466   0.215   7.045 -0.1487 -0.4600 -0.3415
   24MOL   H102 8428   0.563   0.080   7.102  1.6042  1.6150 -0.0390
   24MOL   H103 8429   0.509   0.331   7.280  0.3778  1.6533 -2.0664
   24MOL   H104 8430   0.682   0.075   7.319  1.3572  0.8797 -3.0680
   24MOL   H105 8431   0.592   0.168   7.437  2.4990 -0.0251  1.7478
   24MOL   H106 8432   0.751   0.217   7.399  0.4715  0.5612 -1.5380
   24MOL   H107 8433   0.730   0.407   7.205 -0.2253  0.2978  0.7965
   24MOL   H108 8434   0.617   0.410   7.075  0.6934  0.4220 -1.5625
   24MOL   H109 8435   0.721   0.276   7.075 -1.5829 -2.7997  1.3885
   24MOL   C110 8436   0.261   0.175   7.212  0.8646  0.3991  0.0692
   24MOL   C111 8437   0.154   0.135   7.324  0.0063 -0.2937 -0.3758
   24MOL   C112 8438   0.197   0.191   7.460  0.4079 -0.3126 -0.1345
   24MOL   C113 8439   0.120   0.127   7.584  0.2758 -0.1488  0.4638
   24MOL   C114 8440   0.146   0.201   7.715 -0.4181  0.1635  0.2372
   24MOL   C115 8441   0.156   7.730   7.606  0.0580 -0.3947 -0.3462
   24MOL   H116 8442   0.222   0.174   7.110  0.0069 -0.9280  0.3988
   24MOL   H117 8443   0.287   0.278   7.236  0.5782  0.6905 -0.8641
   24MOL   H118 8444   0.155   0.030   7.354  2.4367  0.6177  3.0007
   24MOL   H119 8445   0.176   0.298   7.459  1.5188 -0.0978 -2.4557
   24MOL   H120 8446   0.305   0.182   7.472  0.1482 -1.3046  1.7064
   24MOL   H121 8447   0.012   0.135   7.568 -0.0379 -2.1163  1.4579
   24MOL   H122 8448   0.250   0.198   7.750  0.2801  2.1589 -1.5513
   24MOL   H123 8449   0.089   0.171   0.050 -0.0488  0.0965  0.4592
   24MOL   H124 8450   0.115   0.302   7.692  0.4184  0.2892 -0.3606
   24MOL   H125 8451   0.124   7.666   7.524  0.3688 -0.0490 -0.7433
   24MOL   H126 8452   0.120   7.679   7.694 -0.7081  1.0603  0.2008
   24MOL   H127 8453   0.265   7.720   7.607  0.0796 -0.1325  0.1560
   24MOL   C128 8454   0.005   0.167   7.286 -0.1996 -0.0319  0.0827
   24MOL   C129 8455   7.656   0.052   7.311 -0.0496  0.0442 -0.1553
   24MOL   C130 8456   7.671   7.684   7.209 -0.6987 -0.3925 -0.3915
   24MOL   C131 8457   7.614   7.548   7.266  0.1355 -0.1490 -0.6020
   24MOL   C132 8458   7.609   7.446   7.162  0.2149  0.5259  0.0822
   24MOL   C133 8459   7.698   7.494   7.383  0.0121 -0.2359  0.2173
   24MOL   H134 8460   7.742   0.185   7.180 -0.3293  1.4964  0.3541
   24MOL   H135 8461   7.726   0.260   7.334  0.4482 -0.0293  0.5094
   24MOL   H136 8462   7.682   0.014   7.410 -1.8546 -2.1511 -0.4956
   24MOL   H137 8463   7.625   7.703   7.112 -2.3323 -1.4541  0.1561
   24MOL   H138 8464   0.023   7.670   7.180 -1.0303  0.7301 -2.2541
   24MOL   H139 8465   7.511   7.561   7.298  0.3224 -1.2844  0.5142
   24MOL   H140 8466   7.696   7.449   7.097 -1.0685  1.6201 -1.6512
   24MOL   H141 8467   7.531   7.468   7.089 -0.0364 -2.9041 -0.7648
   24MOL   H142 8468   7.582   7.345   7.194 -3.1573  1.6199  0.8684
   24MOL   H143 8469   7.698   7.566   7.465 -1.8435  0.0798 -0.0552
   24MOL   H144 8470   7.672   7.397   7.423  0.5136 -1.3924 -2.1436
   24MOL   H145 8471   0.049   7.484   7.347  0.3439  0.2202  1.0286
   24MOL   C146 8472   7.508   0.103   7.320 -0.0307 -0.6829 -0.5809
   24MOL   C147 8473   7.460   0.140   7.465 -0.1064 -0.3473 -0.0625
   24MOL   C148 8474   7.405   0.011   7.535  0.3352 -0.5203 -0.2521
   24MOL   C149 8475   7.406   7.737   7.686  0.3144 -0.2153 -0.1583
   24MOL   C150 8476   7.310   7.621   7.720 -0.6021 -0.6824 -0.4177
   24MOL   C151 8477   7.542   7.717   7.749  0.7942 -0.8439  0.1885
   24MOL   H152 8478   7.437   0.036   7.269 -1.5791  1.1625 -0.8984
   24MOL   H153 8479   7.504   0.187   7.251 -1.8699 -0.0478  0.2728
   24MOL   H154 8480   7.548   0.169   7.522  0.4474 -2.4456  0.2235
   24MOL   H155 8481   7.304   7.747   7.499  0.7719 -1.8349 -0.9409
   24MOL   H156 8482   7.448   7.670   7.497 -1.9571 -2.1474  1.0140
   24MOL   H157 8483   7.357   0.065   7.742 -1.2602 -1.1871 -0.1054
   24MOL   H158 8484   7.356   7.532   7.678 -0.5453 -0.8817  0.0633
   24MOL   H159 8485   7.211   7.632   7.678 -0.9402 -0.7076  0.3528
   24MOL   H160 8486   7.302   7.616   0.077  2.5544 -0.5082 -0.1253
   24MOL   H161 8487   7.526   7.690   0.101  0.5502 -0.1456  0.3362
   24MOL   H162 8488   7.592   0.060   7.730  1.2177 -1.2470 -0.7364
   24MOL   H163 8489   7.605   7.648   7.694  0.4865 -0.6829 -0.3687
   24MOL   C164 8490   7.353   0.252   7.465  0.0582  0.1187  0.3057
   24MOL   C165 8491   7.343   0.358   7.574  0.3221  0.0279  0.2654
   24MOL   C166 8492   7.471   0.448   7.564  0.7508 -0.0508  1.1919
   24MOL   C167 8493   7.503   0.526   7.697  0.3754 -0.5291 -0.1780
   24MOL   C168 8494   7.565   0.428   0.060  0.0748 -0.1285 -0.7127
   24MOL   C169 8495   7.590   0.655   7.668  0.0546  0.1499  0.0683
   24MOL   H170 8496   7.356   0.302   7.368  0.1656  0.1320  0.3156
   24MOL   H171 8497   7.260   0.197   7.478  0.3495 -0.5068 -0.2324
   24MOL   H172 8498   7.334   0.316   7.674 -1.3256 -1.3607 -0.4324
   24MOL   H173 8499   7.559   0.392   7.531  0.2505 -0.6510  0.8464
   24MOL   H174 8500   7.445   0.519   7.486 -1.9136 -1.4653  0.7043
   24MOL   H175 8501   7.412   0.576   7.730  1.1662  1.2152 -0.6133
   24MOL   H176 8502   7.620   0.482   0.136  0.5842 -0.1049 -1.0953
   24MOL   H177 8503   7.641   0.371   0.006  0.6992  1.4331 -1.5221
   24MOL   H178 8504   7.500   0.355   0.108 -0.2002 -0.0757 -0.9983
   24MOL   H179 8505   7.616   0.710   0.007 -1.7439  1.2967 -0.0957
   24MOL   H180 8506   7.531   0.724   7.608  1.1389  2.4456  1.5349
   24MOL   H181 8507   7.679   0.622   7.614 -1.2544 -0.3434 -1.7893
   24MOL   C182 8508   7.220   0.448   7.558 -0.1348 -0.3635 -0.1410
   24MOL   C183 8509   7.085   0.399   7.601  0.2663 -0.0603 -0.7705
   24MOL   C184 8510   7.062   0.393   0.005  0.3426  0.1705 -0.2628
   24MOL   C185 8511   7.091   0.264   0.080  0.4566 -0.0570 -0.0161
   24MOL   C186 8512   7.140   0.283   0.222  0.0839  0.3058  0.6830
   24MOL   C187 8513   6.969   0.174   0.073  0.2678  0.5381  1.0332
   24MOL   H188 8514   7.214   0.473   7.452 -0.7472  0.1381  0.0026
   24MOL   H189 8515   7.231   0.547   7.603 -1.7613 -0.2548  0.0606
   24MOL   H190 8516   7.069   0.296   7.568  0.3279 -0.7154  1.2042
   24MOL   H191 8517   6.958   0.419   0.025 -0.0349 -0.4607 -1.3857
   24MOL   H192 8518   7.113   0.481   0.044  0.1748 -0.4081  1.2970
   24MOL   H193 8519   7.162   0.200   0.027  0.3167 -0.2947  0.0839
   24MOL   H194 8520   7.061   0.335   0.276  0.7420  0.1216  1.8360
   24MOL   H195 8521   7.234   0.334   0.239  0.6593 -0.0792 -1.2626
   24MOL   H196 8522   7.162   0.192   0.278  0.5368  0.4318  0.7126
   24MOL   H197 8523   6.993   0.079   0.122 -0.8855  1.7851  4.1426
   24MOL   H198 8524   6.936   0.160   7.723  0.4324  1.1112  0.9008
   24MOL   H199 8525   6.881   0.220   0.117  0.9939  0.8607  2.1982
   24MOL   C200 8526   6.977   0.496   7.527  0.1954  0.0167 -0.0383
   24MOL   C201 8527   6.835   0.436   7.521 -0.1460 -0.0681  0.3500
   24MOL   C202 8528   6.813   0.338   7.400  0.6277 -0.5466 -0.2069
   24MOL   C203 8529   6.696   0.243   7.409 -0.5658  0.3705 -0.1185
   24MOL   C204 8530   6.684   0.158   7.280  0.0274 -0.0954 -0.1619
   24MOL   C205 8531   6.715   0.158   7.536 -0.4290  0.3496  0.3891
   24MOL   H206 8532   7.005   0.517   7.424 -0.2895 -0.6998 -0.3245
   24MOL   H207 8533   6.985   0.586   7.587  0.2915  0.1152 -0.2025
   24MOL   H208 8534   6.819   0.382   7.614 -1.0181  0.3769  0.4629
   24MOL   H209 8535   6.800   0.397   7.310  0.4832 -0.2904 -0.0186
   24MOL   H210 8536   6.906   0.283   7.384  2.8193  2.6576  0.9638
   24MOL   H211 8537   6.600   0.289   7.431 -0.3187  0.8568 -0.0586
   24MOL   H212 8538   6.657   0.224   7.197 -0.5055 -2.0841 -1.5885
   24MOL   H213 8539   6.603   0.086   7.284  0.0892 -0.1882 -0.5829
   24MOL   H214 8540   6.780   0.112   7.256  1.0911  2.1431 -0.4086
   24MOL   H215 8541   6.807   0.102   7.529 -0.0827  0.9550  0.0315
   24MOL   H216 8542   6.636   0.083   7.531  1.7460 -1.9268 -0.7905
   24MOL   H217 8543   6.696   0.201   7.635  1.3180 -1.8187  1.7121
   24MOL   C218 8544   6.727   0.547   7.512 -0.4945  0.0752  0.1445
   24MOL   C219 8545   6.712   0.652   7.623 -0.1816 -0.5972  0.4316
   24MOL   C220 8546   6.676   0.595   0.010  0.1476  0.7562  0.7710
   24MOL   C221 8547   6.720   0.683   0.122  0.6892 -0.0576 -0.0139
   24MOL   C222 8548   6.608   0.727   0.217  0.1529 -0.0869  0.6418
   24MOL   C223 8549   6.850   0.630   0.186 -0.0686  0.1316 -0.1164
   24MOL   H224 8550   6.752   0.603   7.422 -0.3216  1.6109  1.1377
   24MOL   H225 8551   6.631   0.498   7.493  0.2072 -0.7934 -1.2874
   24MOL   H226 8552   6.804   0.710   7.635 -0.5569 -0.3238  2.1294
   24MOL   H227 8553   6.572   0.565   0.022  0.2272 -2.4186 -4.7679
   24MOL   H228 8554   6.724   0.498   0.015  1.0919  1.2001  0.4954
   24MOL   H229 8555   6.748   0.777   0.075  1.0515  0.9499  2.1323
   24MOL   H230 8556   6.559   0.644   0.267  0.3499 -1.5712 -1.5713
   24MOL   H231 8557   6.654   0.789   0.294  0.7987 -0.9733  0.9701
   24MOL   H232 8558   6.534   0.789   0.166  1.9215  1.8374  0.3389
   24MOL   H233 8559   6.851   0.527   0.219  2.7720  0.7808  2.0551
   24MOL   H234 8560   6.930   0.649   0.114 -2.0875  2.5301 -1.8165
   24MOL   H235 8561   6.880   0.692   0.271  1.0238  0.0169 -0.4179
   24MOL   C236 8562   6.607   0.758   7.588  0.0786  0.8829  0.8981
   24MOL   C237 8563   6.671   0.858   7.486 -0.4483 -0.4504  0.1612
   24MOL   C238 8564   6.749   0.973   7.555 -0.9744  0.8771 -0.6159
   24MOL   C239 8565   6.675   1.067   7.651  0.3112 -0.4378  0.5426
   24MOL   C240 8566   6.737   1.082   0.034 -0.2606 -0.2346 -0.6767
   24MOL   C241 8567   6.651   1.212   7.603 -0.5262 -0.2080  0.6309
   24MOL   H242 8568   6.570   0.809   7.678 -0.4697 -0.6271  1.5373
   24MOL   H243 8569   6.516   0.709   7.552  0.4899  3.2681 -3.7099
   24MOL   H244 8570   6.745   0.814   7.419  1.6620  0.4453  1.8330
   24MOL   H245 8571   6.782   1.031   7.469  0.7103 -0.8168 -1.1536
   24MOL   H246 8572   6.838   0.928   7.601 -2.0603 -1.3527 -0.6481
   24MOL   H247 8573   6.572   1.035   7.667 -0.0121  1.5771  2.8002
   24MOL   H248 8574   6.834   1.131   0.038 -0.0463 -0.7523  1.1547
   24MOL   H249 8575   6.753   0.988   0.088 -0.1548 -0.0851 -0.4454
   24MOL   H250 8576   6.675   1.147   0.096  1.2046  0.0196  0.5479
   24MOL   H251 8577   6.586   1.262   7.674 -0.7669 -0.1354  0.3597
   24MOL   H252 8578   6.608   1.204   7.503  1.6539  0.6167 -0.4122
   24MOL   H253 8579   6.741   1.273   7.601 -1.5333  1.2544 -1.8477
   24MOL   C254 8580   6.560   0.920   7.399 -0.0500  0.1401 -0.1107
   24MOL   C255 8581   6.598   0.956   7.254 -0.1057 -0.7982 -0.0661
   24MOL   C256 8582   6.634   0.835   7.165 -0.7645  0.2407  0.8352
   24MOL   C257 8583   6.525   0.728   7.139 -0.5850  0.4624 -0.1585
   24MOL   C258 8584   6.581   0.590   7.159 -0.2813 -0.3235  0.2561
   24MOL   C259 8585   6.482   0.737   6.990  0.5238 -0.7460 -0.8525
   24MOL   H260 8586   6.476   0.851   7.394  1.7206 -1.9280 -2.6602
   24MOL   H261 8587   6.519   1.005   7.453 -1.2774 -1.9561  2.3698
   24MOL   H262 8588   6.693   1.009   7.263 -0.0105 -0.9710 -0.0623
   24MOL   H263 8589   6.724   0.787   7.202  0.1734  1.1947 -0.1781
   24MOL   H264 8590   6.675   0.885   7.077  1.1414 -0.8403  1.0947
   24MOL   H265 8591   6.443   0.750   7.208 -1.5674 -2.4963 -0.2971
   24MOL   H266 8592   6.668   0.580   7.095 -0.8346 -1.1275 -0.3871
   24MOL   H267 8593   6.508   0.511   7.138 -0.9750  0.2076  0.6213
   24MOL   H268 8594   6.627   0.572   7.256  0.8168 -1.9719 -0.5523
   24MOL   H269 8595   6.411   0.655   6.973 -1.7250  0.6904  1.3234
   24MOL   H270 8596   6.438   0.836   6.989  1.2068 -0.4315 -0.1790
   24MOL   H271 8597   6.559   0.716   6.916  1.5741  0.3451 -0.0824
   24MOL   C272 8598   6.491   1.039   7.192  0.5113  0.4428 -0.4624
   24MOL   C273 8599   6.542   1.141   7.087  0.4336  0.2160  0.5494
   24MOL   C274 8600   6.431   1.194   6.996  0.3804  0.0691  0.8977
   24MOL   C275 8601   6.376   1.095   6.883 -0.2367 -1.3537 -0.1547
   24MOL   C276 8602   6.485   1.055   6.781 -0.2030 -0.2727 -0.3884
   24MOL   C277 8603   6.253   1.163   6.807  0.3908 -0.4100 -0.4861
   24MOL   H278 8604   6.410   0.977   7.152 -0.7388  0.0487  2.5504
   24MOL   H279 8605   6.436   1.099   7.265 -0.5998  0.5589 -1.3698
   24MOL   H280 8606   6.605   1.081   7.020  1.8804 -1.2540  3.1422
   24MOL   H281 8607   6.473   1.286   6.954 -0.1735  0.0496  0.2897
   24MOL   H282 8608   6.344   1.222   7.056 -0.2015  1.1743 -0.4222
   24MOL   H283 8609   6.334   1.013   6.940 -0.6354  0.3357  2.0177
   24MOL   H284 8610   6.427   1.010   6.701 -0.5175 -1.5895  0.5608
   24MOL   H285 8611   6.557   1.133   6.755  0.5777 -0.7879  0.1812
   24MOL   H286 8612   6.548   0.977   6.825 -1.4578 -0.5261  0.9784
   24MOL   H287 8613   6.170   1.199   6.869  0.0973  1.3108 -1.8488
   24MOL   H288 8614   6.278   1.250   6.746  0.5640 -0.2265 -0.1552
   24MOL   H289 8615   6.196   1.095   6.744  0.8097  0.0272 -1.3362
   24MOL   C290 8616   6.615   1.256   7.141 -0.1023 -0.1520  0.4629
   24MOL   C291 8617   6.725   1.327   7.053 -0.5322 -0.3204  0.4273
   24MOL   C292 8618   6.759   1.464   7.121  0.1222  0.4554 -0.2675
   24MOL   C293 8619   6.664   1.580   7.098 -0.4648  0.2827  0.2215
   24MOL   C294 8620   6.702   1.695   7.203 -0.3259 -0.1040 -0.4259
   24MOL   C295 8621   6.656   1.639   6.959  0.5479  0.2882 -0.9710
   24MOL   H296 8622   6.542   1.332   7.168 -0.5720 -0.8453  1.1528
   24MOL   H297 8623   6.662   1.226   7.235  1.6194 -2.2720 -1.0120
   24MOL   H298 8624   6.692   1.360   6.954  1.8009 -1.8339 -0.8899
   24MOL   H299 8625   6.850   1.504   7.075  0.3732  0.0885 -0.0901
   24MOL   H300 8626   6.779   1.450   7.227  1.4013 -1.4183 -0.7306
   24MOL   H301 8627   6.563   1.557   7.132 -0.3554  0.6169  0.7801
   24MOL   H302 8628   6.659   1.681   7.302  0.0300 -0.3019 -0.2974
   24MOL   H303 8629   6.663   1.791   7.172  0.7630  0.6350  0.4518
   24MOL   H304 8630   6.807   1.722   7.210  0.4366 -1.8987 -3.8722
   24MOL   H305 8631   6.578   1.714   6.953  0.3970  0.1158 -1.1709
   24MOL   H306 8632   6.625   1.569   6.882  0.6584  0.0809 -0.8276
   24MOL   H307 8633   6.758   1.672   6.942  0.5693  0.0448 -1.3195
   24MOL   C308 8634   6.861   1.250   7.038  0.0366  0.0753 -0.3851
   24MOL   C309 8635   6.945   1.286   6.912 -0.2923 -0.8371 -0.3315
   24MOL   C310 8636   7.098   1.268   6.936 -0.0117 -0.7009  0.4890
   24MOL   C311 8637   7.197   1.377   6.982 -0.8849  0.6366 -0.0517
   24MOL   C312 8638   7.337   1.322   7.012  0.3038  0.7638  0.1178
   24MOL   C313 8639   7.208   1.490   6.882 -0.2911 -0.5739 -0.6434
   24MOL   H314 8640   6.921   1.242   7.128 -0.4749  0.3887 -0.0177
   24MOL   H315 8641   6.836   1.144   7.025  0.5005 -0.4968  3.0676
   24MOL   H316 8642   6.926   1.393   6.904  0.2562 -0.7488 -0.5315
   24MOL   H317 8643   7.137   1.237   6.838  2.2410  1.5000  0.6519
   24MOL   H318 8644   7.105   1.181   7.001  2.5401 -0.1682  0.9724
   24MOL   H319 8645   7.158   1.430   7.069 -0.2291  0.1572  0.5344
   24MOL   H320 8646   7.416   1.387   7.049 -1.0330  1.0217  2.6686
   24MOL   H321 8647   7.367   1.255   6.932 -1.4968 -0.7110  0.6313
   24MOL   H322 8648   7.335   1.253   7.097 -1.4152 -1.3277 -1.5517
   24MOL   H323 8649   7.268   1.570   6.925 -0.4431 -3.0248  4.5607
   24MOL   H324 8650   7.270   1.462   6.797  1.4666  0.7002  0.1987
   24MOL   H325 8651   7.114   1.522   6.836 -1.2176  0.9861  2.2088
   24MOL   C326 8652   6.878   1.225   6.777 -0.0967  0.6159 -0.2172
   24MOL   C327 8653   6.920   1.288   6.646 -0.3493  0.0545  0.0550
   24MOL   C328 8654   6.850   1.424   6.609 -0.3202  0.1475 -0.2238
   24MOL   C329 8655   6.932   1.504   6.502  0.4968 -0.2850  0.0717
   24MOL   C330 8656   6.837   1.605   6.443  0.0624  0.3379 -0.3343
   24MOL   C331 8657   7.047   1.587   6.566 -1.2131  0.5492  0.7594
   24MOL   H332 8658   6.771   1.205   6.787 -0.3881  2.8194  1.7165
   24MOL   H333 8659   6.918   1.124   6.775 -1.4990 -0.0376  2.6091
   24MOL   H334 8660   7.028   1.305   6.653 -0.6218  1.3906  1.1991
   24MOL   H335 8661   6.753   1.400   6.565 -1.2798 -2.8237  3.2713
   24MOL   H336 8662   6.842   1.487   6.697 -3.4559 -0.1452 -0.2601
   24MOL   H337 8663   6.960   1.441   6.418  0.6847 -0.2380  0.0987
   24MOL   H338 8664   6.890   1.668   6.372  0.9968 -0.0934 -0.0301
   24MOL   H339 8665   6.793   1.659   6.527  2.2187  1.7729 -0.0909
   24MOL   H340 8666   6.756   1.566   6.381  0.9882 -1.1884 -0.6058
   24MOL   H341 8667   7.021   1.654   6.648 -3.1030 -1.2622  1.6504
   24MOL   H342 8668   7.125   1.517   6.595 -1.2184 -1.0272 -2.7076
   24MOL   H343 8669   7.093   1.661   6.499  1.7637 -1.7754  0.1025
   24MOL   C344 8670   6.888   1.183   6.539  0.1536  0.7333 -0.2133
   24MOL   C345 8671   7.009   1.123   6.468 -0.9124 -0.5230 -0.4594
   24MOL   C346 8672   7.074   1.029   6.573 -0.1622 -0.1432 -0.6293
   24MOL   C347 8673   7.194   0.947   6.532 -0.3954 -0.0462  0.3771
   24MOL   C348 8674   7.317   1.033   6.502  1.2272  0.1876  0.1820
   24MOL   C349 8675   7.178   0.840   6.427  0.0273  0.2287  0.2158
   24MOL   H350 8676   6.830   1.232   6.461 -0.2970  0.9272  0.2403
   24MOL   H351 8677   6.816   1.111   6.577  0.2881  2.1163  2.8617
   24MOL   H352 8678   7.076   1.185   6.409  0.4684 -0.6445  0.9431
   24MOL   H353 8679   7.096   1.083   6.665 -1.5059 -1.4391  0.4885
   24MOL   H354 8680   7.009   0.954   6.618 -1.0194  0.3163 -1.0935
   24MOL   H355 8681   7.222   0.903   6.628  1.1866 -0.3484 -0.2090
   24MOL   H356 8682   7.311   1.069   6.399 -1.1615  1.2861  0.6740
   24MOL   H357 8683   7.316   1.124   6.562  0.3282  1.1370 -1.2469
   24MOL   H358 8684   7.417   1.001   6.530  0.8984 -0.4276  0.6563
   24MOL   H359 8685   7.272   0.786   6.416 -0.9161 -1.0430 -1.9563
   24MOL   H360 8686   7.160   0.902   6.339 -0.9608 -0.8089 -0.3169
   24MOL   H361 8687   7.091   0.775   6.434  0.5608 -0.2774  2.3940
   24MOL   H362 8688   6.967   1.057   6.392 -1.0532  0.0538 -0.8919
   25MOL     C1 8689   1.268   6.832   3.571 -0.7123 -0.2194  0.2445
   25MOL     C2 8690   1.150   6.909   3.642 -0.1690 -0.3625 -0.0788
   25MOL     C3 8691   1.057   6.971   3.536  0.3293 -0.2478  0.8337
   25MOL     C4 8692   0.975   6.874   3.447 -0.0940 -0.5089  0.4503
   25MOL     C5 8693   0.898   6.948   3.337 -0.1426  0.0570  0.2103
   25MOL     C6 8694   0.877   6.789   3.536 -0.0024 -0.0936  1.1775
   25MOL     H7 8695   1.316   6.900   3.501 -0.4308  1.0797  1.6727
   25MOL     H8 8696   1.331   6.785   3.647  0.1747 -1.8535 -1.4806
   25MOL     H9 8697   1.098   6.839   3.708 -1.1592 -1.0956 -1.6071
   25MOL    H10 8698   0.988   7.039   3.587 -0.8383  0.5461 -1.7233
   25MOL    H11 8699   1.119   7.027   3.467  0.6716 -0.8620  0.6393
   25MOL    H12 8700   1.046   6.806   3.399 -0.1863 -0.2151 -0.1050
   25MOL    H13 8701   0.812   7.003   3.376  2.1173  2.6329  1.7586
   25MOL    H14 8702   0.952   7.029   3.288 -2.5196  2.3314  1.2734
   25MOL    H15 8703   0.869   6.878   3.259 -0.4670  2.5511 -1.9807
   25MOL    H16 8704   0.917   6.748   3.629 -0.5964  0.7163  1.7971
   25MOL    H17 8705   0.835   6.699   3.491 -1.7182  1.0499  0.4436
   25MOL    H18 8706   0.785   6.841   3.561 -0.4570  0.2336 -1.0614
   25MOL    H19 8707   1.232   6.753   3.505 -1.1842  0.7574 -0.6858
   25MOL    C20 8708   1.226   7.023   3.717 -0.3747 -0.1697  0.0832
   25MOL    C21 8709   1.145   7.127   3.799  0.3043 -0.5991  0.5061
   25MOL    C22 8710   1.061   7.061   3.911  0.0249 -0.0874 -0.2378
   25MOL    C23 8711   0.916   7.028   3.870  0.0875 -0.7989 -0.2220
   25MOL    C24 8712   0.840   6.935   3.969  0.4021  0.2850 -0.0695
   25MOL    C25 8713   0.834   7.153   3.835 -0.3892 -0.5959  0.1926
   25MOL    H26 8714   1.293   6.972   3.787  0.4567 -1.4607 -1.6381
   25MOL    H27 8715   1.287   7.074   3.642 -0.0182 -0.8395 -0.0868
   25MOL    H28 8716   1.084   7.185   3.730  2.1180  0.5453 -0.1557
   25MOL    H29 8717   1.059   7.117   4.005  0.1562  0.6958 -0.6964
   25MOL    H30 8718   1.102   6.963   3.935  0.3200 -0.3793 -1.9043
   25MOL    H31 8719   0.932   6.973   3.777  1.2799 -1.0680  0.1339
   25MOL    H32 8720   0.815   6.988   4.061  0.0012  0.0341 -0.0337
   25MOL    H33 8721   0.903   6.850   3.996  2.7861  1.8935 -0.3876
   25MOL    H34 8722   0.743   6.899   3.934 -0.0529 -0.3505  1.7621
   25MOL    H35 8723   0.745   7.131   3.776 -0.3548  0.1834 -0.1470
   25MOL    H36 8724   0.802   7.203   3.926  0.4398 -1.6216  1.0791
   25MOL    H37 8725   0.876   7.241   3.787  2.2246 -1.0037  1.6059
   25MOL    C38 8726   1.250   7.229   3.867 -0.2322  0.5559  0.6278
   25MOL    C39 8727   1.203   7.366   3.916 -0.4232  0.9842 -0.2762
   25MOL    C40 8728   1.163   7.454   3.794  0.5456  0.4487  1.0019
   25MOL    C41 8729   1.069   7.569   3.819  0.1598  0.2222 -0.1747
   25MOL    C42 8730   0.940   7.529   3.886 -0.5269  0.5823 -0.4671
   25MOL    C43 8731   1.054   7.656   3.698  0.0429  0.3525  0.4288
   25MOL    H44 8732   1.335   7.229   3.797  1.4404 -1.0149  2.6016
   25MOL    H45 8733   1.302   7.166   3.940  3.9210 -0.6059 -3.0781
   25MOL    H46 8734   1.120   7.346   3.984 -1.2705 -0.1703 -1.6197
   25MOL    H47 8735   1.120   7.394   3.713  0.1153  1.7628  0.2558
   25MOL    H48 8736   1.255   7.490   3.748 -1.0695  1.2049 -1.7031
   25MOL    H49 8737   1.114   7.640   3.888  0.9016 -0.7494  0.3663
   25MOL    H50 8738   0.963   7.484   3.982 -1.0416 -2.5177 -1.7509
   25MOL    H51 8739   0.886   7.623   3.900 -1.4119  0.0895 -0.5222
   25MOL    H52 8740   0.874   7.471   3.821 -0.4661  0.3374 -0.3101
   25MOL    H53 8741   0.999   7.746   3.727 -0.4848  0.8295 -1.9788
   25MOL    H54 8742   0.985   7.609   3.627  1.9871  2.8342 -3.2143
   25MOL    H55 8743   1.146   7.684   3.647  1.7830  0.4012  3.4675
   25MOL    C56 8744   1.316   7.434   3.995 -0.2836  0.3851 -0.0704
   25MOL    C57 8745   1.325   7.390   4.142 -0.8539  0.3452  0.2260
   25MOL    C58 8746   1.323   7.512   4.238 -0.4464 -0.5324 -0.1165
   25MOL    C59 8747   1.194   7.593   4.243  0.2602 -0.4158 -0.5593
   25MOL    C60 8748   1.226   7.736   4.295  0.0011 -0.1143 -0.3945
   25MOL    C61 8749   1.082   7.530   4.328 -0.1370  0.7666  0.2372
   25MOL    H62 8750   1.296   7.541   3.991 -0.4700  0.3190 -1.0540
   25MOL    H63 8751   1.405   7.434   3.933 -0.9174 -0.2920 -0.9894
   25MOL    H64 8752   1.249   7.317   4.169 -0.6474  0.0935  0.1186
   25MOL    H65 8753   1.347   7.474   4.338  0.1174  0.9867  0.3280
   25MOL    H66 8754   1.406   7.575   4.208 -1.4011  0.5095 -0.5742
   25MOL    H67 8755   1.162   7.600   4.139  1.3953 -0.7993 -0.9395
   25MOL    H68 8756   1.271   0.001   4.393  0.6483  0.4687 -0.7870
   25MOL    H69 8757   1.134   0.042   4.295  0.7728  1.1658  0.9682
   25MOL    H70 8758   1.292   0.026   4.219  0.5815 -0.5502 -0.1388
   25MOL    H71 8759   1.081   7.422   4.316 -4.3923  0.7521  0.1867
   25MOL    H72 8760   0.991   7.583   4.301 -1.5611 -1.4517  0.5749
   25MOL    H73 8761   1.097   7.552   4.433  2.2522 -2.5729  0.6789
   25MOL    C74 8762   1.460   7.306   4.159 -0.7402 -1.0946 -0.5129
   25MOL    C75 8763   1.485   7.221   4.282  0.3147 -0.2346  0.3202
   25MOL    C76 8764   1.632   7.176   4.295 -0.1120  0.4107 -0.6468
   25MOL    C77 8765   1.688   7.175   4.436  0.6172 -0.7344  0.1008
   25MOL    C78 8766   1.734   7.312   4.484 -0.9219  0.0209 -0.2252
   25MOL    C79 8767   1.814   7.081   4.446 -0.2054  0.1231  0.3023
   25MOL    H80 8768   1.536   7.383   4.148 -2.7223  0.9893 -0.0769
   25MOL    H81 8769   1.481   7.251   4.067 -0.8471 -0.8122 -0.7089
   25MOL    H82 8770   1.461   7.284   4.368 -4.6245 -0.9161 -0.4351
   25MOL    H83 8771   1.645   7.075   4.256  0.2234  0.4286 -0.5835
   25MOL    H84 8772   1.701   7.235   4.234  0.6225 -0.9717 -1.1841
   25MOL    H85 8773   1.612   7.142   4.508 -0.1763 -0.0925 -0.4291
   25MOL    H86 8774   1.658   7.390   4.495 -1.3912 -0.6243  1.3102
   25MOL    H87 8775   1.808   7.362   4.422 -1.4943 -0.9993 -1.7662
   25MOL    H88 8776   1.782   7.295   4.581  2.3889  1.7351 -1.4782
   25MOL    H89 8777   1.786   6.979   4.420 -1.5478  0.8651 -1.2773
   25MOL    H90 8778   1.894   7.115   4.380 -2.5246  4.5115 -0.4335
   25MOL    H91 8779   1.854   7.075   4.547 -1.4206 -0.2002  0.7685
   25MOL    C92 8780   1.373   7.109   4.275  0.9298  0.0444  0.2186
   25MOL    C93 8781   1.395   6.979   4.359 -0.4762 -0.2025 -0.8137
   25MOL    C94 8782   1.349   6.991   4.507  0.3082 -0.4712 -0.1356
   25MOL    C95 8783   1.403   6.890   4.613 -0.0274 -0.6253  0.6882
   25MOL    C96 8784   1.553   6.861   4.612 -0.4254  0.3366  0.5697
   25MOL    C97 8785   1.359   6.915   4.758  0.5604  0.4376 -0.7235
   25MOL    H98 8786   1.278   7.147   4.312  0.3071 -1.7495  0.5150
   25MOL    H99 8787   1.347   7.081   4.173 -0.3731  0.9224  0.2924
   25MOL   H100 8788   1.503   6.970   4.364 -0.1310  3.0337 -1.1794
   25MOL   H101 8789   1.241   6.992   4.515  0.3629 -1.4819  0.8095
   25MOL   H102 8790   1.375   7.092   4.540  0.3869 -0.4830 -0.1627
   25MOL   H103 8791   1.356   6.794   4.591 -1.2722  0.4207 -1.3924
   25MOL   H104 8792   1.618   6.936   4.657  0.6062 -0.6184  0.7273
   25MOL   H105 8793   1.594   6.852   4.511 -1.5869 -0.6627  0.1758
   25MOL   H106 8794   1.574   6.768   4.666  0.6181  0.4224  0.3273
   25MOL   H107 8795   1.377   6.831   4.825 -0.3054  0.0912 -0.9255
   25MOL   H108 8796   1.254   6.941   4.764  0.2927 -0.6303 -0.6454
   25MOL   H109 8797   1.418   6.999   4.795  0.8987 -0.5636  1.0622
   25MOL   C110 8798   1.347   6.845   4.295 -0.2508 -0.2782  0.5972
   25MOL   C111 8799   1.456   6.775   4.210 -0.2325  0.1511  0.8954
   25MOL   C112 8800   1.457   6.619   4.229 -0.3630  0.6781  0.5458
   25MOL   C113 8801   1.527   6.577   4.366  0.0339  0.6360 -0.0743
   25MOL   C114 8802   1.677   6.609   4.373  0.3462  0.2349  0.1130
   25MOL   C115 8803   1.508   6.429   4.402 -0.1050  0.2867 -0.2605
   25MOL   H116 8804   1.254   6.857   4.238  1.4382 -1.2208 -2.4461
   25MOL   H117 8805   1.321   6.776   4.375  1.7800  0.3908  1.8542
   25MOL   H118 8806   1.548   6.807   4.259  0.7318 -1.7861  0.4334
   25MOL   H119 8807   1.520   6.579   4.149 -2.2792  1.2524 -1.3201
   25MOL   H120 8808   1.359   6.573   4.215 -0.6668  1.4621  0.0584
   25MOL   H121 8809   1.485   6.624   4.454  0.2322  2.2031 -0.7933
   25MOL   H122 8810   1.717   6.593   4.473 -0.8895  1.7657  0.8796
   25MOL   H123 8811   1.702   6.714   4.353 -0.9378  0.2174 -1.7290
   25MOL   H124 8812   1.740   6.547   4.308 -0.7308 -1.0013  0.2499
   25MOL   H125 8813   1.537   6.410   4.506 -1.3096  1.7775  0.3488
   25MOL   H126 8814   1.565   6.361   4.337  0.4136 -0.6854  1.1819
   25MOL   H127 8815   1.401   6.413   4.402 -0.2240  1.0811 -1.0674
   25MOL   C128 8816   1.461   6.827   4.064 -0.1672 -0.0528 -0.6708
   25MOL   C129 8817   1.591   6.815   3.992 -0.6161 -0.1770  0.8599
   25MOL   C130 8818   1.704   6.910   4.045  0.4472 -0.0761  0.0538
   25MOL   C131 8819   1.848   6.858   4.021 -0.9412  0.4369 -0.2983
   25MOL   C132 8820   1.967   6.959   4.049 -0.1803 -0.2275 -0.2995
   25MOL   C133 8821   1.881   6.724   4.080  0.3737 -0.1139 -0.2126
   25MOL   H134 8822   1.438   6.934   4.056 -1.4110 -0.0786  2.2117
   25MOL   H135 8823   1.373   6.785   4.015 -1.0809  0.8967  0.1372
   25MOL   H136 8824   1.620   6.710   3.989  1.1826  0.3282 -1.6162
   25MOL   H137 8825   1.696   7.014   4.010 -1.2920  0.3404  1.6354
   25MOL   H138 8826   1.691   6.910   4.153 -2.3362  2.0558 -0.2274
   25MOL   H139 8827   1.865   6.836   3.916 -0.5326  1.3012 -0.4206
   25MOL   H140 8828   1.952   7.005   4.147  0.9363  0.5866 -0.5042
   25MOL   H141 8829   1.959   7.035   3.972  1.2382 -0.6654 -0.8978
   25MOL   H142 8830   2.068   6.916   4.048  0.5319  1.1325  3.4429
   25MOL   H143 8831   1.807   6.647   4.060  0.3211 -0.0745 -0.1681
   25MOL   H144 8832   1.970   6.684   4.031  0.4151 -1.3072  0.8124
   25MOL   H145 8833   1.912   6.721   4.185 -0.0310  0.5178 -0.0738
   25MOL   C146 8834   1.566   6.846   3.841  0.8062  0.6472 -0.3754
   25MOL   C147 8835   1.631   6.744   3.737 -0.0649  0.1785 -0.2088
   25MOL   C148 8836   1.615   6.806   3.594  0.5291  0.4334  0.7043
   25MOL   C149 8837   1.718   6.922   3.564 -0.0179 -0.3325 -0.0630
   25MOL   C150 8838   1.863   6.891   3.576 -0.1226  0.4282 -0.1868
   25MOL   C151 8839   1.684   6.985   3.423 -0.4812 -0.1306 -0.4920
   25MOL   H152 8840   1.610   6.942   3.813 -1.2369  1.8918  0.5848
   25MOL   H153 8841   1.460   6.850   3.817  0.2841  1.7240  1.9979
   25MOL   H154 8842   1.734   6.726   3.768 -0.2387  1.2051  1.0199
   25MOL   H155 8843   1.633   6.730   3.517  1.3282  0.4719  0.8456
   25MOL   H156 8844   1.518   6.855   3.591  0.1803 -0.2334  1.1903
   25MOL   H157 8845   1.698   7.013   3.621  0.8328  0.7435 -1.4300
   25MOL   H158 8846   1.910   6.956   3.503  0.7633 -0.1284 -0.1153
   25MOL   H159 8847   1.890   6.791   3.545 -1.3242  0.0559 -0.0860
   25MOL   H160 8848   1.902   6.910   3.676  0.6104 -0.9286 -0.2111
   25MOL   H161 8849   1.710   6.910   3.348 -3.5639 -0.1098 -1.6417
   25MOL   H162 8850   1.738   7.079   3.411 -1.3892  0.4484 -0.0491
   25MOL   H163 8851   1.578   7.008   3.413 -0.4683  0.2206  0.1242
   25MOL   C164 8852   1.565   6.599   3.743 -0.1843  0.1005  0.1860
   25MOL   C165 8853   1.651   6.470   3.693 -0.0485 -0.3088  0.2413
   25MOL   C166 8854   1.768   6.431   3.792 -0.3050 -0.5442  0.4441
   25MOL   C167 8855   1.907   6.397   3.737 -0.3054  0.7078 -0.5133
   25MOL   C168 8856   1.980   6.516   3.680  0.7433  0.0546 -0.2733
   25MOL   C169 8857   1.991   6.348   3.855  0.2330 -0.0225  0.5022
   25MOL   H170 8858   1.532   6.590   3.847 -1.2405  3.0532  0.1570
   25MOL   H171 8859   1.474   6.604   3.684  0.2052  1.1692 -0.3365
   25MOL   H172 8860   1.697   6.503   3.600 -0.1715 -0.1773  0.2261
   25MOL   H173 8861   1.775   6.514   3.863 -2.9007  1.0071 -1.0205
   25MOL   H174 8862   1.745   6.347   3.857  3.1926 -1.3134  0.7871
   25MOL   H175 8863   1.904   6.318   3.662  0.5046  0.7109 -0.5547
   25MOL   H176 8864   1.995   6.596   3.752 -0.1577 -0.2204  0.2295
   25MOL   H177 8865   1.932   6.562   3.594 -0.8857 -1.7203 -0.3510
   25MOL   H178 8866   2.081   6.487   3.649  0.9339  1.6966 -1.2209
   25MOL   H179 8867   1.956   6.260   3.908  1.1331 -1.0725 -0.5969
   25MOL   H180 8868   2.000   6.426   3.931  2.0080  0.7385 -0.4534
   25MOL   H181 8869   2.093   6.341   3.817 -0.4110 -0.6963 -1.1833
   25MOL   C182 8870   1.547   6.353   3.677 -0.3472 -0.3892  0.1654
   25MOL   C183 8871   1.594   6.245   3.570  0.4973  0.2601  0.1172
   25MOL   C184 8872   1.522   6.104   3.582  0.5087 -0.4356 -0.4599
   25MOL   C185 8873   1.552   6.014   3.709  0.5760 -0.1070 -0.3342
   25MOL   C186 8874   1.446   5.909   3.725 -0.3402  0.3280 -0.1263
   25MOL   C187 8875   1.689   5.957   3.699 -0.7166  0.1481  0.0958
   25MOL   H188 8876   1.456   6.399   3.639 -0.2518 -1.1337 -1.0040
   25MOL   H189 8877   1.518   6.307   3.771  1.6486 -0.4275  0.7867
   25MOL   H190 8878   1.701   6.241   3.589  0.2383  0.9205  1.7587
   25MOL   H191 8879   1.538   6.044   3.492 -1.3348 -0.6436 -0.6578
   25MOL   H192 8880   1.416   6.124   3.572  0.7809  2.3535  1.7131
   25MOL   H193 8881   1.542   6.077   3.797 -1.5412  2.8298 -2.5628
   25MOL   H194 8882   1.468   5.838   3.805  2.3797  0.8458 -0.3430
   25MOL   H195 8883   1.437   5.855   3.631 -1.5306 -0.7288  0.5743
   25MOL   H196 8884   1.350   5.953   3.751  0.2642  1.7378 -0.2673
   25MOL   H197 8885   1.723   5.918   3.795 -0.1633  0.9139  0.2222
   25MOL   H198 8886   1.746   6.044   3.666  2.9160 -1.3933  1.9769
   25MOL   H199 8887   1.678   5.884   3.619 -0.9670  0.6985 -0.3803
   25MOL   C200 8888   1.574   6.307   3.424 -0.3149  0.4818 -0.2794
   25MOL   C201 8889   1.706   6.300   3.337 -0.7277 -0.4881  0.0462
   25MOL   C202 8890   1.694   6.381   3.208 -0.0523 -0.5348 -0.6597
   25MOL   C203 8891   1.704   6.532   3.212 -0.1193  0.3315 -0.0347
   25MOL   C204 8892   1.805   6.589   3.112  0.2985  0.2366 -0.1044
   25MOL   C205 8893   1.567   6.611   3.197 -0.3090 -0.5427  0.2455
   25MOL   H206 8894   1.565   6.415   3.432 -1.7476  0.3377  0.2025
   25MOL   H207 8895   1.481   6.266   3.382  0.2893  0.8676 -2.0277
   25MOL   H208 8896   1.778   6.354   3.398 -1.1879  2.3110 -1.7992
   25MOL   H209 8897   1.745   6.331   3.125  2.4842  0.6514  0.1379
   25MOL   H210 8898   1.589   6.358   3.194 -0.2003 -0.4174  0.2706
   25MOL   H211 8899   1.725   6.558   3.316 -4.1680  0.2920  0.8698
   25MOL   H212 8900   1.768   6.567   3.012 -1.2841 -2.0749  0.9386
   25MOL   H213 8901   1.904   6.548   3.134  0.1618  1.1633  2.5211
   25MOL   H214 8902   1.821   6.696   3.126  3.1820 -0.5777  3.6812
   25MOL   H215 8903   1.509   6.580   3.283 -0.5934  0.5445  0.4554
   25MOL   H216 8904   1.514   6.594   3.103  2.2902  0.1457 -1.4395
   25MOL   H217 8905   1.573   6.719   3.209 -1.8005 -0.3912 -0.3511
   25MOL   C218 8906   1.773   6.160   3.319 -0.3574  0.5625 -0.9498
   25MOL   C219 8907   1.919   6.165   3.276 -0.1447 -0.1846 -0.2368
   25MOL   C220 8908   1.961   6.034   3.214  0.2067 -0.2861 -0.1281
   25MOL   C221 8909   1.900   5.991   3.078 -0.3164 -0.4896 -0.1547
   25MOL   C222 8910   1.967   6.087   2.967 -0.3044  0.1048 -0.4311
   25MOL   C223 8911   1.942   5.847   3.036 -0.0662  0.3586 -0.0247
   25MOL   H224 8912   1.765   6.100   3.409 -1.3234  1.4009 -0.4691
   25MOL   H225 8913   1.720   6.107   3.240 -2.2916 -0.5608  1.0606
   25MOL   H226 8914   1.918   6.246   3.202  0.9142 -0.6594 -0.7843
   25MOL   H227 8915   2.070   6.032   3.211  0.3829  3.4272  1.2543
   25MOL   H228 8916   1.936   5.952   3.282  1.8713  1.2175  2.4095
   25MOL   H229 8917   1.792   6.002   3.072 -0.3337 -0.2290  0.5878
   25MOL   H230 8918   1.954   6.195   2.980  0.0476  0.3968 -2.3846
   25MOL   H231 8919   2.074   6.069   2.972 -0.6587 -1.9216  0.7349
   25MOL   H232 8920   1.930   6.061   2.868  2.2552  3.3574 -2.3659
   25MOL   H233 8921   2.045   5.825   3.064 -0.1040  1.0954  0.7168
   25MOL   H234 8922   1.889   5.779   3.103 -0.9317  0.1040 -0.9610
   25MOL   H235 8923   1.919   5.825   2.932  0.3431  0.9546 -0.2439
   25MOL   C236 8924   2.018   6.200   3.392 -0.4301 -0.8410  0.1267
   25MOL   C237 8925   2.145   6.279   3.354  0.6225  0.3598 -0.6846
   25MOL   C238 8926   2.253   6.261   3.464 -0.3334  0.4943  0.1052
   25MOL   C239 8927   2.322   6.125   3.465  0.4524  0.2157 -0.3443
   25MOL   C240 8928   2.415   6.107   3.341 -0.9404 -0.2085 -0.3705
   25MOL   C241 8929   2.406   6.110   3.592  0.4822  0.5667  0.2032
   25MOL   H242 8930   2.037   6.105   3.441 -0.1397  1.1504  4.0766
   25MOL   H243 8931   1.972   6.259   3.471  2.1025  2.5132 -0.8087
   25MOL   H244 8932   2.174   6.226   3.263  1.7292  0.0434 -0.1489
   25MOL   H245 8933   2.218   6.288   3.564  0.3439  0.7145  0.2860
   25MOL   H246 8934   2.331   6.333   3.440 -0.4846  0.2781 -1.0533
   25MOL   H247 8935   2.247   6.047   3.471 -0.6681  1.4595  4.4847
   25MOL   H248 8936   2.474   6.197   3.320  1.7221 -1.6049  0.8679
   25MOL   H249 8937   2.351   6.095   3.253 -1.1688  1.8254 -0.5018
   25MOL   H250 8938   2.495   6.034   3.351 -1.1242 -0.1345  1.8736
   25MOL   H251 8939   2.451   6.011   3.596  0.9088  0.7924  1.2027
   25MOL   H252 8940   2.341   6.128   3.676  1.0792  4.5924 -0.0888
   25MOL   H253 8941   2.478   6.192   3.595 -0.4957  1.4346  0.1822
   25MOL   C254 8942   2.126   6.430   3.329 -0.0345  0.8803 -0.4744
   25MOL   C255 8943   2.226   6.489   3.225  0.0919 -0.4804  0.2883
   25MOL   C256 8944   2.200   6.429   3.078  0.2501  0.7571  0.0966
   25MOL   C257 8945   2.274   6.501   2.959 -0.2602  0.2280  0.3407
   25MOL   C258 8946   2.226   6.444   2.825 -0.1114  0.0840 -1.0244
   25MOL   C259 8947   2.426   6.495   2.965  0.0325  0.1449  0.0939
   25MOL   H260 8948   2.028   6.445   3.285 -0.9331  1.4147  1.6475
   25MOL   H261 8949   2.134   6.484   3.424 -1.0992  3.6570 -1.9059
   25MOL   H262 8950   2.327   6.468   3.259  1.1735  1.5475 -1.5078
   25MOL   H263 8951   2.093   6.416   3.063 -0.2321  3.2926  1.0494
   25MOL   H264 8952   2.232   6.326   3.063 -2.2396  0.0974 -0.8249
   25MOL   H265 8953   2.239   6.603   2.947 -3.3116 -0.6693  1.0075
   25MOL   H266 8954   2.261   6.342   2.808  0.7565 -0.0906  1.5209
   25MOL   H267 8955   2.261   6.498   2.738 -1.0205  2.1448 -0.1375
   25MOL   H268 8956   2.119   6.447   2.806 -0.2237  0.3299 -0.3758
   25MOL   H269 8957   2.477   6.558   3.038 -0.4106  0.8554 -0.2056
   25MOL   H270 8958   2.455   6.394   2.994  0.5680  0.6456  1.3380
   25MOL   H271 8959   2.467   6.530   2.870  4.3268 -1.6850  1.1765
   25MOL   C272 8960   2.217   6.641   3.226 -0.7870  0.4474 -0.7172
   25MOL   C273 8961   2.271   6.715   3.351  0.1909 -0.4381 -0.5888
   25MOL   C274 8962   2.418   6.677   3.391 -0.0983  0.6595  0.1602
   25MOL   C275 8963   2.430   6.614   3.534  0.2103  0.2046 -0.0969
   25MOL   C276 8964   2.439   6.716   3.641 -0.0587 -1.0604 -0.2935
   25MOL   C277 8965   2.552   6.513   3.540  0.5025  0.5846 -0.1223
   25MOL   H278 8966   2.279   6.682   3.146  1.6093 -0.7250  0.4962
   25MOL   H279 8967   2.111   6.664   3.210 -1.2988 -0.5047  1.1472
   25MOL   H280 8968   2.217   6.685   3.441  0.0352 -1.2191 -0.9338
   25MOL   H281 8969   2.479   6.765   3.411  1.1766  0.2392 -1.8463
   25MOL   H282 8970   2.461   6.614   3.314 -1.5269  0.4082 -0.4605
   25MOL   H283 8971   2.349   6.544   3.555  1.0698 -1.4228 -1.9805
   25MOL   H284 8972   2.537   6.764   3.644 -1.0918  1.0761 -0.1700
   25MOL   H285 8973   2.359   6.788   3.627  1.3040  0.4697 -0.2565
   25MOL   H286 8974   2.421   6.668   3.738  1.2195 -2.7415 -0.8508
   25MOL   H287 8975   2.647   6.550   3.503  1.2573 -1.4656 -0.3399
   25MOL   H288 8976   2.573   6.475   3.641  0.7953 -1.6166 -0.9775
   25MOL   H289 8977   2.526   6.431   3.473 -0.5456 -0.6083  1.6737
   25MOL   C290 8978   2.243   6.872   3.349  0.2794  0.6565  0.6243
   25MOL   C291 8979   2.261   6.960   3.217  0.0396 -0.4039  0.1392
   25MOL   C292 8980   2.193   7.096   3.228 -0.1471  0.0255  0.1010
   25MOL   C293 8981   2.041   7.099   3.265 -0.7302 -0.2504 -0.1836
   25MOL   C294 8982   1.979   7.233   3.257 -0.0141 -0.4301 -0.4980
   25MOL   C295 8983   1.957   6.996   3.177 -0.3887 -0.6072 -0.3630
   25MOL   H296 8984   2.136   6.877   3.373 -0.1600  1.5756 -1.3624
   25MOL   H297 8985   2.299   6.915   3.432  0.9166  0.2154  0.4183
   25MOL   H298 8986   2.201   6.905   3.145  0.1422 -0.3346  0.0007
   25MOL   H299 8987   2.215   7.140   3.130  2.9039  0.6769  1.0230
   25MOL   H300 8988   2.244   7.157   3.302  1.0674 -2.0609  1.0254
   25MOL   H301 8989   2.022   7.061   3.365 -1.1537 -2.0554 -0.9232
   25MOL   H302 8990   1.890   7.239   3.320  1.4188 -1.0798  1.6474
   25MOL   H303 8991   1.945   7.250   3.155 -0.9798  1.2852  0.0932
   25MOL   H304 8992   2.046   7.314   3.286  0.8639 -0.9776 -0.9836
   25MOL   H305 8993   1.956   6.902   3.234 -0.0595 -1.4591 -1.7395
   25MOL   H306 8994   2.004   6.998   3.079 -0.2812 -1.2331 -0.3254
   25MOL   H307 8995   1.856   7.038   3.169  1.1444  3.3033 -0.1823
   25MOL   C308 8996   2.406   6.974   3.166  0.0927 -0.5030  0.2227
   25MOL   C309 8997   2.431   7.001   3.011  0.2268  0.1525 -0.1263
   25MOL   C310 8998   2.577   7.027   2.979 -0.0456  0.7143  0.4963
   25MOL   C311 8999   2.606   7.174   2.941  0.2342 -0.5486 -0.7015
   25MOL   C312 9000   2.560   7.273   3.048  0.3752 -0.6779  0.0970
   25MOL   C313 9001   2.755   7.193   2.904  0.1219  0.5710 -0.1569
   25MOL   H314 9002   2.466   7.047   3.220  0.2621  0.2747 -0.9916
   25MOL   H315 9003   2.453   6.884   3.205 -3.7260 -2.2971  0.9572
   25MOL   H316 9004   2.369   7.085   2.982 -0.5076  0.0254  1.0474
   25MOL   H317 9005   2.617   6.960   2.903 -0.3307  0.3355  0.6799
   25MOL   H318 9006   2.644   7.007   3.062 -0.5928 -0.5328  0.6480
   25MOL   H319 9007   2.546   7.194   2.853 -0.0816 -0.4198 -0.4605
   25MOL   H320 9008   2.453   7.286   3.069 -0.1431 -3.1372 -0.9515
   25MOL   H321 9009   2.586   7.376   3.024 -2.0674 -0.1799 -0.5772
   25MOL   H322 9010   2.599   7.256   3.149 -0.4383 -1.3507  0.3035
   25MOL   H323 9011   2.790   7.109   2.844  2.4150  0.8263  0.7596
   25MOL   H324 9012   2.764   7.286   2.847 -0.5815  0.3317 -0.6631
   25MOL   H325 9013   2.816   7.204   2.993  0.6024  0.5367 -0.4793
   25MOL   C326 9014   2.373   6.888   2.924 -0.1641  0.3367  0.6675
   25MOL   C327 9015   2.367   6.907   2.763 -0.0297 -0.3477 -0.5378
   25MOL   C328 9016   2.508   6.906   2.690  0.8566 -0.3928  0.2428
   25MOL   C329 9017   2.593   6.776   2.704  0.9253 -0.0487  0.2328
   25MOL   C330 9018   2.545   6.656   2.623 -0.4812 -0.0027 -0.3024
   25MOL   C331 9019   2.740   6.803   2.647 -1.2079  0.2938 -0.1431
   25MOL   H332 9020   2.269   6.864   2.944 -0.2153  1.0427  1.2637
   25MOL   H333 9021   2.432   6.799   2.946  1.0595  0.6711 -1.0929
   25MOL   H334 9022   2.307   6.820   2.736  0.7751 -1.6156  1.5667
   25MOL   H335 9023   2.500   6.931   2.584 -2.9553 -1.7852  0.1043
   25MOL   H336 9024   2.561   6.998   2.713 -2.4083  2.2180 -2.1708
   25MOL   H337 9025   2.611   6.748   2.807 -0.2380  1.1233  0.7650
   25MOL   H338 9026   2.609   6.574   2.656 -0.0383  0.5341  0.1647
   25MOL   H339 9027   2.550   6.670   2.515 -2.8269 -0.8129 -0.5395
   25MOL   H340 9028   2.442   6.650   2.659 -0.4397  2.5204  0.3207
   25MOL   H341 9029   2.720   6.797   2.540  0.9615 -0.8797 -0.5210
   25MOL   H342 9030   2.780   6.898   2.682 -1.0913  0.1941 -0.0065
   25MOL   H343 9031   2.808   6.721   2.669 -1.1526 -0.4327 -2.8818
   25MOL   C344 9032   2.287   7.035   2.725  1.0758  0.4381  0.4814
   25MOL   C345 9033   2.149   7.055   2.779 -0.0278 -0.1712 -0.4604
   25MOL   C346 9034   2.063   7.172   2.737 -0.4079  0.0873  0.2762
   25MOL   C347 9035   2.131   7.308   2.736  0.1858 -0.1372  0.1042
   25MOL   C348 9036   2.195   7.333   2.877  0.1631 -0.6043  0.2240
   25MOL   C349 9037   2.021   7.412   2.697  0.2489 -0.3835 -0.0291
   25MOL   H350 9038   2.301   7.041   2.617  0.3222  0.4059  0.3822
   25MOL   H351 9039   2.343   7.119   2.767 -0.7082  1.1010  1.6049
   25MOL   H352 9040   2.168   7.063   2.886 -3.0125 -2.8372  0.3483
   25MOL   H353 9041   2.040   7.142   2.635  0.6983  1.4110 -0.3795
   25MOL   H354 9042   1.968   7.178   2.791 -1.7021 -1.0195 -1.8105
   25MOL   H355 9043   2.212   7.306   2.663  0.2867  2.0971  0.0993
   25MOL   H356 9044   2.138   7.307   2.966  0.7432  2.2147  1.4788
   25MOL   H357 9045   2.280   7.265   2.887  0.3309 -0.2623  1.1102
   25MOL   H358 9046   2.227   7.437   2.873 -0.8400 -0.2817  0.3985
   25MOL   H359 9047   2.045   7.518   2.684 -1.0321 -0.2817 -1.7018
   25MOL   H360 9048   1.932   7.412   2.760  1.0563 -0.4462  1.1469
   25MOL   H361 9049   1.979   7.380   2.602  0.8298 -0.0617 -0.3999
   25MOL   H362 9050   2.091   6.964   2.765  1.9438 -1.8644  1.9685
   26MOL     C1 9051   1.095   4.237   7.209  0.2054 -0.4512  0.8921
   26MOL     C2 9052   1.209   4.134   7.233  0.0527 -0.1098 -0.8764
   26MOL     C3 9053   1.148   3.990   7.228  0.4367  0.1344  0.2361
   26MOL     C4 9054   1.094   3.931   7.094  0.5179 -0.7950  0.0500
   26MOL     C5 9055   1.047   3.791   7.129  0.0886 -0.1210 -0.1596
   26MOL     C6 9056   1.200   3.926   6.984  0.0816  0.2257  0.1052
   26MOL     H7 9057   1.128   4.341   7.201 -1.7910  0.4194  3.4825
   26MOL     H8 9058   1.030   4.202   7.129 -1.2669  0.0215  1.8741
   26MOL     H9 9059   1.281   4.143   7.152 -1.1544 -1.7408 -2.1716
   26MOL    H10 9060   1.235   3.934   7.265  0.5492 -0.9745 -1.6341
   26MOL    H11 9061   1.069   3.988   7.302 -0.1499 -0.1430 -0.3918
   26MOL    H12 9062   1.010   3.992   7.064  0.7710  0.5235  1.9151
   26MOL    H13 9063   1.120   3.725   7.175 -0.7762 -1.6233 -0.8895
   26MOL    H14 9064   0.964   3.803   7.198  0.8497 -1.2447  0.9703
   26MOL    H15 9065   1.014   3.741   7.038  0.2268  0.3888 -0.4908
   26MOL    H16 9066   1.228   4.021   6.939  1.6235  0.8566  2.3466
   26MOL    H17 9067   1.139   3.880   6.906  0.9592  1.4089 -1.3044
   26MOL    H18 9068   1.292   3.875   7.011 -1.0700 -1.7973  0.3180
   26MOL    H19 9069   1.030   4.235   7.296 -0.4414 -2.3565  0.3861
   26MOL    C20 9070   1.288   4.148   7.371 -0.0352 -0.6345  0.5674
   26MOL    C21 9071   1.355   4.287   7.402 -0.5953  0.0184  0.1884
   26MOL    C22 9072   1.396   4.291   7.553 -0.2771  0.5060  0.1044
   26MOL    C23 9073   1.534   4.220   7.594  0.2065 -0.4765 -0.3473
   26MOL    C24 9074   1.590   4.272   7.724 -0.3709 -0.4228 -0.0766
   26MOL    C25 9075   1.517   4.071   7.614 -0.2886 -0.0164  0.1880
   26MOL    H26 9076   1.222   4.119   7.453  1.0832  0.3439  1.8427
   26MOL    H27 9077   1.371   4.078   7.364 -1.9285 -3.0508  1.4529
   26MOL    H28 9078   1.267   4.349   7.392 -1.2263 -1.0009 -0.7965
   26MOL    H29 9079   1.316   4.248   7.614 -0.6711  0.4262 -0.4621
   26MOL    H30 9080   1.406   4.398   7.569 -0.8655  0.6506 -0.4689
   26MOL    H31 9081   1.596   4.229   7.504  1.1239  1.7536  0.4755
   26MOL    H32 9082   1.685   4.226   7.751 -0.3045  0.5562  1.3961
   26MOL    H33 9083   1.520   4.251   0.052  0.5163 -2.7582  0.1197
   26MOL    H34 9084   1.606   4.380   7.714  0.2183 -0.3378  1.6896
   26MOL    H35 9085   1.433   4.046   7.678  0.3422 -1.8066  0.3240
   26MOL    H36 9086   1.501   4.020   7.519  2.1194 -0.6799  0.0931
   26MOL    H37 9087   1.612   4.039   7.657 -0.5948 -0.4481  0.5418
   26MOL    C38 9088   1.456   4.332   7.291  0.2303 -0.0604  0.1013
   26MOL    C39 9089   1.522   4.460   7.310  0.4360  0.7367 -0.1636
   26MOL    C40 9090   1.426   4.574   7.271 -0.0694 -0.1237  0.3886
   26MOL    C41 9091   1.445   4.708   7.345 -0.2293  0.4350 -0.2509
   26MOL    C42 9092   1.426   4.701   7.501 -0.0486 -0.6004 -0.8162
   26MOL    C43 9093   1.341   4.817   7.303 -0.1151 -0.0581  1.1161
   26MOL    H44 9094   1.396   4.337   7.200  0.7383  0.1040 -0.2293
   26MOL    H45 9095   1.526   4.248   7.282 -1.9758 -2.1100  1.6578
   26MOL    H46 9096   1.538   4.476   7.416 -1.7377 -1.2445  0.5004
   26MOL    H47 9097   1.323   4.541   7.259  0.6613 -1.0393 -4.5820
   26MOL    H48 9098   1.447   4.598   7.167  0.8984  5.6715  1.7428
   26MOL    H49 9099   1.545   4.746   7.323 -0.2553  0.2697 -0.6494
   26MOL    H50 9100   1.484   4.622   7.548  0.5891  0.5409  0.3340
   26MOL    H51 9101   1.460   4.794   7.547 -2.2978 -0.1711  0.0381
   26MOL    H52 9102   1.328   4.671   7.539  1.4784 -1.5542  2.5572
   26MOL    H53 9103   1.241   4.790   7.338 -0.0746 -0.2960  1.0475
   26MOL    H54 9104   1.327   4.827   7.195  0.9412 -0.3134  0.9474
   26MOL    H55 9105   1.365   4.919   7.333 -0.2541  0.6121 -0.9337
   26MOL    C56 9106   1.651   4.460   7.228 -0.5807 -0.2014  0.5332
   26MOL    C57 9107   1.783   4.407   7.296  0.0560 -0.5183  0.0209
   26MOL    C58 9108   1.899   4.507   7.285  0.1140  0.1003 -0.6112
   26MOL    C59 9109   1.878   4.643   7.355 -0.5941 -0.3743 -0.7479
   26MOL    C60 9110   1.990   4.748   7.323  0.8274  0.3494  0.7397
   26MOL    C61 9111   1.861   4.644   7.508  0.8384  0.7773  0.2903
   26MOL    H62 9112   1.666   4.561   7.189  1.1303 -0.2540  1.0114
   26MOL    H63 9113   1.633   4.399   7.139  0.3504 -0.5712  0.5971
   26MOL    H64 9114   1.757   4.400   7.402  1.3734 -2.4610  0.2484
   26MOL    H65 9115   1.991   4.460   7.320 -0.8422 -0.8269  0.7399
   26MOL    H66 9116   1.919   4.524   7.180  2.4924 -0.2617 -0.2497
   26MOL    H67 9117   1.778   4.667   7.319 -1.0647 -1.1214  0.0227
   26MOL    H68 9118   1.997   4.767   7.216 -0.3013 -0.0305  0.5927
   26MOL    H69 9119   2.083   4.706   7.362  1.4561  0.7260 -0.3452
   26MOL    H70 9120   1.971   4.843   7.373 -1.6001  0.2393  0.0877
   26MOL    H71 9121   1.783   4.578   7.546 -0.4426  2.5385  0.7534
   26MOL    H72 9122   1.852   4.743   7.552 -0.7235  0.8332 -0.1365
   26MOL    H73 9123   1.943   4.591   7.558 -0.8645  0.1639  2.5296
   26MOL    C74 9124   1.827   4.274   7.232 -0.0418 -0.6840 -0.3055
   26MOL    C75 9125   1.942   4.200   7.306 -0.0594 -0.6870 -0.2159
   26MOL    C76 9126   1.981   4.071   7.226  0.2840 -0.7383  0.4060
   26MOL    C77 9127   2.074   4.099   7.107 -0.0039 -0.0986 -0.1074
   26MOL    C78 9128   2.069   3.973   7.020 -0.1207  0.6081  0.7188
   26MOL    C79 9129   2.218   4.142   7.153  0.1774 -0.7325 -0.3200
   26MOL    H80 9130   1.840   4.281   7.124  1.6452 -0.1463 -0.0940
   26MOL    H81 9131   1.736   4.219   7.255 -0.3457  0.7972  2.2293
   26MOL    H82 9132   2.034   4.259   7.306 -0.3285 -0.2556  1.2702
   26MOL    H83 9133   2.040   4.013   7.297  3.7389  2.5241  0.2972
   26MOL    H84 9134   1.892   4.021   7.188 -0.2635  1.9086 -1.9361
   26MOL    H85 9135   2.034   4.183   7.049 -2.1582 -1.3163 -0.4292
   26MOL    H86 9136   1.966   3.958   6.988  0.5367 -1.1862 -0.6811
   26MOL    H87 9137   2.100   3.892   7.086 -0.9485 -0.4372 -0.1566
   26MOL    H88 9138   2.122   3.969   6.924 -1.6328  0.8756 -0.1482
   26MOL    H89 9139   2.294   4.125   7.076  0.0667 -0.7962 -0.4151
   26MOL    H90 9140   2.237   4.244   7.186  2.0446 -1.2244  0.2411
   26MOL    H91 9141   2.253   4.079   7.235  1.5502 -0.0115 -0.3229
   26MOL    C92 9142   1.902   4.171   7.448 -0.6440 -0.3139  0.0960
   26MOL    C93 9143   2.022   4.145   7.542  0.4112 -0.2621  0.3839
   26MOL    C94 9144   2.077   4.282   7.587  0.4573 -0.1904 -0.2631
   26MOL    C95 9145   2.214   4.290   7.653  0.0821  0.2673 -0.0723
   26MOL    C96 9146   2.344   4.281   7.568 -0.8288  0.5138  0.7671
   26MOL    C97 9147   2.220   4.419   7.735  0.0208  0.1783 -0.7874
   26MOL    H98 9148   1.832   4.240   7.494 -1.2364 -0.7271 -0.1751
   26MOL    H99 9149   1.850   4.075   7.441 -0.0506 -0.6093 -0.3308
   26MOL   H100 9150   2.103   4.090   7.493  0.5268  0.6619 -0.4810
   26MOL   H101 9151   2.001   4.324   7.652 -0.2338 -2.5797  0.5209
   26MOL   H102 9152   2.085   4.353   7.504  0.0204  0.6275  0.3938
   26MOL   H103 9153   2.226   4.221   7.737 -0.6418  2.6613  2.0719
   26MOL   H104 9154   2.354   4.355   7.489  0.2961 -0.7497 -0.2760
   26MOL   H105 9155   2.370   4.188   7.519 -2.2960  0.8721 -0.7561
   26MOL   H106 9156   2.432   4.311   7.625  0.3093 -0.1842 -0.6024
   26MOL   H107 9157   2.156   4.414   0.071 -2.3182  0.4764 -2.4082
   26MOL   H108 9158   2.187   4.498   7.668  1.4659  0.2144 -1.4824
   26MOL   H109 9159   2.321   4.445   0.012  0.5040 -2.3095 -0.0802
   26MOL   C110 9160   1.983   4.068   7.678  0.8599 -0.5352  0.1155
   26MOL   C111 9161   2.059   3.930   7.696  0.1326  0.0138  0.1331
   26MOL   C112 9162   2.082   3.894   0.088 -0.5406 -0.6388 -0.2478
   26MOL   C113 9163   2.180   3.782   0.138  1.0764 -0.1522 -0.2443
   26MOL   C114 9164   2.182   3.781   0.293 -0.4181 -0.1369 -0.2784
   26MOL   C115 9165   2.324   3.819   0.088 -0.1026  0.7650 -0.1965
   26MOL   H116 9166   1.875   4.054   7.679  0.8753 -0.7745  3.5127
   26MOL   H117 9167   2.000   4.129   0.014  0.6520 -1.4498  0.7914
   26MOL   H118 9168   2.156   3.959   7.656  0.1211 -0.3159 -0.1404
   26MOL   H119 9169   1.985   3.869   0.131  0.0424  0.1755  1.5992
   26MOL   H120 9170   2.101   3.987   0.141 -1.2228 -1.7436  2.0034
   26MOL   H121 9171   2.150   3.684   0.101  0.3627  0.9171 -2.5158
   26MOL   H122 9172   2.227   3.870   0.338  1.1127 -1.5255  0.9850
   26MOL   H123 9173   2.235   3.700   0.344 -0.6405 -1.2727 -1.8273
   26MOL   H124 9174   2.079   3.773   0.329 -0.2367  1.8660  0.7581
   26MOL   H125 9175   2.399   3.744   0.114 -1.2788  0.0178  1.0595
   26MOL   H126 9176   2.357   3.914   0.130  0.4201  0.2941  0.4838
   26MOL   H127 9177   2.339   3.837   7.734  0.4051 -0.0904 -0.2744
   26MOL   C128 9178   2.004   3.811   7.603  0.5145 -0.3383  0.2157
   26MOL   C129 9179   2.107   3.712   7.548  0.4999 -0.6000 -0.2652
   26MOL   C130 9180   2.199   3.777   7.442  0.5755 -0.3668  0.3329
   26MOL   C131 9181   2.316   3.704   7.372 -0.3042  0.2077 -0.0073
   26MOL   C132 9182   2.356   3.781   7.250  0.8801  0.3755  0.4037
   26MOL   C133 9183   2.429   3.680   7.464 -0.5014  0.4136 -0.3727
   26MOL   H134 9184   1.944   3.844   7.518 -0.4955 -0.0862  1.0205
   26MOL   H135 9185   1.925   3.763   7.660 -0.0087  0.6387  0.3070
   26MOL   H136 9186   2.164   3.680   7.635 -1.3916 -2.1186  0.4491
   26MOL   H137 9187   2.143   3.821   7.360  1.0666  1.4265  0.9508
   26MOL   H138 9188   2.244   3.866   7.484 -2.6238  1.6176 -0.2504
   26MOL   H139 9189   2.280   3.609   7.333  0.6816 -0.7050  1.2412
   26MOL   H140 9190   2.398   3.879   7.273 -1.3815  0.8682  2.7603
   26MOL   H141 9191   2.271   3.802   7.186  0.8353 -1.3740 -0.1420
   26MOL   H142 9192   2.431   3.729   7.191 -0.7082 -2.2772  0.6161
   26MOL   H143 9193   2.468   3.762   7.524  0.4695  1.2057 -2.0529
   26MOL   H144 9194   2.401   3.599   7.533  0.9643 -0.7476 -1.0993
   26MOL   H145 9195   2.519   3.641   7.416 -1.0698  0.5976 -1.5907
   26MOL   C146 9196   2.031   3.588   7.492  0.7309  0.6198 -0.2947
   26MOL   C147 9197   2.089   3.453   7.521 -0.2293 -0.2229  0.3947
   26MOL   C148 9198   2.035   3.350   7.428 -1.1428  0.2354  0.5131
   26MOL   C149 9199   2.087   3.357   7.285  0.5541  0.3291 -0.2119
   26MOL   C150 9200   2.236   3.314   7.271  0.0746 -0.1594 -0.0459
   26MOL   C151 9201   2.000   3.279   7.187 -0.1247  0.2605 -0.3372
   26MOL   H152 9202   2.031   3.591   7.383 -0.9945 -1.0817 -0.3716
   26MOL   H153 9203   1.932   3.581   7.537  0.6612  0.7916 -0.4234
   26MOL   H154 9204   2.196   3.466   7.503 -0.4932  0.1413 -0.9598
   26MOL   H155 9205   2.077   3.255   7.462 -1.8078  0.6887  2.6900
   26MOL   H156 9206   1.926   3.356   7.425 -1.1357  0.8992  1.3460
   26MOL   H157 9207   2.098   3.462   7.258  1.2582  1.5000  4.3037
   26MOL   H158 9208   2.240   3.207   7.287 -0.8042 -0.1898 -0.0470
   26MOL   H159 9209   2.299   3.369   7.342  1.0356  0.3660 -1.2772
   26MOL   H160 9210   2.259   3.326   7.165 -2.3227 -0.0140 -0.5727
   26MOL   H161 9211   1.897   3.312   7.200 -0.3680 -1.1979  1.7380
   26MOL   H162 9212   2.002   3.174   7.217 -3.1138 -0.0596 -1.1099
   26MOL   H163 9213   2.043   3.282   7.087  2.5321  3.7797  0.8181
   26MOL   C164 9214   2.080   3.401   7.666 -0.2571 -0.3388 -0.0871
   26MOL   C165 9215   2.202   3.310   7.718 -0.0463 -0.1258 -0.3995
   26MOL   C166 9216   2.323   3.397   0.010 -0.0786 -0.1335 -0.3499
   26MOL   C167 9217   2.462   3.343   7.720 -0.4263  0.5642  0.0436
   26MOL   C168 9218   2.574   3.447   7.741  0.1560  0.0959 -0.2427
   26MOL   C169 9219   2.498   3.212   0.042  0.8237  0.1172 -0.6926
   26MOL   H170 9220   2.082   3.488   7.733  2.1267  0.0298 -0.5932
   26MOL   H171 9221   1.979   3.367   7.689 -0.3556  0.8775  1.3419
   26MOL   H172 9222   2.227   3.257   7.626 -3.7889 -0.5591 -1.2377
   26MOL   H173 9223   2.304   3.497   7.724  1.0534  0.5064  0.6954
   26MOL   H174 9224   2.336   3.414   0.117  0.4356 -1.8257 -0.1416
   26MOL   H175 9225   2.457   3.304   7.618  0.3941 -0.0210  0.2174
   26MOL   H176 9226   2.571   3.527   7.666  1.4585  1.7362  1.4205
   26MOL   H177 9227   2.677   3.413   7.730 -0.2139 -0.8153 -0.9424
   26MOL   H178 9228   2.566   3.487   0.089  0.8957 -2.4780  0.8860
   26MOL   H179 9229   2.484   3.217   0.150  1.0188 -0.7297 -0.6207
   26MOL   H180 9230   2.598   3.177   0.016  0.2608 -2.8931  0.9222
   26MOL   H181 9231   2.435   3.131   0.005  2.6128 -1.0956 -1.1771
   26MOL   C182 9232   2.149   3.206   0.066  0.2285  0.1692 -0.0927
   26MOL   C183 9233   2.054   3.098   7.744 -0.3609  0.2225  0.5417
   26MOL   C184 9234   2.142   2.981   7.690  0.0092  0.4607  0.0155
   26MOL   C185 9235   2.089   2.889   7.581  0.0332 -0.1990 -0.4129
   26MOL   C186 9236   2.127   2.927   7.435 -1.3538 -0.9822  0.0954
   26MOL   C187 9237   2.139   2.744   7.602 -0.3043 -0.4157  0.1826
   26MOL   H188 9238   2.106   3.263   0.148  0.9601  0.3036  0.1958
   26MOL   H189 9239   2.225   3.147   0.116  1.2189  0.9232 -0.6923
   26MOL   H190 9240   2.028   3.150   7.653  0.1270  0.5828  0.6050
   26MOL   H191 9241   2.167   2.923   0.027  2.7311 -0.0668 -1.0565
   26MOL   H192 9242   2.236   3.012   7.645 -0.7543  0.8948 -1.2884
   26MOL   H193 9243   1.982   2.872   7.594  0.3577 -1.7961  0.3245
   26MOL   H194 9244   2.101   3.032   7.422  0.8308 -0.2274  1.6408
   26MOL   H195 9245   2.085   2.864   7.357  1.2276 -1.7789 -0.6911
   26MOL   H196 9246   2.233   2.939   7.417 -1.0725 -1.9612  1.0429
   26MOL   H197 9247   2.076   2.668   7.555 -1.5898  1.0009 -0.4308
   26MOL   H198 9248   2.129   2.731   7.710 -1.5628  1.7993  0.3654
   26MOL   H199 9249   2.244   2.745   7.573 -0.2000  0.1277  0.5666
   26MOL   C200 9250   1.945   3.043   0.092 -0.0501  0.5670  0.8613
   26MOL   C201 9251   1.835   3.130   0.158  0.3113 -0.3604 -0.4943
   26MOL   C202 9252   1.744   3.053   0.256 -0.0566 -0.5001  0.6242
   26MOL   C203 9253   1.811   2.951   0.353  0.8142 -0.0827 -0.0144
   26MOL   C204 9254   1.906   3.013   0.454 -0.1068 -0.1683  0.2997
   26MOL   C205 9255   1.707   2.866   0.424  0.7630 -0.8919  0.0372
   26MOL   H206 9256   2.008   2.987   0.161  1.0133 -1.9521 -2.0399
   26MOL   H207 9257   1.893   2.965   0.035  0.7550 -0.2925  1.2996
   26MOL   H208 9258   1.891   3.215   0.197  0.4174 -1.2241  1.2749
   26MOL   H209 9259   1.696   3.121   0.325 -0.7891 -0.8313  0.4413
   26MOL   H210 9260   1.669   2.994   0.203 -0.0003 -3.0550  3.2415
   26MOL   H211 9261   1.872   2.880   0.298 -0.0694 -0.1671 -0.9084
   26MOL   H212 9262   1.857   3.087   0.517 -0.2331  0.0453 -0.0446
   26MOL   H213 9263   1.989   3.070   0.412 -1.6558  1.3313 -0.7709
   26MOL   H214 9264   1.951   2.940   0.521 -1.6387 -1.9470 -0.5788
   26MOL   H215 9265   1.657   2.939   0.488  0.0056 -1.1762 -0.2285
   26MOL   H216 9266   1.757   2.788   0.482  0.0534 -0.1703  1.6696
   26MOL   H217 9267   1.644   2.822   0.347 -0.4254 -0.2090  0.6096
   26MOL   C218 9268   1.746   3.213   0.058 -0.0089  0.5772  0.7046
   26MOL   C219 9269   1.648   3.316   0.120 -0.3008 -0.1938  0.0243
   26MOL   C220 9270   1.520   3.341   0.033  0.1880 -1.1017 -0.5423
   26MOL   C221 9271   1.391   3.372   0.109 -0.1567 -0.1145 -0.0457
   26MOL   C222 9272   1.261   3.370   0.016 -1.2955 -0.2093 -0.6240
   26MOL   C223 9273   1.360   3.280   0.224  0.3072 -0.1928  0.3752
   26MOL   H224 9274   1.807   3.265   7.738 -0.4571 -0.4100 -0.4026
   26MOL   H225 9275   1.680   3.135   0.019 -0.3742  1.1304  0.2243
   26MOL   H226 9276   1.614   3.269   0.213 -2.4336  0.2927 -0.4758
   26MOL   H227 9277   1.542   3.421   7.715  0.5309 -1.6733 -1.0985
   26MOL   H228 9278   1.499   3.252   7.725 -3.0544 -1.7016  1.3370
   26MOL   H229 9279   1.403   3.474   0.146  1.2284  0.1164 -1.1069
   26MOL   H230 9280   1.174   3.392   0.078  0.0368  1.2985  0.7730
   26MOL   H231 9281   1.269   3.449   7.694 -1.7709  0.3760 -0.0653
   26MOL   H232 9282   1.237   3.276   7.719  2.7439 -0.8492 -1.5302
   26MOL   H233 9283   1.257   3.276   0.259  0.0696  0.6870 -0.2145
   26MOL   H234 9284   1.372   3.185   0.172 -0.0823  0.5370 -1.0936
   26MOL   H235 9285   1.431   3.284   0.306  0.0001  0.0437  0.6278
   26MOL   C236 9286   1.730   3.442   0.142  0.3025  0.1501 -0.6412
   26MOL   C237 9287   1.699   3.521   0.266 -0.6993  0.0512 -0.2222
   26MOL   C238 9288   1.742   3.667   0.249  0.0619 -0.6066 -0.0245
   26MOL   C239 9289   1.631   3.763   0.208 -0.1425 -0.2004 -0.1633
   26MOL   C240 9290   1.529   3.786   0.321 -0.1250 -0.0081 -0.1396
   26MOL   C241 9291   1.691   3.897   0.163  0.7089 -0.7335  0.0360
   26MOL   H242 9292   1.706   3.508   0.059 -1.5258  3.4679  2.3553
   26MOL   H243 9293   1.837   3.423   0.140  0.3227 -0.5648  3.0037
   26MOL   H244 9294   1.594   3.523   0.293 -0.0569 -0.7027  2.4750
   26MOL   H245 9295   1.822   3.671   0.175  0.5925 -1.6493  0.4826
   26MOL   H246 9296   1.791   3.717   0.333 -0.9358  0.7200 -0.1986
   26MOL   H247 9297   1.574   3.710   0.132  1.2844 -1.3394 -0.4839
   26MOL   H248 9298   1.589   3.809   0.409  1.3421  2.2167 -1.6536
   26MOL   H249 9299   1.463   3.700   0.329 -0.9935  0.6060 -0.6732
   26MOL   H250 9300   1.455   3.861   0.294  0.9398  1.1307  0.0766
   26MOL   H251 9301   1.617   3.976   0.159  0.1457 -1.0754  2.6679
   26MOL   H252 9302   1.749   3.901   0.071  0.7705  1.9450  0.1494
   26MOL   H253 9303   1.752   3.937   0.244 -0.1725 -0.0060  0.3418
   26MOL   C254 9304   1.779   3.457   0.385 -0.1291 -0.2589 -0.3141
   26MOL   C255 9305   1.711   3.481   0.521  0.1064 -0.8041  0.3134
   26MOL   C256 9306   1.602   3.379   0.535 -0.4530 -0.4803 -0.3607
   26MOL   C257 9307   1.512   3.382   0.655 -0.5325 -0.9811 -0.5149
   26MOL   C258 9308   1.401   3.275   0.637 -0.4341 -0.2591 -0.5742
   26MOL   C259 9309   1.449   3.525   0.672 -0.6447 -0.0426  0.2477
   26MOL   H260 9310   1.795   3.351   0.370  0.8275 -0.4950  2.0910
   26MOL   H261 9311   1.883   3.487   0.376 -0.7856  2.3121  0.1436
   26MOL   H262 9312   1.665   3.579   0.520  1.8706  0.0857  2.0626
   26MOL   H263 9313   1.655   3.284   0.531 -0.4074 -0.4440 -0.6386
   26MOL   H264 9314   1.543   3.382   0.443  1.2168  0.7540 -1.4317
   26MOL   H265 9315   1.565   3.367   0.749  0.6098 -0.0858 -1.0052
   26MOL   H266 9316   1.347   3.268   0.731 -1.5711 -1.9752 -1.3380
   26MOL   H267 9317   1.449   3.180   0.615  1.3657  0.7848 -1.3117
   26MOL   H268 9318   1.338   3.305   0.553 -2.1098  2.6448  1.6050
   26MOL   H269 9319   1.396   3.555   0.582  0.4554  0.2501 -0.3200
   26MOL   H270 9320   1.381   3.517   0.756  0.7772 -2.4900  1.2138
   26MOL   H271 9321   1.533   3.594   0.685  0.2465 -0.8157 -1.1899
   26MOL   C272 9322   1.814   3.481   0.641  0.2789 -0.3205 -0.1240
   26MOL   C273 9323   1.906   3.607   0.655  0.0773  0.1604 -0.2380
   26MOL   C274 9324   1.825   3.732   0.697  0.9521  0.5846 -0.1490
   26MOL   C275 9325   1.910   3.864   0.698  0.1044  0.3227  0.4453
   26MOL   C276 9326   1.836   3.972   0.775 -0.3078 -0.0706  0.0870
   26MOL   C277 9327   1.948   3.902   0.555  0.0682  0.0406 -0.4670
   26MOL   H278 9328   1.757   3.465   0.733 -0.5050 -1.6400 -0.8220
   26MOL   H279 9329   1.872   3.389   0.632 -1.9229 -1.9015  1.1126
   26MOL   H280 9330   1.953   3.619   0.557 -0.5137 -1.8840 -0.7913
   26MOL   H281 9331   1.777   3.709   0.792  0.0689 -0.5117 -0.8342
   26MOL   H282 9332   1.747   3.753   0.624  2.5124  1.3737 -1.6342
   26MOL   H283 9333   2.009   3.851   0.743  0.4315  2.7885  0.5398
   26MOL   H284 9334   1.759   3.931   0.841 -1.3433 -0.0700 -1.1014
   26MOL   H285 9335   1.899   4.037   0.835  1.3707 -2.0974  0.5598
   26MOL   H286 9336   1.792   4.038   0.700 -1.8157 -0.4584  0.5924
   26MOL   H287 9337   1.984   4.005   0.550  1.6465 -0.5381 -1.6533
   26MOL   H288 9338   2.038   3.844   0.534  1.6957  1.8981  1.0933
   26MOL   H289 9339   1.884   3.878   0.471  1.2831 -0.8148 -1.1626
   26MOL   C290 9340   2.018   3.568   0.760 -0.6450  0.0993 -0.0280
   26MOL   C291 9341   2.129   3.464   0.711 -0.1073 -0.3815  0.1149
   26MOL   C292 9342   2.241   3.548   0.645 -0.7231  0.0206 -0.6178
   26MOL   C293 9343   2.311   3.463   0.546  0.3311  0.3957 -0.4125
   26MOL   C294 9344   2.228   3.402   0.431  0.1260  0.0856 -0.1011
   26MOL   C295 9345   2.439   3.533   0.492  0.5734  0.5809 -0.9263
   26MOL   H296 9346   2.068   3.648   0.814  0.0571 -0.7374  0.5811
   26MOL   H297 9347   1.954   3.520   0.834  1.8418  0.8812  2.7594
   26MOL   H298 9348   2.086   3.393   0.641 -1.8192 -0.1675  0.9369
   26MOL   H299 9349   2.322   3.575   0.714 -2.8861 -0.8342  2.3623
   26MOL   H300 9350   2.208   3.644   0.605 -0.3977  0.1184 -0.6529
   26MOL   H301 9351   2.340   3.373   0.600 -1.2663  1.7258  2.7780
   26MOL   H302 9352   2.166   3.319   0.465 -1.9624  2.7690  2.9649
   26MOL   H303 9353   2.296   3.357   0.358  0.6852  0.6338  0.0671
   26MOL   H304 9354   2.170   3.477   0.378  2.0192  1.3358 -0.4797
   26MOL   H305 9355   2.497   3.465   0.429 -1.1721 -0.5521 -1.3564
   26MOL   H306 9356   2.502   3.578   0.569 -0.4726 -0.2209  0.4100
   26MOL   H307 9357   2.414   3.610   0.419 -1.3601  1.3686  0.5456
   26MOL   C308 9358   2.193   3.400   0.837 -0.6505  0.1439 -0.3221
   26MOL   C309 9359   2.109   3.299   0.930  0.0132  0.0486 -0.7461
   26MOL   C310 9360   2.064   3.171   0.849  0.7415  0.1402  0.6393
   26MOL   C311 9361   1.949   3.088   0.911  0.2201  0.4994 -0.1389
   26MOL   C312 9362   1.805   3.141   0.870  0.0668  0.6714 -0.5841
   26MOL   C313 9363   1.967   2.937   0.866  0.2264 -0.0078 -0.2514
   26MOL   H314 9364   2.288   3.350   0.816 -1.1816 -2.3233  2.7077
   26MOL   H315 9365   2.225   3.478   0.906  3.3869 -2.6556  1.1851
   26MOL   H316 9366   2.014   3.346   0.955 -0.7219 -1.4388 -0.6656
   26MOL   H317 9367   2.149   3.110   0.819  0.8861  0.5571  0.1857
   26MOL   H318 9368   2.022   3.213   0.757  0.8725  0.4956  0.7375
   26MOL   H319 9369   1.978   3.077   1.016 -0.2872 -0.8599 -0.1269
   26MOL   H320 9370   1.772   3.235   0.914  3.9396  1.8823 -0.0838
   26MOL   H321 9371   1.733   3.064   0.898  0.7747  0.1543 -0.1399
   26MOL   H322 9372   1.791   3.149   0.762 -3.5473  1.1405 -0.1330
   26MOL   H323 9373   1.974   2.935   0.757 -0.2139 -0.8045 -0.2728
   26MOL   H324 9374   2.064   2.897   0.895  0.3636  0.0313 -0.6510
   26MOL   H325 9375   1.889   2.861   0.879  0.1727 -0.0146 -0.5996
   26MOL   C326 9376   2.177   3.262   1.064  0.1485 -0.0081 -0.2828
   26MOL   C327 9377   2.100   3.331   1.181 -0.3056  0.1190  0.6332
   26MOL   C328 9378   2.194   3.361   1.300  0.7994  0.3186 -0.5265
   26MOL   C329 9379   2.293   3.474   1.297 -0.2442 -0.5186 -0.4163
   26MOL   C330 9380   2.223   3.607   1.276 -0.1776 -0.1035 -0.2772
   26MOL   C331 9381   2.391   3.469   1.418 -0.3389  0.6756  0.3080
   26MOL   H332 9382   2.279   3.300   1.071  0.6297 -1.0794 -1.4027
   26MOL   H333 9383   2.190   3.157   1.089  1.3191 -0.1205 -1.2810
   26MOL   H334 9384   2.070   3.432   1.153  2.7441  1.2948  1.4114
   26MOL   H335 9385   2.136   3.385   1.389  1.6031  2.0708 -0.4564
   26MOL   H336 9386   2.244   3.266   1.318  1.6538  1.0914  1.2329
   26MOL   H337 9387   2.365   3.465   1.216  1.1012  0.3552  0.6733
   26MOL   H338 9388   2.285   3.697   1.273  1.5918 -1.2882 -0.1740
   26MOL   H339 9389   2.137   3.617   1.342  0.8974 -0.4849  1.2180
   26MOL   H340 9390   2.183   3.616   1.175 -2.1061 -0.8954  0.4019
   26MOL   H341 9391   2.436   3.567   1.430  0.2103  0.6182 -1.1764
   26MOL   H342 9392   2.334   3.452   1.509  0.8063 -2.0128  0.5631
   26MOL   H343 9393   2.466   3.390   1.412 -1.7767 -0.6467 -0.7142
   26MOL   C344 9394   1.978   3.254   1.228  0.4116  0.2899 -0.3915
   26MOL   C345 9395   1.998   3.111   1.280  0.1842 -0.0667  0.2433
   26MOL   C346 9396   1.857   3.045   1.298  0.7594  1.0414  0.0499
   26MOL   C347 9397   1.853   2.893   1.334 -0.0218  0.0498  0.1686
   26MOL   C348 9398   1.915   2.873   1.472 -0.2316 -0.3381 -0.0475
   26MOL   C349 9399   1.919   2.808   1.220 -0.2244  0.5367  0.1152
   26MOL   H350 9400   1.901   3.251   1.151  0.9001 -0.9369 -0.8278
   26MOL   H351 9401   1.930   3.314   1.306  0.6827 -0.7099  0.5558
   26MOL   H352 9402   2.048   3.105   1.376  2.5339 -1.9527 -1.0385
   26MOL   H353 9403   1.804   3.087   1.384  1.1892 -0.0126  0.8430
   26MOL   H354 9404   1.786   3.076   1.222 -0.5012  0.6071  1.0480
   26MOL   H355 9405   1.745   2.880   1.346  0.0044  0.5425  0.9563
   26MOL   H356 9406   1.897   2.772   1.509  2.5723 -1.0883 -0.6404
   26MOL   H357 9407   2.023   2.886   1.470 -0.3171  0.3336 -1.7478
   26MOL   H358 9408   1.877   2.941   1.548  0.0924 -0.2024 -0.0059
   26MOL   H359 9409   1.873   2.826   1.123  1.0380 -0.3497 -0.6595
   26MOL   H360 9410   1.914   2.702   1.245 -1.2706  1.0078  2.0021
   26MOL   H361 9411   2.024   2.830   1.205  0.0639 -1.1686 -0.4392
   26MOL   H362 9412   2.061   3.053   1.212 -0.6602 -2.8692  1.7843
   27MOL     C1 9413   6.000   4.694   5.584  0.0638 -0.3325 -0.4351
   27MOL     C2 9414   6.038   4.610   5.464  0.3662  0.7806  0.5819
   27MOL     C3 9415   6.027   4.698   5.338  0.3850 -0.9434 -0.1524
   27MOL     C4 9416   6.089   4.839   5.334 -0.8462 -0.6593 -0.2103
   27MOL     C5 9417   6.076   4.904   5.200 -0.7090 -0.4192 -0.9102
   27MOL     C6 9418   6.237   4.817   5.366 -0.6216 -0.5260 -0.2075
   27MOL     H7 9419   5.898   4.732   5.595  0.1380 -0.1558 -0.3501
   27MOL     H8 9420   6.010   4.624   5.667  1.8316 -0.1586 -0.4808
   27MOL     H9 9421   6.140   4.576   5.477  0.5165  1.3366  0.8803
   27MOL    H10 9422   6.053   4.640   5.250  2.4539  1.3503 -1.0734
   27MOL    H11 9423   5.920   4.720   5.332  1.0956  2.4362 -0.9661
   27MOL    H12 9424   6.051   4.903   5.414 -0.3941  0.4074 -0.8439
   27MOL    H13 9425   6.121   4.847   5.118 -1.0832 -1.1651 -0.5965
   27MOL    H14 9426   5.974   4.927   5.172 -1.1820  0.0903  1.1430
   27MOL    H15 9427   6.131   4.999   5.199  0.8038 -1.2878 -1.8116
   27MOL    H16 9428   6.295   4.909   5.361 -0.3933 -0.7498 -2.1720
   27MOL    H17 9429   6.282   4.748   5.294  1.3474 -0.3603  0.8248
   27MOL    H18 9430   6.259   4.778   5.465 -1.4358  1.5909  0.8288
   27MOL    H19 9431   6.072   4.772   5.610  0.3896 -0.0416 -2.1253
   27MOL    C20 9432   5.943   4.483   5.447  0.6464 -0.0026 -0.7306
   27MOL    C21 9433   5.927   4.380   5.560  0.1959  0.5920 -0.2273
   27MOL    C22 9434   5.802   4.294   5.543  0.0758  0.1557  0.2762
   27MOL    C23 9435   5.660   4.353   5.592 -0.2514 -0.8699 -0.0144
   27MOL    C24 9436   5.549   4.280   5.514 -0.3425  0.8943 -0.5444
   27MOL    C25 9437   5.630   4.338   5.741  0.2404 -0.2448 -0.0977
   27MOL    H26 9438   5.842   4.511   5.416  0.2641  0.4891  0.9152
   27MOL    H27 9439   5.974   4.423   5.362  0.7116 -1.2088  0.1335
   27MOL    H28 9440   5.914   4.429   5.657  0.6822  0.4078 -0.0694
   27MOL    H29 9441   5.816   4.198   5.593  1.5050  0.5462  0.6506
   27MOL    H30 9442   5.794   4.252   5.443  3.5517 -0.6061  0.2332
   27MOL    H31 9443   5.653   4.460   5.574  0.2495 -0.6368  1.1514
   27MOL    H32 9444   5.544   4.306   5.409 -1.7478 -0.8695 -0.9285
   27MOL    H33 9445   5.453   4.308   5.558 -0.1925 -0.8806  0.9636
   27MOL    H34 9446   5.559   4.172   5.525  0.2691  0.9475 -0.5923
   27MOL    H35 9447   5.665   4.238   5.767 -0.5378 -0.1136  1.5386
   27MOL    H36 9448   5.680   4.412   5.803  0.3570 -1.2265  0.9896
   27MOL    H37 9449   5.529   4.345   5.782 -0.8671 -1.6395 -2.5086
   27MOL    C38 9450   6.064   4.298   5.560  0.2014 -0.2113  0.7103
   27MOL    C39 9451   6.094   4.202   5.684 -0.4270  0.0135  0.1950
   27MOL    C40 9452   6.088   4.274   5.825 -0.3616  0.2185  0.5438
   27MOL    C41 9453   5.960   4.249   5.900  0.6692 -0.1580  0.3964
   27MOL    C42 9454   5.931   4.363   5.993  0.1019  0.1033  0.0621
   27MOL    C43 9455   5.951   4.116   5.978 -0.8014 -0.4489 -0.3446
   27MOL    H44 9456   6.147   4.368   5.549  2.3041 -3.1098 -2.9303
   27MOL    H45 9457   6.084   4.240   5.471 -0.0144  1.1709 -0.2505
   27MOL    H46 9458   6.017   4.125   5.686  1.5017 -2.0282 -0.5360
   27MOL    H47 9459   6.089   4.378   5.793  0.3526  0.1402  0.2980
   27MOL    H48 9460   6.167   4.249   5.896 -1.6160  0.9781  2.2532
   27MOL    H49 9461   5.879   4.249   5.827  0.2216 -0.0755  0.8997
   27MOL    H50 9462   5.906   4.455   5.942  2.4954  1.3690  1.0853
   27MOL    H51 9463   5.853   4.339   6.065  0.0295  2.2245  0.7037
   27MOL    H52 9464   6.021   4.379   6.053  0.6249 -2.2214 -0.0420
   27MOL    H53 9465   5.861   4.085   6.032 -0.1270 -2.2980 -0.2443
   27MOL    H54 9466   6.034   4.112   6.048 -0.7153  0.6961 -0.3780
   27MOL    H55 9467   5.974   4.039   5.905  0.3990 -0.2503 -0.1873
   27MOL    C56 9468   6.236   4.135   5.665 -0.4552  0.3321 -0.1891
   27MOL    C57 9469   6.239   4.016   5.559  0.1925 -0.7521 -0.3325
   27MOL    C58 9470   6.186   3.891   5.628 -0.0657  0.3219  0.5945
   27MOL    C59 9471   6.075   3.825   5.541  0.9027 -0.6522  1.3032
   27MOL    C60 9472   5.947   3.901   5.530 -0.1535  0.0538  0.4624
   27MOL    C61 9473   6.070   3.678   5.578 -0.5133 -0.3780  0.5386
   27MOL    H62 9474   6.283   4.111   5.760 -0.6228 -0.4873 -0.3078
   27MOL    H63 9475   6.305   4.213   5.633  1.1763 -1.3274 -0.8710
   27MOL    H64 9476   6.180   4.055   5.476 -0.2303  1.8936  1.1434
   27MOL    H65 9477   6.263   3.819   5.656  1.6609  1.3480 -1.3910
   27MOL    H66 9478   6.149   3.928   5.723 -1.3033 -2.4278  1.2460
   27MOL    H67 9479   6.124   3.824   5.444 -0.7872  1.2988  0.3788
   27MOL    H68 9480   5.960   4.008   5.513  0.3440  0.3691  2.6630
   27MOL    H69 9481   5.909   3.901   5.633 -1.2073 -0.8984  0.0871
   27MOL    H70 9482   5.875   3.858   5.460 -1.7156 -0.9377  2.6120
   27MOL    H71 9483   5.988   3.623   5.532  0.4724 -1.7761  0.4400
   27MOL    H72 9484   6.080   3.649   5.682  1.2810  1.3240  0.8703
   27MOL    H73 9485   6.153   3.623   5.534 -1.3596 -1.6304  0.4924
   27MOL    C74 9486   6.387   4.003   5.506 -0.4647 -0.0412 -0.3927
   27MOL    C75 9487   6.414   3.911   5.387 -0.3378 -0.7769  0.4451
   27MOL    C76 9488   6.565   3.872   5.367  0.0484 -0.4333  0.5598
   27MOL    C77 9489   6.624   3.754   5.453  0.2358  0.3917  0.0788
   27MOL    C78 9490   6.776   3.736   5.436 -0.0850  0.0679 -0.2211
   27MOL    C79 9491   6.535   3.626   5.412  0.8845 -0.1157 -0.5629
   27MOL    H80 9492   6.437   3.978   5.599 -1.7742 -0.1151  0.3003
   27MOL    H81 9493   6.422   4.103   5.482  0.5103  0.2783  2.2564
   27MOL    H82 9494   6.349   3.825   5.403 -2.2491  0.4451 -0.4420
   27MOL    H83 9495   6.579   3.839   5.264 -0.9849 -2.0229  0.8952
   27MOL    H84 9496   6.633   3.954   5.388  0.7264 -1.5374  2.8169
   27MOL    H85 9497   6.596   3.762   5.558 -2.8552 -1.0008 -0.6029
   27MOL    H86 9498   6.822   3.654   5.491  0.8273  1.3776  1.0083
   27MOL    H87 9499   6.823   3.828   5.471 -2.0559  0.7144  0.8110
   27MOL    H88 9500   6.809   3.742   5.332  0.0953 -0.3629 -0.1913
   27MOL    H89 9501   6.526   3.628   5.303  0.9900 -2.7377 -0.6458
   27MOL    H90 9502   6.564   3.525   5.440  1.2406  0.1880  0.1769
   27MOL    H91 9503   6.438   3.648   5.458  1.8670  0.4160  1.2760
   27MOL    C92 9504   6.365   3.984   5.257 -0.5983 -0.3596 -0.1021
   27MOL    C93 9505   6.247   3.939   5.182  0.5308  0.6018  0.8182
   27MOL    C94 9506   6.197   4.057   5.100 -0.1489  0.0363 -0.3795
   27MOL    C95 9507   6.119   4.167   5.165  0.6020 -0.3355  0.8143
   27MOL    C96 9508   6.101   4.294   5.074 -0.1376 -0.4589  0.2626
   27MOL    C97 9509   5.976   4.126   5.205  0.1384  1.2030 -0.4035
   27MOL    H98 9510   6.347   4.088   5.282  0.3105  0.0740 -1.2334
   27MOL    H99 9511   6.446   3.983   5.184 -1.6220 -0.5876 -1.2368
   27MOL   H100 9512   6.170   3.911   5.253  2.3357 -2.9325  1.4917
   27MOL   H101 9513   6.137   4.011   5.021 -1.5632  0.1110  0.6303
   27MOL   H102 9514   6.287   4.104   5.061 -1.0681  1.7700 -0.4387
   27MOL   H103 9515   6.162   4.197   5.261  2.7885  1.9854 -0.8153
   27MOL   H104 9516   6.019   4.273   5.004  0.0114 -0.8161  0.1956
   27MOL   H105 9517   6.194   4.319   5.024  0.4171 -2.3319  0.2967
   27MOL   H106 9518   6.066   4.378   5.134  2.9214  0.1523  1.2310
   27MOL   H107 9519   5.974   4.043   5.276 -1.1890 -0.4914 -2.3690
   27MOL   H108 9520   5.922   4.081   5.122 -1.5878  0.8512  0.8901
   27MOL   H109 9521   5.906   4.199   5.246  0.3930  1.1075  0.2126
   27MOL   C110 9522   6.281   3.808   5.107 -0.5752  0.0015  0.0761
   27MOL   C111 9523   6.172   3.711   5.055 -0.1491 -1.4500 -0.5778
   27MOL   C112 9524   6.216   3.628   4.934 -0.0624  0.7425 -0.1220
   27MOL   C113 9525   6.195   3.681   4.791 -0.2360  0.2400 -0.9970
   27MOL   C114 9526   6.056   3.742   4.768 -0.5571 -0.1544 -0.3239
   27MOL   C115 9527   6.224   3.579   4.675  0.2929  0.4868  0.2542
   27MOL   H116 9528   6.353   3.755   5.170  0.1793 -1.4128 -1.9342
   27MOL   H117 9529   6.349   3.840   5.029 -0.3398  2.4748  1.2415
   27MOL   H118 9530   6.092   3.779   5.025 -0.8531 -1.3280  1.4750
   27MOL   H119 9531   6.160   3.534   4.935 -1.0515  1.3072  2.5801
   27MOL   H120 9532   6.321   3.601   4.948 -0.6669 -1.4793  0.4194
   27MOL   H121 9533   6.270   3.760   4.786  0.2742 -0.3217 -2.7345
   27MOL   H122 9534   5.977   3.668   4.782 -0.1026 -0.7210 -0.7795
   27MOL   H123 9535   6.041   3.760   4.662 -0.5908 -1.9054 -0.6212
   27MOL   H124 9536   6.033   3.837   4.816  0.6939  0.8043 -1.6072
   27MOL   H125 9537   6.218   3.631   4.580 -2.4884  0.6301  0.4743
   27MOL   H126 9538   6.162   3.490   4.674 -0.7119  1.1811  0.0904
   27MOL   H127 9539   6.329   3.551   4.686  0.1940  0.7230  1.8996
   27MOL   C128 9540   6.106   3.635   5.171 -0.1332 -0.0727  0.0323
   27MOL   C129 9541   5.954   3.616   5.139  0.2056  0.3929 -0.3529
   27MOL   C130 9542   5.872   3.739   5.175 -0.0093  0.1827  0.4220
   27MOL   C131 9543   5.714   3.737   5.154 -0.3295  0.5332 -0.0261
   27MOL   C132 9544   5.652   3.869   5.206 -0.1025 -0.0443  0.4189
   27MOL   C133 9545   5.670   3.717   5.006  0.0122 -0.0875 -0.3008
   27MOL   H134 9546   6.116   3.673   5.273 -2.3285  1.6430 -0.3484
   27MOL   H135 9547   6.163   3.543   5.161 -0.7458 -0.6730  1.8613
   27MOL   H136 9548   5.939   3.582   5.037 -0.1964 -0.3475 -0.0490
   27MOL   H137 9549   5.885   3.758   5.282  0.1977 -1.7362  0.7708
   27MOL   H138 9550   5.918   3.830   5.136 -0.7039 -0.0431 -0.9574
   27MOL   H139 9551   5.683   3.657   5.221  1.8732  0.8858  1.4913
   27MOL   H140 9552   5.545   3.850   5.197 -0.1606  1.5098 -3.7598
   27MOL   H141 9553   5.677   3.951   5.138 -1.1857 -1.0579 -1.2354
   27MOL   H142 9554   5.674   3.899   5.308 -1.6784 -2.2680  1.4344
   27MOL   H143 9555   5.709   3.788   4.934  1.2376  1.2337  1.5936
   27MOL   H144 9556   5.711   3.623   4.969  2.4219  0.0653  1.7764
   27MOL   H145 9557   5.562   3.708   5.001 -0.2397  1.7428  1.2525
   27MOL   C146 9558   5.904   3.486   5.214  0.7084  0.2009 -0.0664
   27MOL   C147 9559   5.961   3.355   5.168  0.1788 -0.5951  0.1970
   27MOL   C148 9560   5.897   3.317   5.030  1.0189 -0.1151 -0.0979
   27MOL   C149 9561   5.927   3.175   4.974 -0.7734 -0.0462  0.1915
   27MOL   C150 9562   5.821   3.119   4.875 -0.6328 -0.5708  0.1620
   27MOL   C151 9563   6.069   3.169   4.927  0.5013  0.0235 -0.3120
   27MOL   H152 9564   5.797   3.468   5.208  0.8884 -0.1336 -2.9934
   27MOL   H153 9565   5.933   3.492   5.319  0.7131  0.4932 -0.0854
   27MOL   H154 9566   6.069   3.360   5.162  0.1017  0.2349 -0.5741
   27MOL   H155 9567   5.789   3.325   5.021  0.9992 -0.0949  0.1485
   27MOL   H156 9568   5.927   3.375   4.942 -0.3127 -0.9510 -1.1148
   27MOL   H157 9569   5.926   3.099   5.052 -4.4229  0.4374  0.7102
   27MOL   H158 9570   5.867   3.046   4.809 -0.0169  0.6288 -0.7393
   27MOL   H159 9571   5.773   3.200   4.820  0.7341  0.8852  1.0665
   27MOL   H160 9572   5.737   3.078   4.933 -1.7081  1.4408  0.0984
   27MOL   H161 9573   6.143   3.209   4.997  0.7810  0.4207 -0.8387
   27MOL   H162 9574   6.077   3.232   4.839 -0.9186  0.4955 -0.1141
   27MOL   H163 9575   6.086   3.065   4.899  1.4661 -0.7124  2.7503
   27MOL   C164 9576   5.948   3.243   5.286  0.9167 -0.1374 -0.0250
   27MOL   C165 9577   5.810   3.224   5.358  0.2566 -0.1212  0.4777
   27MOL   C166 9578   5.720   3.127   5.276  0.0718 -0.2211 -0.2053
   27MOL   C167 9579   5.573   3.118   5.310 -0.4194 -0.1878  0.5253
   27MOL   C168 9580   5.499   3.247   5.286 -0.0172  0.1132  0.5920
   27MOL   C169 9581   5.495   3.009   5.243  0.2498  0.3964 -0.3430
   27MOL   H170 9582   5.987   3.148   5.249 -2.3488 -1.5917  0.1358
   27MOL   H171 9583   6.022   3.258   5.364  0.3548 -3.6529  1.2733
   27MOL   H172 9584   5.759   3.319   5.370 -1.2446 -0.7408 -0.8441
   27MOL   H173 9585   5.722   3.159   5.172 -0.6713 -0.4938 -0.3025
   27MOL   H174 9586   5.749   3.023   5.291  0.0829 -0.0923  0.7293
   27MOL   H175 9587   5.579   3.094   5.416 -0.7874  0.3749  0.6745
   27MOL   H176 9588   5.539   3.342   5.323 -0.5055  1.3202 -1.8702
   27MOL   H177 9589   5.410   3.249   5.348  0.7903  1.4568  1.7281
   27MOL   H178 9590   5.484   3.266   5.180 -0.7666  1.9105  1.0066
   27MOL   H179 9591   5.400   2.992   5.292  0.5146  1.7710  0.6790
   27MOL   H180 9592   5.552   2.917   5.248 -1.3023 -0.5899 -0.5698
   27MOL   H181 9593   5.467   3.027   5.139 -0.4940 -1.9230 -0.5583
   27MOL   C182 9594   5.837   3.151   5.495 -0.9415  1.5446 -0.0605
   27MOL   C183 9595   5.830   3.250   5.616 -0.7108 -0.2268  0.2258
   27MOL   C184 9596   5.688   3.293   5.648  0.7264 -0.9678 -0.1213
   27MOL   C185 9597   5.673   3.437   5.694  0.2749 -0.2348  0.9938
   27MOL   C186 9598   5.695   3.521   5.567 -0.8682 -1.0739  0.2939
   27MOL   C187 9599   5.525   3.467   5.737  0.2649  0.4364  0.1977
   27MOL   H188 9600   5.923   3.088   5.477 -0.8318  2.5471 -3.4886
   27MOL   H189 9601   5.766   3.070   5.512 -0.2430  0.8237 -0.5692
   27MOL   H190 9602   5.888   3.339   5.589 -1.3421 -0.4069 -1.8554
   27MOL   H191 9603   5.653   3.217   5.718 -2.4881 -1.4398 -2.1421
   27MOL   H192 9604   5.615   3.283   5.569  1.6075  1.5167 -1.2798
   27MOL   H193 9605   5.732   3.467   5.780 -0.3171 -1.1415  1.7306
   27MOL   H194 9606   5.800   3.535   5.544 -0.8527 -0.6515  0.6187
   27MOL   H195 9607   5.668   3.623   5.593  1.3366 -0.2840 -0.4614
   27MOL   H196 9608   5.635   3.492   5.480 -0.8045 -1.3910  0.3538
   27MOL   H197 9609   5.503   3.573   5.750 -1.1845  0.4062 -1.7570
   27MOL   H198 9610   5.494   3.417   5.829 -2.6328  0.7168 -0.5896
   27MOL   H199 9611   5.464   3.431   5.654  0.0257  0.2304  0.4640
   27MOL   C200 9612   5.896   3.191   5.741 -0.1641  0.5033 -1.0387
   27MOL   C201 9613   6.047   3.167   5.737 -0.5672  0.1056 -0.1574
   27MOL   C202 9614   6.099   3.088   5.865  0.1579 -0.3584 -0.5352
   27MOL   C203 9615   6.045   2.944   5.887 -0.0925 -0.2099  0.0250
   27MOL   C204 9616   6.057   2.852   5.760 -0.4260  0.0707  0.2621
   27MOL   C205 9617   6.099   2.861   6.008 -0.8903  0.0049  0.1170
   27MOL   H206 9618   5.834   3.104   5.761  1.1321 -1.0432 -3.4844
   27MOL   H207 9619   5.878   3.260   5.823  1.7920  0.7996 -0.8335
   27MOL   H208 9620   6.073   3.103   5.653  0.2988  0.1929  0.0344
   27MOL   H209 9621   6.208   3.095   5.872  0.0842 -0.4669  0.8153
   27MOL   H210 9622   6.070   3.150   5.949  2.3946 -1.0679  0.8073
   27MOL   H211 9623   5.938   2.954   5.908 -0.1259 -0.1778 -0.1606
   27MOL   H212 9624   6.029   2.750   5.783 -1.9738  0.6152  0.8950
   27MOL   H213 9625   6.160   2.854   5.724  0.3151 -1.2352  2.2271
   27MOL   H214 9626   5.985   2.886   5.686 -0.2893  0.1903  0.1837
   27MOL   H215 9627   6.207   2.851   5.999 -0.9765  0.0304 -1.0171
   27MOL   H216 9628   6.052   2.765   6.030 -0.8791 -0.1108 -0.3614
   27MOL   H217 9629   6.091   2.918   6.101 -0.0646  0.5923 -0.1645
   27MOL   C218 9630   6.132   3.294   5.730  0.5326 -0.7294  0.1606
   27MOL   C219 9631   6.261   3.270   5.650  0.2151 -0.7265 -0.6301
   27MOL   C220 9632   6.358   3.390   5.642  1.2364  0.5313  0.4515
   27MOL   C221 9633   6.433   3.416   5.776  0.1189  0.6354  0.2086
   27MOL   C222 9634   6.588   3.443   5.747  0.3843  0.4465 -0.3123
   27MOL   C223 9635   6.378   3.544   5.841  0.1474  0.1977 -0.7550
   27MOL   H224 9636   6.079   3.374   5.678  0.5445 -0.8173  0.0135
   27MOL   H225 9637   6.156   3.330   5.830 -0.0111 -0.5261  0.2183
   27MOL   H226 9638   6.316   3.193   5.704  0.1099  0.1345  0.7117
   27MOL   H227 9639   6.432   3.375   5.564  1.7979  0.3420  1.0112
   27MOL   H228 9640   6.308   3.483   5.612 -1.3914 -1.0476 -0.2839
   27MOL   H229 9641   6.424   3.340   5.855 -0.7250  2.3518  1.8068
   27MOL   H230 9642   6.639   3.464   5.842  4.5558 -2.7157 -1.7347
   27MOL   H231 9643   6.636   3.355   5.705  0.0010 -0.0185  0.2098
   27MOL   H232 9644   6.602   3.513   5.665  3.2457 -1.4724 -1.5236
   27MOL   H233 9645   6.271   3.530   5.859 -0.1234  0.4788 -2.0878
   27MOL   H234 9646   6.423   3.565   5.938  0.7306  0.3608 -1.0546
   27MOL   H235 9647   6.393   3.628   5.773  0.2261  0.4564 -0.4226
   27MOL   C236 9648   6.234   3.219   5.505  0.4252 -0.3340 -0.8039
   27MOL   C237 9649   6.354   3.137   5.445  0.1627 -0.4206 -0.3928
   27MOL   C238 9650   6.378   3.182   5.297  0.3704  0.1267 -0.0475
   27MOL   C239 9651   6.444   3.317   5.264 -0.0801  0.7079  0.2658
   27MOL   C240 9652   6.594   3.304   5.274 -0.4549 -1.0749 -0.1929
   27MOL   C241 9653   6.406   3.366   5.118 -0.0024 -0.0800  0.0492
   27MOL   H242 9654   6.218   3.308   5.444 -0.1902 -2.5997 -4.0447
   27MOL   H243 9655   6.147   3.159   5.479 -0.4727  0.3473  0.5385
   27MOL   H244 9656   6.449   3.155   5.496 -0.8244 -1.4052  1.8699
   27MOL   H245 9657   6.278   3.193   5.255  0.0975  2.0801  1.0606
   27MOL   H246 9658   6.434   3.112   5.234 -0.1316  1.2766 -1.8212
   27MOL   H247 9659   6.405   3.389   5.336  1.4653  0.8854  0.9496
   27MOL   H248 9660   6.642   3.398   5.248  0.4704 -1.2449  0.8146
   27MOL   H249 9661   6.643   3.220   5.225  0.4343 -0.1122 -0.9641
   27MOL   H250 9662   6.626   3.280   5.376  0.3530 -0.5294 -0.3119
   27MOL   H251 9663   6.300   3.367   5.091  0.0504  2.7890 -0.1071
   27MOL   H252 9664   6.454   3.313   5.036  1.6068  0.5077  0.6061
   27MOL   H253 9665   6.426   3.472   5.113  0.1584 -0.1340 -0.4584
   27MOL   C254 9666   6.327   2.989   5.456  0.2971  0.2451 -0.3219
   27MOL   C255 9667   6.452   2.897   5.447  0.1912  0.6747  0.6000
   27MOL   C256 9668   6.546   2.906   5.567 -0.0564  0.8845 -0.5174
   27MOL   C257 9669   6.692   2.847   5.546  0.3185  0.2085 -0.7773
   27MOL   C258 9670   6.763   2.816   5.681 -0.6651 -0.5859  0.9253
   27MOL   C259 9671   6.778   2.944   5.467 -0.6641 -0.4168 -0.6009
   27MOL   H260 9672   6.294   2.969   5.558  0.2284  0.0746 -0.3772
   27MOL   H261 9673   6.245   2.968   5.388 -0.3315 -3.6589  1.5002
   27MOL   H262 9674   6.506   2.929   5.358 -0.6282 -2.2465 -1.0334
   27MOL   H263 9675   6.493   2.855   5.648  0.4262  0.5619 -0.4035
   27MOL   H264 9676   6.547   3.007   5.608  0.8980  0.5745  0.2437
   27MOL   H265 9677   6.685   2.758   5.484 -2.0181  0.6458 -1.1834
   27MOL   H266 9678   6.832   2.732   5.672  0.4587  0.3953  0.1208
   27MOL   H267 9679   6.678   2.777   5.737 -1.1994  0.9669  1.2439
   27MOL   H268 9680   6.809   2.903   5.729 -0.8637  0.9890 -1.6146
   27MOL   H269 9681   6.878   2.905   5.450  0.0647  1.2880 -0.3673
   27MOL   H270 9682   6.727   2.955   5.371  0.1931  3.1045 -0.7220
   27MOL   H271 9683   6.779   3.043   5.513 -1.0866 -0.5274 -0.3493
   27MOL   C272 9684   6.416   2.749   5.408 -0.5371 -0.5073 -0.6822
   27MOL   C273 9685   6.482   2.709   5.269  0.3555 -0.4971 -0.1936
   27MOL   C274 9686   6.484   2.552   5.254  0.0634  0.5818 -0.1411
   27MOL   C275 9687   6.580   2.477   5.346  0.5481 -0.0135  0.4015
   27MOL   C276 9688   6.727   2.485   5.294 -0.7889  0.0705  0.0466
   27MOL   C277 9689   6.544   2.327   5.358 -0.4203 -0.5026  0.2848
   27MOL   H278 9690   6.459   2.687   5.487  1.2228 -2.0645 -2.7831
   27MOL   H279 9691   6.308   2.738   5.409 -0.8773  2.4909  2.2318
   27MOL   H280 9692   6.584   2.746   5.261  0.8728 -1.9960 -0.7795
   27MOL   H281 9693   6.501   2.528   5.149 -2.0160 -0.5153 -0.2647
   27MOL   H282 9694   6.381   2.521   5.271  0.5376 -0.0185  1.7215
   27MOL   H283 9695   6.587   2.513   5.449  0.6245 -0.6963  0.6390
   27MOL   H284 9696   6.731   2.502   5.186 -3.1217  2.7852  0.3267
   27MOL   H285 9697   6.777   2.577   5.326  1.7325 -1.1378 -0.3334
   27MOL   H286 9698   6.779   2.393   5.319 -2.0791 -0.6126  0.2742
   27MOL   H287 9699   6.449   2.309   5.408 -1.0642  0.1739 -0.6787
   27MOL   H288 9700   6.527   2.287   5.258  1.4241 -0.3679 -0.1040
   27MOL   H289 9701   6.607   2.260   5.417 -0.9309 -1.2333  0.0020
   27MOL   C290 9702   6.402   2.756   5.149 -0.5375 -0.6159 -0.2506
   27MOL   C291 9703   6.490   2.794   5.029  0.6920  0.3281 -0.3077
   27MOL   C292 9704   6.422   2.774   4.895 -0.1080  0.5434 -0.2828
   27MOL   C293 9705   6.409   2.626   4.840  0.7151 -0.7830 -0.2792
   27MOL   C294 9706   6.303   2.613   4.728  0.4984 -0.3781  0.0663
   27MOL   C295 9707   6.544   2.561   4.806 -0.0367  0.6708 -0.1114
   27MOL   H296 9708   6.331   2.681   5.115 -0.5124 -0.4834 -0.5976
   27MOL   H297 9709   6.340   2.838   5.187 -1.5644 -1.3570 -0.3239
   27MOL   H298 9710   6.566   2.716   5.030  0.3333 -0.0325 -0.8357
   27MOL   H299 9711   6.479   2.835   4.825  2.2713  1.1844  2.1244
   27MOL   H300 9712   6.326   2.825   4.899 -0.3797 -0.1345  2.6368
   27MOL   H301 9713   6.378   2.572   4.930 -0.0772  3.0523  1.8680
   27MOL   H302 9714   6.209   2.657   4.761  1.5152  1.3577  0.7657
   27MOL   H303 9715   6.298   2.507   4.706 -0.6050 -0.0146 -1.4228
   27MOL   H304 9716   6.344   2.653   4.636  1.6460 -0.9769  0.2971
   27MOL   H305 9717   6.522   2.457   4.782 -0.0945  0.8115 -0.6700
   27MOL   H306 9718   6.612   2.566   4.891  0.8575 -1.5460 -0.6461
   27MOL   H307 9719   6.590   2.602   4.716  1.1193  0.4133  0.3466
   27MOL   C308 9720   6.558   2.930   5.044 -0.7258 -0.2524 -0.3113
   27MOL   C309 9721   6.696   2.933   4.975 -0.5142 -0.1684 -0.9688
   27MOL   C310 9722   6.741   3.085   4.948  0.4381 -0.6142 -0.0867
   27MOL   C311 9723   6.665   3.159   4.833  0.1165  0.7660  0.3977
   27MOL   C312 9724   6.694   3.314   4.833  0.1730 -0.0923  0.4780
   27MOL   C313 9725   6.699   3.099   4.699  0.2438  1.3070 -0.2491
   27MOL   H314 9726   6.495   3.014   5.014  1.2111  1.2711 -0.2700
   27MOL   H315 9727   6.584   2.953   5.147  0.3248 -2.9427  0.0565
   27MOL   H316 9728   6.680   2.881   4.881 -0.5391 -3.1268  0.6202
   27MOL   H317 9729   6.846   3.091   4.919  0.9904 -0.2835  1.9000
   27MOL   H318 9730   6.737   3.137   5.043  2.8073 -1.0001  0.2716
   27MOL   H319 9731   6.557   3.146   4.840  0.2569 -1.2240 -0.7202
   27MOL   H320 9732   6.800   3.324   4.814 -0.2381  1.2540 -1.2378
   27MOL   H321 9733   6.654   3.363   4.923  0.3425  0.1745  0.4066
   27MOL   H322 9734   6.636   3.352   4.749 -0.4984 -3.3087 -0.5738
   27MOL   H323 9735   6.797   3.051   4.699 -0.3567  0.0274  1.0722
   27MOL   H324 9736   6.629   3.021   4.673 -1.0069  0.8298  4.1011
   27MOL   H325 9737   6.713   3.172   4.619  1.8008  1.4331  0.1163
   27MOL   C326 9738   6.807   2.856   5.054 -0.1524 -0.8657  0.1177
   27MOL   C327 9739   6.920   2.801   4.964  0.0678  0.4298  0.0789
   27MOL   C328 9740   6.890   2.662   4.892 -0.5867 -0.2204 -0.3437
   27MOL   C329 9741   6.999   2.602   4.803  0.3150  0.3069  0.0539
   27MOL   C330 9742   6.953   2.466   4.745  0.6329 -0.2212  0.6511
   27MOL   C331 9743   7.047   2.705   4.698  0.3160  0.0275 -0.1952
   27MOL   H332 9744   6.760   2.775   5.110 -0.3331  0.6668  2.2628
   27MOL   H333 9745   6.854   2.925   5.124 -1.8505  0.0234  0.4025
   27MOL   H334 9746   6.924   2.872   4.882 -1.1344 -0.4365 -0.7435
   27MOL   H335 9747   6.864   2.590   4.970 -0.3720  2.0854  1.9295
   27MOL   H336 9748   6.808   2.678   4.822  0.3726 -0.3242 -1.5217
   27MOL   H337 9749   7.084   2.572   4.863  0.3405 -0.4185 -0.3312
   27MOL   H338 9750   7.023   2.406   4.688  0.8811  1.5663 -0.9748
   27MOL   H339 9751   6.883   2.482   4.662 -1.4044  0.4627  2.4385
   27MOL   H340 9752   6.904   2.412   4.826 -0.5643 -0.3400 -0.1281
   27MOL   H341 9753   6.967   2.745   4.636  0.6500 -0.4367 -0.9315
   27MOL   H342 9754   7.091   2.790   4.751 -0.7412 -0.4477  1.4665
   27MOL   H343 9755   7.113   2.654   4.628  0.4621 -1.8863  1.2865
   27MOL   C344 9756   7.055   2.799   5.042 -0.0612  0.5644 -0.8081
   27MOL   C345 9757   7.056   2.687   5.149  0.1185  1.0957  0.4579
   27MOL   C346 9758   7.190   2.670   5.219  0.6564 -0.5516 -0.2254
   27MOL   C347 9759   7.203   2.523   5.276  0.0847  0.6137  0.3741
   27MOL   C348 9760   7.082   2.483   5.362  0.1186 -0.1825  0.0819
   27MOL   C349 9761   7.338   2.503   5.339  0.1280 -0.1466  0.5922
   27MOL   H350 9762   7.066   2.901   5.078 -1.7458  0.7329 -0.7267
   27MOL   H351 9763   7.142   2.781   4.978  0.5063 -0.5737  0.2772
   27MOL   H352 9764   7.034   2.594   5.096 -0.6466  0.1327  2.4461
   27MOL   H353 9765   7.274   2.689   5.153  2.2888  0.0486  1.9624
   27MOL   H354 9766   7.196   2.741   5.302  0.9257 -1.2115  0.3273
   27MOL   H355 9767   7.194   2.462   5.187 -0.7252  1.2375  0.0164
   27MOL   H356 9768   6.995   2.470   5.299 -0.3937 -2.1677  1.1600
   27MOL   H357 9769   7.083   2.388   5.416  1.1375 -0.2295 -0.0113
   27MOL   H358 9770   7.068   2.565   5.433  0.5577 -0.2920  0.3000
   27MOL   H359 9771   7.416   2.522   5.265 -1.1397 -0.9195 -0.9676
   27MOL   H360 9772   7.348   2.399   5.370  1.1223 -0.0255  0.7075
   27MOL   H361 9773   7.342   2.558   5.433 -1.3928 -1.1041  1.2352
   27MOL   H362 9774   6.976   2.715   5.217  0.6598 -1.6368  2.2717
   28MOL     C1 9775   3.099   0.093   6.197 -0.4543 -0.6058 -0.0602
   28MOL     C2 9776   3.121   0.040   6.338  0.8378 -0.3034  0.1269
   28MOL     C3 9777   3.245   7.696   6.347 -0.2602  0.0262  0.0015
   28MOL     C4 9778   3.384   0.004   6.319 -0.1052  0.1361  0.2173
   28MOL     C5 9779   3.421   7.746   6.164 -0.9365 -0.3716  0.2220
   28MOL     C6 9780   3.496   7.698   6.405  0.2539  0.0005  0.1251
   28MOL     H7 9781   3.009   0.152   6.180 -0.0072 -0.7893 -3.3373
   28MOL     H8 9782   3.186   0.153   6.170  1.3979 -3.2652 -0.1893
   28MOL     H9 9783   3.141   0.124   6.405 -1.5634 -0.2408  0.7902
   28MOL    H10 9784   3.246   7.638   6.440  0.6007  2.0517  1.2769
   28MOL    H11 9785   3.222   7.623   6.270 -0.4479  1.4358 -1.2929
   28MOL    H12 9786   3.379   0.110   6.344  0.7651  0.4076 -0.7441
   28MOL    H13 9787   3.460   7.645   6.150 -1.6765 -0.7628  0.9235
   28MOL    H14 9788   3.345   0.005   6.087 -0.3680  0.8821 -0.1660
   28MOL    H15 9789   3.502   0.063   6.141 -1.7681  0.4815 -0.1866
   28MOL    H16 9790   3.494   7.591   6.382 -2.6963  0.2125 -0.8553
   28MOL    H17 9791   3.487   7.735   6.507 -0.1726  2.4085 -0.7589
   28MOL    H18 9792   3.592   7.737   6.370  1.1293 -1.3644  0.9786
   28MOL    H19 9793   3.100   0.012   6.125  0.1457  0.3841 -1.1847
   28MOL    C20 9794   2.997   7.716   6.396 -0.1269  0.1237  0.6891
   28MOL    C21 9795   2.857   0.017   6.364  0.0672  0.7039 -1.0506
   28MOL    C22 9796   2.744   7.663   6.393  1.2323  0.0263 -0.1317
   28MOL    C23 9797   2.684   7.572   6.287 -0.5666 -0.0536  0.6115
   28MOL    C24 9798   2.782   7.491   6.198 -0.0781  0.2908 -0.2651
   28MOL    C25 9799   2.593   7.471   6.363 -0.5663 -0.5045  0.7103
   28MOL    H26 9800   3.011   7.618   6.350 -3.9507  0.0448 -0.5294
   28MOL    H27 9801   3.006   7.694   6.502  0.0131  0.2106  0.6952
   28MOL    H28 9802   2.836   0.041   6.260 -0.5199 -2.3087 -1.6538
   28MOL    H29 9803   2.652   7.715   6.418  1.6302  0.0778  1.3021
   28MOL    H30 9804   2.780   7.597   6.473 -0.8432 -1.8013 -0.6549
   28MOL    H31 9805   2.622   7.632   6.220 -1.2730 -3.4597 -1.9325
   28MOL    H32 9806   2.842   7.552   6.130  0.9943 -0.7422 -0.2557
   28MOL    H33 9807   2.733   7.422   6.130 -1.6881 -0.1702  1.3111
   28MOL    H34 9808   2.837   7.430   6.270 -1.3937 -2.0197 -1.1742
   28MOL    H35 9809   2.532   7.527   6.434  1.5517 -0.8470  2.8978
   28MOL    H36 9810   2.538   7.406   6.296 -0.6172 -2.6546  2.7694
   28MOL    H37 9811   2.655   7.414   6.432 -0.1185 -0.2468  0.5216
   28MOL    C38 9812   2.832   0.161   6.429 -0.5934  0.2003 -0.6431
   28MOL    C39 9813   2.857   0.173   6.584  0.6114 -0.0288 -0.3354
   28MOL    C40 9814   2.744   0.106   6.674 -0.4061 -0.3739 -0.1869
   28MOL    C41 9815   2.792   0.058   6.807 -0.3148 -0.4619 -0.9438
   28MOL    C42 9816   2.883   7.690   6.792  0.4187  0.4167 -0.4773
   28MOL    C43 9817   2.681   0.036   6.913  0.4050 -0.8973 -0.0496
   28MOL    H44 9818   2.730   0.189   6.403 -0.8907 -2.3073 -2.2912
   28MOL    H45 9819   2.888   0.243   6.384 -1.1391  1.4551  0.8816
   28MOL    H46 9820   2.953   0.129   6.610  0.0892 -0.2450  1.2820
   28MOL    H47 9821   2.700   0.027   6.612 -1.1804 -0.8698  0.9731
   28MOL    H48 9822   2.663   0.178   6.689 -0.3705 -0.0700 -1.4316
   28MOL    H49 9823   2.857   0.131   6.856 -2.0488  0.2020  0.4278
   28MOL    H50 9824   2.833   7.627   6.720  0.3916 -0.5850  0.4090
   28MOL    H51 9825   2.981   7.717   6.754 -0.1678  1.6433 -1.1630
   28MOL    H52 9826   2.906   7.644   6.888 -0.6962  0.8598  0.0127
   28MOL    H53 9827   2.721   7.730   6.996 -0.4266 -0.5136  0.6270
   28MOL    H54 9828   2.600   7.720   6.888 -0.1167  0.4078 -2.0234
   28MOL    H55 9829   2.617   0.119   6.944 -0.2559 -0.6949 -1.9147
   28MOL    C56 9830   2.874   0.321   6.639 -0.5927  0.1173 -0.1344
   28MOL    C57 9831   3.014   0.377   6.653 -0.3319 -0.6316  0.1388
   28MOL    C58 9832   3.082   0.322   6.784  0.6063 -0.0243  0.4808
   28MOL    C59 9833   3.237   0.352   6.803  1.0919  0.0442  0.1658
   28MOL    C60 9834   3.323   0.314   6.687 -0.1907 -0.3112  0.3010
   28MOL    C61 9835   3.298   0.306   6.935  0.3598  0.0958  0.7012
   28MOL    H62 9836   2.816   0.338   6.730  0.8592 -0.3203  0.8848
   28MOL    H63 9837   2.815   0.375   6.565  1.6778  0.5198 -1.7054
   28MOL    H64 9838   3.062   0.352   6.558 -0.3422 -1.1121  0.2580
   28MOL    H65 9839   3.029   0.376   6.862  0.2744  0.7270 -0.2418
   28MOL    H66 9840   3.059   0.217   6.797  0.3306  0.0128  0.3092
   28MOL    H67 9841   3.244   0.461   6.795  1.0210  0.0686  0.4165
   28MOL    H68 9842   3.297   0.363   6.593  0.5782  1.2093  0.8728
   28MOL    H69 9843   3.314   0.206   6.678 -0.2320 -0.2538 -0.3649
   28MOL    H70 9844   3.426   0.345   6.703  0.6573 -2.2485 -1.1418
   28MOL    H71 9845   3.311   0.198   6.933 -1.2982 -0.1038 -0.2519
   28MOL    H72 9846   3.240   0.329   7.024  1.6308 -0.9419  1.8280
   28MOL    H73 9847   3.398   0.347   6.948  0.9538 -1.7951  2.3848
   28MOL    C74 9848   3.016   0.529   6.655  0.1785 -0.0779 -0.3538
   28MOL    C75 9849   2.959   0.600   6.537 -0.9101  0.1678 -0.3489
   28MOL    C76 9850   3.039   0.727   6.493  0.2065  0.3377 -0.3733
   28MOL    C77 9851   3.178   0.702   6.436 -0.7118  0.4601  0.1682
   28MOL    C78 9852   3.265   0.826   6.438 -0.2083  0.3614  0.3286
   28MOL    C79 9853   3.176   0.651   6.293  0.3492  0.0111 -0.7044
   28MOL    H80 9854   3.118   0.567   6.657 -0.3535  1.3137  2.4767
   28MOL    H81 9855   2.973   0.561   6.749  0.3281 -1.0834  0.0661
   28MOL    H82 9856   2.964   0.528   6.456  1.0372 -1.6168  1.2909
   28MOL    H83 9857   2.977   0.785   6.424  1.1536  1.2179 -0.4806
   28MOL    H84 9858   3.049   0.785   6.584  0.9636  0.4518 -0.5298
   28MOL    H85 9859   3.229   0.639   6.509  1.3935  0.4363 -1.2728
   28MOL    H86 9860   3.266   0.873   6.537  1.5025  0.5602  0.2378
   28MOL    H87 9861   3.220   0.888   6.360 -1.4213 -0.2372  0.5393
   28MOL    H88 9862   3.366   0.810   6.401 -0.4451 -2.5522  0.8791
   28MOL    H89 9863   3.126   0.554   6.288  0.6306 -0.1972  0.5175
   28MOL    H90 9864   3.136   0.725   6.223  2.2804  1.8544  0.1232
   28MOL    H91 9865   3.277   0.624   6.262  0.9719 -0.8126  1.9533
   28MOL    C92 9866   2.808   0.643   6.564  0.0836  0.3744  0.2569
   28MOL    C93 9867   2.724   0.683   6.434 -0.0734  0.2428  0.9618
   28MOL    C94 9868   2.673   0.569   6.344  0.4617 -0.3098  0.3169
   28MOL    C95 9869   2.766   0.475   6.264  0.5169 -0.5875  0.1489
   28MOL    C96 9870   2.689   0.373   6.181 -0.3645  1.0645  0.5580
   28MOL    C97 9871   2.842   0.572   6.160 -0.2649 -0.4186 -1.1605
   28MOL    H98 9872   2.751   0.562   6.611 -0.4994  0.0874 -0.9233
   28MOL    H99 9873   2.805   0.722   6.638 -2.1863 -0.8260  1.5060
   28MOL   H100 9874   2.785   0.743   6.366  0.6915 -1.3276  0.2339
   28MOL   H101 9875   2.609   0.615   6.269  0.1301  0.8041  1.2661
   28MOL   H102 9876   2.607   0.502   6.400 -0.5372  1.4293  1.2754
   28MOL   H103 9877   2.833   0.428   6.335  0.4483  0.2762  0.7914
   28MOL   H104 9878   2.619   0.425   6.116 -0.3608 -0.9413 -1.0995
   28MOL   H105 9879   2.624   0.309   6.241 -2.8928  1.3443 -1.7976
   28MOL   H106 9880   2.764   0.323   6.120 -0.9035 -0.5976  1.2109
   28MOL   H107 9881   2.891   0.656   6.211  0.4441 -0.7220 -1.3378
   28MOL   H108 9882   2.771   0.609   6.086 -1.3347 -0.5219 -0.1894
   28MOL   H109 9883   2.924   0.532   6.100  0.6099  2.7694 -2.2394
   28MOL   C110 9884   2.604   0.761   6.469  0.7161 -0.0101  0.0811
   28MOL   C111 9885   2.636   0.906   6.525  0.0833  0.2266  0.1847
   28MOL   C112 9886   2.673   0.997   6.406  0.3065  0.8645  0.1061
   28MOL   C113 9887   2.744   1.123   6.461  0.2933 -0.4159 -0.2447
   28MOL   C114 9888   2.763   1.224   6.347  0.5198 -0.7647 -0.5461
   28MOL   C115 9889   2.888   1.093   6.518 -0.4104 -0.2125 -0.2296
   28MOL   H116 9890   2.552   0.702   6.544  0.3879  1.0281  0.6870
   28MOL   H117 9891   2.532   0.777   6.389 -0.6953 -1.5478  1.0140
   28MOL   H118 9892   2.716   0.896   6.598 -0.5112 -0.9087  0.6800
   28MOL   H119 9893   2.578   1.027   6.361 -0.0270 -0.5345 -0.1419
   28MOL   H120 9894   2.726   0.946   6.326  2.4911  1.2521  1.2830
   28MOL   H121 9895   2.677   1.163   6.537  1.2971  1.0825 -0.1251
   28MOL   H122 9896   2.832   1.305   6.372 -1.3039  0.9520 -0.9646
   28MOL   H123 9897   2.663   1.263   6.334  1.0963  0.8737 -0.2047
   28MOL   H124 9898   2.801   1.184   6.253 -1.1920 -1.3671 -0.9917
   28MOL   H125 9899   2.957   1.074   6.436  1.4902  2.8201  0.6360
   28MOL   H126 9900   2.881   1.011   6.591 -1.1239 -0.7381 -0.8758
   28MOL   H127 9901   2.918   1.177   6.580 -0.0988 -0.7264  0.3229
   28MOL   C128 9902   2.504   0.960   6.591 -0.5873  0.9512  0.4518
   28MOL   C129 9903   2.486   0.948   6.746 -0.1970  1.0661  0.4222
   28MOL   C130 9904   2.347   0.992   6.782 -0.2691 -0.3478  0.2858
   28MOL   C131 9905   2.231   0.900   6.734  0.1442 -0.3240  0.3080
   28MOL   C132 9906   2.247   0.761   6.795  0.1749 -0.1667 -0.5197
   28MOL   C133 9907   2.101   0.967   6.775  0.3196 -0.0443 -0.5532
   28MOL   H134 9908   2.421   0.912   6.539 -0.2110  1.6116 -0.7972
   28MOL   H135 9909   2.491   1.066   6.566 -0.0377  1.3538  1.8472
   28MOL   H136 9910   2.499   0.849   6.789  0.7991  1.0213  0.0368
   28MOL   H137 9911   2.324   1.006   6.888 -0.3613 -0.3352  0.2647
   28MOL   H138 9912   2.329   1.089   6.736 -1.0523 -1.1538 -1.1260
   28MOL   H139 9913   2.234   0.897   6.625 -2.1062  1.3736  0.1486
   28MOL   H140 9914   2.333   0.711   6.750  0.6893  1.6291 -1.5958
   28MOL   H141 9915   2.166   0.695   6.765  0.2284  0.6703 -2.6409
   28MOL   H142 9916   2.258   0.744   6.902  0.8247 -1.3994 -0.7704
   28MOL   H143 9917   2.093   1.061   6.720  1.4919  0.6782  0.4598
   28MOL   H144 9918   2.010   0.909   6.761 -1.5255  1.9166  2.6882
   28MOL   H145 9919   2.097   1.000   6.879  1.1116 -0.3208 -0.4275
   28MOL   C146 9920   2.587   1.035   6.825  0.2387 -0.0897 -0.2982
   28MOL   C147 9921   2.708   0.973   6.893 -0.3322 -0.5123  0.4254
   28MOL   C148 9922   2.651   0.865   6.987 -0.1856 -0.5027 -0.2063
   28MOL   C149 9923   2.677   0.715   6.955 -0.2245  0.1374  0.4799
   28MOL   C150 9924   2.818   0.668   7.013 -1.0967 -0.1014 -0.0236
   28MOL   C151 9925   2.566   0.620   7.004  0.0701  0.6062  0.1389
   28MOL   H152 9926   2.535   1.089   6.903 -0.4025  0.0129 -0.7894
   28MOL   H153 9927   2.608   1.118   6.758 -2.0378 -0.6947 -1.8087
   28MOL   H154 9928   2.772   0.929   6.816  0.4869  0.4540  0.5366
   28MOL   H155 9929   2.684   0.880   7.090  0.1576 -2.0256 -0.0797
   28MOL   H156 9930   2.543   0.875   6.989 -0.1540  0.3245 -1.8283
   28MOL   H157 9931   2.678   0.708   6.847 -0.9315 -1.3519  0.5534
   28MOL   H158 9932   2.816   0.644   7.120 -1.3462 -1.4112 -0.3136
   28MOL   H159 9933   2.896   0.739   6.986 -1.4347 -0.1047 -1.0041
   28MOL   H160 9934   2.850   0.584   6.951 -0.5411  0.2675 -0.2397
   28MOL   H161 9935   2.483   0.606   6.936 -0.0033  2.2398 -0.1207
   28MOL   H162 9936   2.537   0.655   7.103  1.3728 -1.4955  1.3130
   28MOL   H163 9937   2.610   0.522   7.027  0.1038  0.9378  1.5532
   28MOL   C164 9938   2.780   1.078   6.974 -0.0977  0.0700 -0.3457
   28MOL   C165 9939   2.920   1.045   7.036 -0.0532 -0.0631 -0.4674
   28MOL   C166 9940   3.034   1.041   6.933 -0.0513 -0.0216  0.5332
   28MOL   C167 9941   3.167   0.990   6.983  0.2579 -0.4558  0.0092
   28MOL   C168 9942   3.172   0.838   6.979 -0.7727 -0.2257  0.1131
   28MOL   C169 9943   3.281   1.051   6.899  0.4816 -0.8041 -0.1308
   28MOL   H170 9944   2.778   1.175   6.925  1.3156  1.2049  1.8003
   28MOL   H171 9945   2.716   1.092   7.061 -0.9615  0.0782 -0.9697
   28MOL   H172 9946   2.909   0.943   7.073  1.2112 -0.1650 -0.3539
   28MOL   H173 9947   2.995   0.983   6.849  1.7906  1.2545 -1.2587
   28MOL   H174 9948   3.042   1.140   6.888 -2.3355 -0.0176  0.0713
   28MOL   H175 9949   3.188   1.018   7.086 -1.2388  0.9804 -0.0634
   28MOL   H176 9950   3.272   0.820   7.017 -0.0916  1.9628 -0.5270
   28MOL   H177 9951   3.175   0.798   6.877  0.4626 -0.2429  0.1523
   28MOL   H178 9952   3.090   0.795   7.036 -1.0517 -1.1741 -0.9899
   28MOL   H179 9953   3.284   1.006   6.800 -2.7420  0.7779 -1.0030
   28MOL   H180 9954   3.379   1.028   6.943  1.8916  2.6798 -1.2302
   28MOL   H181 9955   3.272   1.159   6.887  0.5136 -0.8056 -0.1694
   28MOL   C182 9956   2.943   1.139   7.164  0.4044 -0.2709 -0.1955
   28MOL   C183 9957   3.018   1.280   7.147 -0.1200  0.3421 -0.3333
   28MOL   C184 9958   2.936   1.387   7.068 -0.0047 -0.0416  0.2050
   28MOL   C185 9959   3.016   1.498   6.995 -0.4286  0.3479 -0.2729
   28MOL   C186 9960   3.106   1.443   6.885  0.9157  0.0854 -1.2590
   28MOL   C187 9961   2.927   1.610   6.942  0.2501 -0.1250  0.4382
   28MOL   H188 9962   2.997   1.075   7.234 -1.0536  0.0251  1.2299
   28MOL   H189 9963   2.847   1.147   7.216 -0.7405  2.4607 -2.5858
   28MOL   H190 9964   3.111   1.259   7.094 -0.2788  1.3016 -1.0028
   28MOL   H191 9965   2.860   1.431   7.133 -1.6324  0.5015 -2.0251
   28MOL   H192 9966   2.884   1.339   6.985  0.6634 -2.9856  1.4371
   28MOL   H193 9967   3.075   1.547   7.072  0.9428  1.1286 -1.7741
   28MOL   H194 9968   3.040   1.401   6.809 -0.2488 -0.5383  0.0715
   28MOL   H195 9969   3.180   1.368   6.914  0.6018  0.2486 -0.0087
   28MOL   H196 9970   3.166   1.524   6.842  1.2903  2.2961  3.1551
   28MOL   H197 9971   2.988   1.683   6.890  0.7717 -0.9261 -0.0849
   28MOL   H198 9972   2.878   1.659   7.027 -0.6518 -0.4753  0.1262
   28MOL   H199 9973   2.840   1.582   6.883 -0.5988  0.4993  1.3571
   28MOL   C200 9974   3.050   1.328   7.294  0.2506  0.2495 -0.1877
   28MOL   C201 9975   3.203   1.318   7.327  0.4983 -0.2556 -0.3803
   28MOL   C202 9976   3.217   1.363   7.475  0.2952  0.1247  0.0967
   28MOL   C203 9977   3.169   1.273   7.582 -0.4263 -0.5637 -0.4629
   28MOL   C204 9978   3.242   1.132   7.576  0.5576 -0.6603  0.4355
   28MOL   C205 9979   3.185   1.345   7.711 -0.1206  0.0711  0.5803
   28MOL   H206 9980   2.994   1.259   7.356  1.6422 -1.1415 -0.4464
   28MOL   H207 9981   3.023   1.433   7.304  2.1580  0.8784 -1.3395
   28MOL   H208 9982   3.223   1.211   7.319 -1.5265 -0.6853  0.0926
   28MOL   H209 9983   3.323   1.383   7.493  0.0203  2.0808 -0.3447
   28MOL   H210 9984   3.172   1.463   7.478 -0.2499 -0.1609  2.0158
   28MOL   H211 9985   3.060   1.263   7.573 -0.8144  2.2115  0.4936
   28MOL   H212 9986   3.219   1.069   7.490 -2.9457 -0.9214  1.4586
   28MOL   H213 9987   3.208   1.069   7.659 -2.7366  0.0841 -0.2603
   28MOL   H214 9988   3.349   1.152   7.579  0.3199  0.4620  1.9949
   28MOL   H215 9989   3.285   1.327   7.751 -0.6448  2.0819  2.9370
   28MOL   H216 9990   3.109   1.310   0.029 -1.2803 -0.1186 -0.7457
   28MOL   H217 9991   3.161   1.448   7.688  2.7783  0.6146 -0.3052
   28MOL   C218 9992   3.295   1.395   7.230 -0.6407 -0.2326  0.4210
   28MOL   C219 9993   3.448   1.359   7.237  0.1694  0.0153  0.5983
   28MOL   C220 9994   3.552   1.465   7.171 -0.2065 -0.3547 -0.1389
   28MOL   C221 9995   3.611   1.580   7.255  0.0439 -0.9036 -0.7388
   28MOL   C222 9996   3.516   1.701   7.262  0.5239 -0.2334  0.0378
   28MOL   C223 9997   3.656   1.546   7.398  0.6084 -0.3377  0.0991
   28MOL   H224 9998   3.257   1.407   7.129  2.5140  0.9538 -0.6911
   28MOL   H225 9999   3.281   1.497   7.266 -2.0372 -0.4168  0.4328
   28MOL   H22610000   3.472   1.342   7.342  1.6710 -1.0465  0.1042
   28MOL   H22710001   3.633   1.406   7.127 -0.2293  0.5539 -1.3870
   28MOL   H22810002   3.506   1.502   7.079  1.6211 -0.0187 -0.9296
   28MOL   H22910003   3.703   1.600   7.199  1.0629 -2.4610  0.3535
   28MOL   H23010004   3.565   1.778   7.322  0.3142  0.2684 -0.4311
   28MOL   H23110005   3.497   1.742   7.163 -1.2701  0.6953  0.7534
   28MOL   H23210006   3.423   1.674   7.311 -0.1258 -0.0385 -1.0782
   28MOL   H23310007   3.571   1.520   7.462  0.7689 -1.1180 -0.0031
   28MOL   H23410008   3.722   1.461   7.386  0.2318 -0.6936  0.5439
   28MOL   H23510009   3.711   1.631   7.440  2.2127 -1.5181  0.4157
   28MOL   C23610010   3.456   1.221   7.168 -0.2470 -0.3903  0.0624
   28MOL   C23710011   3.574   1.138   7.223 -0.3014  0.3315 -0.4382
   28MOL   C23810012   3.659   1.062   7.104  0.1142 -0.4070  0.1262
   28MOL   C23910013   3.774   1.157   7.054 -0.1743  0.2214 -0.6358
   28MOL   C24010014   3.888   1.154   7.167  0.1010 -0.1838 -0.1459
   28MOL   C24110015   3.836   1.099   6.927 -0.1456 -0.0456 -0.2688
   28MOL   H24210016   3.466   1.242   7.061  1.8360 -2.8141 -0.2540
   28MOL   H24310017   3.375   1.150   7.186 -0.8277  0.3081  0.2478
   28MOL   H24410018   3.642   1.212   7.264  0.3168 -0.1960 -0.5158
   28MOL   H24510019   3.594   1.027   7.024 -0.1499 -0.8659  0.5332
   28MOL   H24610020   3.698   0.970   7.148 -0.8807 -0.1705  1.5660
   28MOL   H24710021   3.735   1.258   7.039  1.1071  1.2042  2.2507
   28MOL   H24810022   3.982   1.194   7.130  0.2141 -1.3392 -1.1428
   28MOL   H24910023   3.913   1.050   7.186 -2.0212 -0.8739 -0.9165
   28MOL   H25010024   3.861   1.196   7.264  0.2240 -0.9337  0.2130
   28MOL   H25110025   3.883   1.002   6.946  3.0262  1.0019 -2.3755
   28MOL   H25210026   3.911   1.172   6.898 -0.7759  1.2490  1.2890
   28MOL   H25310027   3.768   1.082   6.843 -1.8237 -1.1891  1.2819
   28MOL   C25410028   3.533   1.042   7.338 -0.3278 -0.0326 -0.1536
   28MOL   C25510029   3.635   1.019   7.444 -0.4004 -0.4737 -0.2229
   28MOL   C25610030   3.657   1.149   7.526  0.7537 -0.6323 -0.3382
   28MOL   C25710031   3.776   1.156   7.617 -0.3728 -0.2160  0.4590
   28MOL   C25810032   3.756   1.262   7.729  0.0569 -0.1000 -1.3256
   28MOL   C25910033   3.905   1.182   7.542  0.3354  0.4313 -0.0519
   28MOL   H26010034   3.445   1.077   7.393  0.6308  1.1899  0.6389
   28MOL   H26110035   3.505   0.950   7.288  0.6104 -0.3097 -0.1839
   28MOL   H26210036   3.725   1.000   7.387 -0.3890  0.9385 -0.6992
   28MOL   H26310037   3.572   1.159   7.593  0.1998 -0.9048 -1.0078
   28MOL   H26410038   3.664   1.235   7.460 -0.6771 -1.4234 -1.5511
   28MOL   H26510039   3.797   1.061   7.667 -0.5664  0.0030  0.9544
   28MOL   H26610040   3.764   1.361   7.686  0.1963  0.4981  0.0432
   28MOL   H26710041   3.838   1.251   0.048  0.8612  0.3575 -2.1759
   28MOL   H26810042   3.658   1.254   0.024  1.5459 -1.2662  1.7347
   28MOL   H26910043   3.944   1.104   7.476 -1.3863  0.1827 -0.7797
   28MOL   H27010044   3.901   1.272   7.481  0.3104  0.7221  0.3823
   28MOL   H27110045   3.994   1.196   7.604  0.2846 -0.2776  0.1924
   28MOL   C27210046   3.603   0.902   7.535  0.3436  0.1381 -0.5841
   28MOL   C27310047   3.609   0.766   7.468 -1.0414 -0.0255  0.0615
   28MOL   C27410048   3.754   0.722   7.442  0.4616 -0.0214  0.2244
   28MOL   C27510049   3.780   0.602   7.342 -0.2273 -0.0199 -0.1328
   28MOL   C27610050   3.926   0.552   7.343  0.5814  0.2266 -0.3999
   28MOL   C27710051   3.741   0.637   7.201  0.0824  0.7989 -0.3499
   28MOL   H27810052   3.672   0.902   7.619  0.8193 -0.8090 -0.9672
   28MOL   H27910053   3.505   0.930   7.572  0.7238  2.2631 -1.1497
   28MOL   H28010054   3.555   0.766   7.374 -2.3430  1.8046  0.7780
   28MOL   H28110055   3.795   0.695   7.540  4.3243 -0.5999 -1.4531
   28MOL   H28210056   3.817   0.807   7.414  0.6678  0.5587  2.3470
   28MOL   H28310057   3.725   0.512   7.368  1.3474 -1.5773 -2.0269
   28MOL   H28410058   3.987   0.628   7.295 -2.8154  1.8641 -2.3132
   28MOL   H28510059   3.968   0.531   7.441 -1.7931 -0.1618  0.5711
   28MOL   H28610060   3.938   0.464   7.279 -0.2074 -0.2165  0.0544
   28MOL   H28710061   3.633   0.654   7.199  0.0774  0.7506 -0.4823
   28MOL   H28810062   3.804   0.714   7.156  2.0623  0.6054  2.0307
   28MOL   H28910063   3.749   0.540   7.151  0.1406  0.7982 -0.3397
   28MOL   C29010064   3.541   0.654   7.554  0.1941  0.0680  0.2269
   28MOL   C29110065   3.388   0.630   7.539 -0.1265 -0.9272  0.1960
   28MOL   C29210066   3.355   0.561   7.412  0.3407  0.9857 -0.8259
   28MOL   C29310067   3.221   0.607   7.356  0.3821 -0.8436 -0.2039
   28MOL   C29410068   3.238   0.747   7.290 -0.0911  0.1950  0.0188
   28MOL   C29510069   3.166   0.506   7.265 -0.0112 -0.4446  0.4226
   28MOL   H29610070   3.579   0.552   7.546 -0.6734 -0.1183 -1.5864
   28MOL   H29710071   3.561   0.680   7.658  2.8851 -1.1886  0.0830
   28MOL   H29810072   3.340   0.727   7.552  1.7801  0.3390 -1.9473
   28MOL   H29910073   3.371   0.454   7.420 -0.0715  1.0224  0.5013
   28MOL   H30010074   3.426   0.582   7.331  1.8282 -0.4946  0.0788
   28MOL   H30110075   3.146   0.620   7.434  2.5253  0.7247  1.6750
   28MOL   H30210076   3.292   0.809   7.362  0.4142 -0.8367  0.5276
   28MOL   H30310077   3.145   0.793   7.255 -0.2825  1.7728  2.4414
   28MOL   H30410078   3.305   0.728   7.207 -1.9031 -0.8393 -1.2250
   28MOL   H30510079   3.245   0.475   7.196 -0.5874 -0.6839 -0.1346
   28MOL   H30610080   3.073   0.537   7.218 -0.5668 -0.3155  1.5767
   28MOL   H30710081   3.150   0.408   7.310  0.8367 -0.4270  0.7702
   28MOL   C30810082   3.332   0.540   7.651 -0.6906  0.2387  0.0562
   28MOL   C30910083   3.318   0.595   0.048  0.1124 -0.0391 -0.2823
   28MOL   C31010084   3.202   0.705   0.047  0.0576 -0.5875  0.7745
   28MOL   C31110085   3.180   0.785   0.173 -1.3002  0.4766 -0.0597
   28MOL   C31210086   3.313   0.855   0.212  0.3571  0.8962 -0.4850
   28MOL   C31310087   3.075   0.900   0.144  0.3098 -0.2040  0.2691
   28MOL   H31410088   3.229   0.519   7.624 -0.2948 -1.4687 -0.1648
   28MOL   H31510089   3.384   0.445   7.641  1.1568  1.2398 -0.0918
   28MOL   H31610090   3.413   0.646   0.062  0.9340 -1.1371 -1.7088
   28MOL   H31710091   3.110   0.669   0.002  1.6414 -0.0325 -3.1076
   28MOL   H31810092   3.224   0.782   7.726 -3.7730  0.7207  0.8823
   28MOL   H31910093   3.146   0.721   0.254  0.6761 -1.0149 -0.3630
   28MOL   H32010094   3.394   0.790   0.246  0.5743  2.2238  1.5727
   28MOL   H32110095   3.297   0.923   0.295 -1.3487  0.9156 -0.8093
   28MOL   H32210096   3.362   0.914   0.135  1.7295  0.0112 -0.3058
   28MOL   H32310097   3.101   0.955   0.054  3.0986 -2.7977 -0.5951
   28MOL   H32410098   2.981   0.846   0.137 -0.1096  0.6489 -0.8342
   28MOL   H32510099   3.069   0.966   0.231 -0.5104  0.1599 -0.0650
   28MOL   C32610100   3.306   0.483   0.146  0.2360  0.5519  0.7372
   28MOL   C32710101   3.405   0.369   0.157  0.3163  0.1562 -0.6775
   28MOL   C32810102   3.355   0.263   0.257  0.3974  0.0478 -0.1612
   28MOL   C32910103   3.329   0.293   0.404  0.2107  0.4634 -0.3564
   28MOL   C33010104   3.194   0.355   0.429  0.0406 -0.2372  0.2028
   28MOL   C33110105   3.341   0.165   0.490 -0.1880 -0.1855 -0.4639
   28MOL   H33210106   3.209   0.443   0.116  0.7325 -0.5140  0.5088
   28MOL   H33310107   3.287   0.528   0.244 -2.7208  1.6653 -0.3048
   28MOL   H33410108   3.419   0.316   0.063  1.9738  0.1143 -0.4160
   28MOL   H33510109   3.265   0.217   0.216  0.0150 -1.1812  1.9518
   28MOL   H33610110   3.428   0.182   0.249  1.0023  0.6581 -0.9619
   28MOL   H33710111   3.409   0.361   0.433 -0.2709  0.0550  1.9947
   28MOL   H33810112   3.183   0.362   0.537  3.2561 -2.3185  0.7391
   28MOL   H33910113   3.101   0.302   0.409 -0.9761  1.3677  0.5102
   28MOL   H34010114   3.186   0.457   0.390  0.8603 -0.1177  0.3377
   28MOL   H34110115   3.309   0.171   0.594  0.0626 -0.7876 -0.3522
   28MOL   H34210116   3.295   0.084   0.434  0.2897 -0.2164 -0.8052
   28MOL   H34310117   3.444   0.132   0.495 -0.2447 -0.2343  0.6063
   28MOL   C34410118   3.544   0.433   0.204  0.5888  0.1679 -0.1455
   28MOL   C34510119   3.660   0.330   0.211  0.6914 -0.4114 -0.1460
   28MOL   C34610120   3.809   0.379   0.216  1.0686 -0.0587  0.4035
   28MOL   C34710121   3.913   0.272   0.210  0.4766  0.2313 -0.4660
   28MOL   C34810122   3.911   0.198   0.338  0.1659 -0.1112  0.3176
   28MOL   C34910123   4.055   0.322   0.186 -0.0372  0.3716  0.6711
   28MOL   H35010124   3.530   0.489   0.296 -0.3165  1.3370 -0.9927
   28MOL   H35110125   3.578   0.506   0.131 -1.0819  0.6508 -0.4513
   28MOL   H35210126   3.650   0.258   0.130 -1.1829 -1.0970  0.6562
   28MOL   H35310127   3.824   0.451   0.135 -1.7943 -1.4679 -1.4527
   28MOL   H35410128   3.816   0.444   0.304 -1.0332  1.0969 -0.2504
   28MOL   H35510129   3.899   0.215   0.118  1.6242  0.1418 -0.5908
   28MOL   H35610130   3.813   0.155   0.360 -0.8764  0.2806 -3.1802
   28MOL   H35710131   3.978   0.112   0.350  0.5840  0.3952  1.6048
   28MOL   H35810132   3.931   0.267   0.419  1.6475  3.0087 -2.5677
   28MOL   H35910133   4.050   0.369   0.087  0.6566 -1.2882 -0.1771
   28MOL   H36010134   4.129   0.243   0.191  1.6495  1.6417 -2.2860
   28MOL   H36110135   4.079   0.394   0.264  0.6587  0.9715 -0.0760
   28MOL   H36210136   3.646   0.273   0.303 -2.2072  0.1591 -0.1591
   29MOL     C110137   7.146   7.741   1.542 -1.0506 -0.2582 -0.1820
   29MOL     C210138   7.108   0.122   1.487  0.6297 -0.7426  0.3954
   29MOL     C310139   7.215   0.223   1.482 -0.2118 -0.2222  0.3314
   29MOL     C410140   7.310   0.214   1.358  0.6701 -0.2884  0.9042
   29MOL     C510141   7.445   0.292   1.370  0.1875 -0.4997  1.1662
   29MOL     C610142   7.237   0.254   1.227  0.1421 -0.1455  0.4396
   29MOL     H710143   7.153   7.731   1.650  0.9373 -2.0910 -0.4629
   29MOL     H810144   7.076   7.670   1.499  1.5061 -2.2792 -1.1009
   29MOL     H910145   7.087   0.098   1.383  1.0234 -1.5680  0.5022
   29MOL    H1010146   7.173   0.324   1.486 -1.7447 -0.8935  1.7273
   29MOL    H1110147   7.271   0.196   1.572  0.3542 -1.3756 -0.3516
   29MOL    H1210148   7.346   0.111   1.358 -0.7921 -0.8076  1.3609
   29MOL    H1310149   7.506   0.267   1.283 -0.5058  2.7127 -0.3223
   29MOL    H1410150   7.440   0.401   1.368  3.6844 -0.2732  1.7164
   29MOL    H1510151   7.502   0.276   1.461  1.4474  1.7365  0.8228
   29MOL    H1610152   7.239   0.160   1.172 -1.3640  1.0442 -1.7116
   29MOL    H1710153   7.280   0.343   1.180 -0.7995  0.3375  0.4780
   29MOL    H1810154   7.132   0.274   1.248  0.3646  0.4278  1.0176
   29MOL    H1910155   7.240   7.707   1.500 -0.1149  0.5033  1.2810
   29MOL    C2010156   6.975   0.186   1.548 -0.6626 -0.7042  0.2291
   29MOL    C2110157   6.851   0.098   1.549  0.6789  0.1578 -0.8367
   29MOL    C2210158   6.836   0.026   1.684 -0.2624  0.3542 -0.1202
   29MOL    C2310159   6.745   7.648   1.683  0.1998  0.2652 -0.1234
   29MOL    C2410160   6.822   7.520   1.648  0.1059 -0.1120  0.4753
   29MOL    C2510161   6.666   7.631   1.824  0.2344 -0.5821  0.1399
   29MOL    H2610162   7.001   0.234   1.642 -0.0486 -0.6485  0.0361
   29MOL    H2710163   6.951   0.272   1.485  1.8948 -0.1547 -0.0366
   29MOL    H2810164   6.877   0.021   1.477  0.8624 -0.7072  0.1372
   29MOL    H2910165   6.806   0.103   1.756  1.1291  0.2295  0.5987
   29MOL    H3010166   6.935   0.002   1.723  0.6776 -0.0735 -2.7033
   29MOL    H3110167   6.685   7.666   1.595 -1.3527 -0.1696  0.8309
   29MOL    H3210168   6.862   7.510   1.547  0.2406 -2.1539  0.7090
   29MOL    H3310169   6.766   7.427   1.660  0.2643 -0.6969 -2.6950
   29MOL    H3410170   6.913   7.518   1.708 -0.0418 -0.8139  0.6853
   29MOL    H3510171   6.607   7.719   1.851 -0.2175 -0.7928 -0.1483
   29MOL    H3610172   6.596   7.547   1.826  1.3121 -1.5303 -0.9638
   29MOL    H3710173   6.737   7.603   1.902 -0.8576  1.7800  2.0558
   29MOL    C3810174   6.716   0.180   1.516 -1.2688 -0.1292  0.4075
   29MOL    C3910175   6.657   0.162   1.373  0.8393 -0.2501  0.0660
   29MOL    C4010176   6.753   0.211   1.261 -0.1600  0.1082  0.2393
   29MOL    C4110177   6.778   0.107   1.144 -0.1591  0.3069  0.2341
   29MOL    C4210178   6.866   7.738   1.191  0.3804  0.4584 -0.6899
   29MOL    C4310179   6.857   0.168   1.030 -0.0142 -0.7517 -0.1888
   29MOL    H4410180   6.740   0.286   1.524  0.8414 -0.4802 -0.9536
   29MOL    H4510181   6.642   0.160   1.593  0.6389 -0.1742  2.2960
   29MOL    H4610182   6.637   0.056   1.357 -1.6511  0.2909 -0.5613
   29MOL    H4710183   6.851   0.233   1.305  0.0396  0.3913 -0.3421
   29MOL    H4810184   6.729   0.303   1.209  1.4808 -0.9659 -2.5200
   29MOL    H4910185   6.683   0.061   1.116 -0.1554 -0.1946  1.0175
   29MOL    H5010186   6.839   7.695   1.287  3.8246  1.1814  0.7028
   29MOL    H5110187   6.849   7.654   1.123 -0.0794 -0.0972  0.1144
   29MOL    H5210188   6.972   0.011   1.189  0.8840 -1.0666  2.9579
   29MOL    H5310189   6.783   0.234   0.985  1.5747  0.3277 -1.2538
   29MOL    H5410190   6.881   0.098   0.949 -1.4861  0.8175 -2.0264
   29MOL    H5510191   6.951   0.216   1.054 -0.1374 -1.0523  0.9377
   29MOL    C5610192   6.521   0.238   1.365 -0.3672 -0.3085  0.3908
   29MOL    C5710193   6.406   0.179   1.273 -0.0540  0.1894  0.0030
   29MOL    C5810194   6.319   0.292   1.214  0.1693 -0.5706  0.0257
   29MOL    C5910195   6.390   0.390   1.116  0.1498 -0.4755 -0.5567
   29MOL    C6010196   6.294   0.515   1.096  0.2526 -0.4039 -0.4432
   29MOL    C6110197   6.420   0.320   0.982 -0.5729 -0.4584 -0.0102
   29MOL    H6210198   6.534   0.343   1.338 -0.4125 -0.8086 -1.6107
   29MOL    H6310199   6.481   0.253   1.465  0.0646 -1.7981  0.8013
   29MOL    H6410200   6.453   0.118   1.196  0.8674  0.9361 -0.0278
   29MOL    H6510201   6.225   0.257   1.173  0.3398 -0.9541 -0.0447
   29MOL    H6610202   6.284   0.359   1.293 -0.0086 -0.2763 -0.3066
   29MOL    H6710203   6.487   0.432   1.145  0.8327 -0.7997 -2.3214
   29MOL    H6810204   6.189   0.489   1.088 -0.2608  1.4334  0.1365
   29MOL    H6910205   6.315   0.564   1.001  1.5400  1.1292  0.5884
   29MOL    H7010206   6.317   0.586   1.176  1.2214 -1.3057  0.0940
   29MOL    H7110207   6.322   0.294   0.941 -0.7865 -0.7856  0.7073
   29MOL    H7210208   6.481   0.230   0.995 -1.3610 -1.0870 -0.6217
   29MOL    H7310209   6.458   0.389   0.906 -0.8122 -0.1652  0.1367
   29MOL    C7410210   6.325   0.075   1.348 -0.2135  0.1334 -0.0356
   29MOL    C7510211   6.206   0.005   1.278 -0.5258  0.0423 -0.1902
   29MOL    C7610212   6.069   0.070   1.327 -1.0120  0.5419 -0.9834
   29MOL    C7710213   5.938   0.025   1.256 -0.3870  0.1807  0.1812
   29MOL    C7810214   5.949   0.062   1.104  0.5146 -0.6685 -0.0509
   29MOL    C7910215   5.820   0.092   1.317  0.7800  0.6094  0.4950
   29MOL    H8010216   6.297   0.115   1.445  1.8849  0.2781  0.5378
   29MOL    H8110217   6.393   0.003   1.393  0.8786 -0.7428 -2.9649
   29MOL    H8210218   6.211   0.020   1.170 -1.4187 -3.6341 -0.8236
   29MOL    H8310219   6.046   0.061   1.433  0.2602  1.1856 -0.6493
   29MOL    H8410220   6.084   0.177   1.316  0.5158  0.2962 -1.3861
   29MOL    H8510221   5.931   7.668   1.249  0.8867 -0.0408  1.8401
   29MOL    H8610222   5.971   0.165   1.077  2.5161 -0.3712  2.5125
   29MOL    H8710223   5.846   0.038   1.077 -0.3264  0.5605  1.9459
   29MOL    H8810224   6.015   7.746   1.050  0.8106  0.8578 -1.6907
   29MOL    H8910225   5.829   0.098   1.425  1.4036  2.0246  0.3680
   29MOL    H9010226   5.804   0.194   1.285  0.0935 -0.1452 -1.6411
   29MOL    H9110227   5.736   0.024   1.303  0.8452  0.2762  1.6445
   29MOL    C9210228   6.215   7.606   1.302 -0.3468 -0.9347  0.3049
   29MOL    C9310229   6.312   7.532   1.208  0.1469  0.0219 -0.1951
   29MOL    C9410230   6.352   7.407   1.273  0.0468  0.3786 -0.1852
   29MOL    C9510231   6.456   7.426   1.382 -0.7605  0.0180 -0.3166
   29MOL    C9610232   6.466   7.311   1.480  0.5183  0.6887  0.2009
   29MOL    C9710233   6.601   7.471   1.339 -0.7406  0.4247  0.4878
   29MOL    H9810234   6.251   7.589   1.404 -3.0380 -2.3787  1.0656
   29MOL    H9910235   6.122   7.554   1.278  0.6344 -1.9587 -1.3975
   29MOL   H10010236   6.395   7.596   1.178 -0.9073  1.3367 -0.3441
   29MOL   H10110237   6.396   7.337   1.202  0.7105  1.5827 -0.9666
   29MOL   H10210238   6.269   7.352   1.317 -0.8299  0.9153 -1.1595
   29MOL   H10310239   6.422   7.498   1.457 -0.2334  0.7981 -0.8289
   29MOL   H10410240   6.371   7.282   1.526  0.7336  1.0163  0.8629
   29MOL   H10510241   6.528   7.344   1.564 -0.2159  1.7070  0.3465
   29MOL   H10610242   6.507   7.225   1.427 -2.1362  0.2515 -1.2319
   29MOL   H10710243   6.674   7.465   1.419  1.4293  0.6538 -1.4199
   29MOL   H10810244   6.609   7.578   1.320  2.0026 -0.2827 -2.9652
   29MOL   H10910245   6.642   7.426   1.248 -2.1986 -0.3727  0.1942
   29MOL   C11010246   6.241   7.503   1.076  0.2341 -0.6680 -0.1077
   29MOL   C11110247   6.335   7.489   0.952 -0.4172  0.1246 -0.0791
   29MOL   C11210248   6.275   7.395   0.841  0.3936 -0.5252  0.3008
   29MOL   C11310249   6.142   7.436   0.779 -0.4599  0.7052  0.6750
   29MOL   C11410250   6.023   7.371   0.849 -0.3450 -0.5165 -0.4542
   29MOL   C11510251   6.146   7.404   0.625 -0.2010  0.8081 -0.0622
   29MOL   H11610252   6.167   7.579   1.052  0.4586 -0.5730 -0.4951
   29MOL   H11710253   6.177   7.415   1.088  0.4366 -0.4932  2.5274
   29MOL   H11810254   6.425   7.445   0.994 -0.6898 -3.8682 -3.3629
   29MOL   H11910255   6.263   7.289   0.865  0.0862 -0.3399  0.9962
   29MOL   H12010256   6.353   7.381   0.767 -1.8053  1.6002 -2.5222
   29MOL   H12110257   6.137   7.543   0.799  1.4416  0.9986 -0.3257
   29MOL   H12210258   5.932   7.379   0.790 -0.1977  1.1928 -0.4682
   29MOL   H12310259   5.998   7.431   0.936 -1.6481  0.2313 -1.3211
   29MOL   H12410260   6.031   7.264   0.868 -0.0511 -0.7056 -1.5704
   29MOL   H12510261   6.144   7.296   0.612 -0.2725  0.7854  0.1413
   29MOL   H12610262   6.234   7.446   0.577 -0.8305 -0.0742 -2.0608
   29MOL   H12710263   6.064   7.439   0.562  2.4027  2.1289 -2.8500
   29MOL   C12810264   6.368   7.631   0.889  0.4447 -0.1746 -0.4292
   29MOL   C12910265   6.469   7.654   0.772  0.4018  0.4949  0.0877
   29MOL   C13010266   6.608   7.598   0.797 -0.0689  0.4188  0.0882
   29MOL   C13110267   6.708   7.597   0.671  0.3410  0.6621 -0.5553
   29MOL   C13210268   6.856   7.601   0.720 -0.6784 -0.0089  0.3185
   29MOL   C13310269   6.696   7.476   0.577  0.0538 -0.4192 -0.1200
   29MOL   H13410270   6.407   7.688   0.974 -0.0676  2.0260 -1.6183
   29MOL   H13510271   6.275   7.683   0.866 -2.1782 -3.5079  2.1307
   29MOL   H13610272   6.426   7.599   0.688  2.3339 -1.7568  0.4816
   29MOL   H13710273   6.656   7.660   0.873  1.3853  0.7852 -1.1150
   29MOL   H13810274   6.610   7.497   0.840 -1.1383 -0.0640 -0.9895
   29MOL   H13910275   6.703   7.690   0.614 -1.5726  1.4318  0.8044
   29MOL   H14010276   6.923   7.565   0.642 -0.7144 -3.0086  1.5837
   29MOL   H14110277   6.869   7.535   0.806 -0.0806 -1.2065 -0.6741
   29MOL   H14210278   6.883   7.701   0.754 -1.3787  0.0653  0.6798
   29MOL   H14310279   6.667   7.382   0.625 -1.2618 -1.1162 -2.2181
   29MOL   H14410280   6.614   7.492   0.507 -0.3590  0.4195  0.5485
   29MOL   H14510281   6.788   7.448   0.527 -0.5095 -2.2069 -0.1827
   29MOL   C14610282   6.471   0.052   0.731 -0.5135 -0.0459 -0.5655
   29MOL   C14710283   6.454   0.096   0.578 -0.1940  0.2220  0.3242
   29MOL   C14810284   6.462   0.252   0.565 -0.4259 -0.5017  0.6742
   29MOL   C14910285   6.606   0.292   0.548 -0.1258 -0.3048  0.6939
   29MOL   C15010286   6.660   0.259   0.409 -0.5430 -0.7081  0.0049
   29MOL   C15110287   6.633   0.436   0.581  0.9247  0.0473  0.4276
   29MOL   H15210288   6.550   0.105   0.784 -0.9266 -0.5709  0.5973
   29MOL   H15310289   6.388   0.107   0.775 -0.8885  0.2190 -1.5956
   29MOL   H15410290   6.539   0.047   0.531 -0.2961 -0.8308  1.2218
   29MOL   H15510291   6.405   0.282   0.478  0.4123 -1.7912 -0.3361
   29MOL   H15610292   6.421   0.301   0.653 -0.6207  0.3587  0.1120
   29MOL   H15710293   6.660   0.240   0.627 -1.7427 -1.8389  0.8144
   29MOL   H15810294   6.644   0.155   0.381 -0.9720 -0.8983  0.9563
   29MOL   H15910295   6.766   0.284   0.408 -1.0958  1.9467  2.4565
   29MOL   H16010296   6.611   0.323   0.335 -2.4044 -1.0228  0.9439
   29MOL   H16110297   6.739   0.463   0.574  1.3239 -1.7265 -0.7297
   29MOL   H16210298   6.605   0.459   0.684 -0.8849  1.1675 -0.2918
   29MOL   H16310299   6.577   0.508   0.521  0.5021  0.0397  0.8102
   29MOL   C16410300   6.336   0.033   0.509 -0.3327 -0.2387 -0.5103
   29MOL   C16510301   6.334   0.034   0.352 -0.8573 -0.2839  0.3595
   29MOL   C16610302   6.416   7.658   0.297  0.4225 -0.3440  0.4307
   29MOL   C16710303   6.473   7.656   0.149  0.4563 -0.0485 -1.4737
   29MOL   C16810304   6.577   0.022   0.135  0.9133 -0.7595  0.5446
   29MOL   C16910305   6.521   7.517   0.106 -0.5137  0.5476 -0.3962
   29MOL   H17010306   6.319   7.680   0.530  0.3389 -0.5160 -1.3332
   29MOL   H17110307   6.251   0.090   0.547 -0.0811  1.0264 -1.8179
   29MOL   H17210308   6.393   0.122   0.328 -1.4664 -0.2201 -0.9411
   29MOL   H17310309   6.498   7.643   0.368 -0.3770 -1.0671  1.2254
   29MOL   H17410310   6.348   7.572   0.306 -1.0961  0.9108  1.1715
   29MOL   H17510311   6.398   7.666   0.070  1.2302  1.2850 -2.0724
   29MOL   H17610312   6.539   0.122   0.157 -0.7753 -0.7682 -2.1306
   29MOL   H17710313   6.617   0.037   0.035 -2.4300  1.8491 -0.4975
   29MOL   H17810314   6.652   0.001   0.211  2.2542  1.4673 -0.0999
   29MOL   H17910315   6.440   7.447   0.123  1.6927 -1.8780  0.4719
   29MOL   H18010316   6.611   7.482   0.157 -0.0066  0.3049 -1.4457
   29MOL   H18110317   6.539   7.511   7.751 -0.3355 -2.5125 -0.2252
   29MOL   C18210318   6.196   0.049   0.284 -0.4454 -0.4614 -0.2963
   29MOL   C18310319   6.148   0.192   0.263 -0.3377 -0.0563  0.0413
   29MOL   C18410320   6.159   0.239   0.117  0.0541 -0.4720 -0.4514
   29MOL   C18510321   6.305   0.256   0.073  0.3272 -0.4447  0.0101
   29MOL   C18610322   6.312   0.273   7.675 -0.1934 -0.3286  0.1507
   29MOL   C18710323   6.386   0.369   0.135  0.3834 -0.5656  0.2254
   29MOL   H18810324   6.133   7.743   0.351  0.9175 -0.0181  1.4090
   29MOL   H18910325   6.192   7.746   0.190  1.7873  1.5520 -1.6486
   29MOL   H19010326   6.199   0.263   0.328 -0.3341 -0.2705  0.2721
   29MOL   H19110327   6.106   0.333   0.105  1.5217  0.9095  3.2703
   29MOL   H19210328   6.111   0.166   0.051 -0.9390  0.3417 -0.6483
   29MOL   H19310329   6.341   0.156   0.099  1.5512 -0.2023 -0.7309
   29MOL   H19410330   6.410   0.274   7.627  0.1589  2.9576  0.8523
   29MOL   H19510331   6.255   0.359   7.639  1.5061  1.1197  0.8260
   29MOL   H19610332   6.267   0.188   7.624 -2.2245  1.5531 -1.2827
   29MOL   H19710333   6.488   0.377   0.098 -0.3833 -0.8246 -2.0261
   29MOL   H19810334   6.394   0.348   0.241 -0.1294  1.1940  0.6288
   29MOL   H19910335   6.342   0.469   0.127 -2.1373 -1.5839  0.9133
   29MOL   C20010336   5.996   0.205   0.307  0.3877  0.2562 -0.5426
   29MOL   C20110337   5.972   0.220   0.466 -0.3207 -0.2157 -0.6050
   29MOL   C20210338   5.887   0.091   0.510 -0.4537 -0.5363 -0.2994
   29MOL   C20310339   5.871   0.072   0.662 -0.1765  0.2168 -0.3385
   29MOL   C20410340   5.796   7.689   0.692  0.8041 -0.4544 -0.6285
   29MOL   C20510341   5.996   0.084   0.749 -0.3570 -0.4407  0.2802
   29MOL   H20610342   5.919   0.142   0.261 -2.1829  1.1844  2.2762
   29MOL   H20710343   5.952   0.297   0.268  0.7797  0.9677  0.6439
   29MOL   H20810344   6.066   0.222   0.521  0.0601 -0.3746 -1.2350
   29MOL   H20910345   5.790   0.079   0.461 -0.9949  1.6944  0.1373
   29MOL   H21010346   5.945   0.007   0.473 -0.4385  0.1281 -1.8028
   29MOL   H21110347   5.804   0.145   0.706  1.9566  2.1301 -0.1367
   29MOL   H21210348   5.849   7.604   0.649 -0.2100 -1.0782 -0.6551
   29MOL   H21310349   5.703   7.683   0.635  0.4722  0.1653 -0.1589
   29MOL   H21410350   5.776   7.686   0.799 -0.5330  1.7252 -0.7834
   29MOL   H21510351   6.047   7.741   0.737 -1.5673 -1.0341 -0.2552
   29MOL   H21610352   5.965   0.093   0.853 -1.6508 -0.7821 -0.0584
   29MOL   H21710353   6.065   0.160   0.712 -1.0194 -0.7438 -1.6293
   29MOL   C21810354   5.898   0.351   0.501 -0.8751  0.1946 -0.2838
   29MOL   C21910355   5.982   0.479   0.464 -0.0258  0.4377 -0.4069
   29MOL   C22010356   6.086   0.522   0.574 -0.0219  0.6431  0.0585
   29MOL   C22110357   6.178   0.649   0.544  0.5285 -0.3894  0.5261
   29MOL   C22210358   6.251   0.715   0.654  0.1888 -0.2155 -0.7674
   29MOL   C22310359   6.277   0.610   0.435  0.4208 -0.2564 -0.6628
   29MOL   H22410360   5.794   0.348   0.468 -0.9385 -1.1973  0.0146
   29MOL   H22510361   5.879   0.358   0.608  2.3530 -1.3108  0.4475
   29MOL   H22610362   6.039   0.450   0.376 -0.9385 -0.8120 -0.5946
   29MOL   H22710363   6.021   0.547   0.658  0.0254  2.0784 -0.3186
   29MOL   H22810364   6.157   0.443   0.597  0.4572  1.0809  0.0821
   29MOL   H22910365   6.121   0.733   0.504 -0.3315 -0.6023  1.3004
   29MOL   H23010366   6.174   0.765   0.713  0.3867  2.9247 -3.0420
   29MOL   H23110367   6.309   0.646   0.715  1.3463  0.2302 -1.3677
   29MOL   H23210368   6.310   0.802   0.628 -0.3830  0.8619  1.4014
   29MOL   H23310369   6.345   0.534   0.475  0.3988  0.7763  1.4317
   29MOL   H23410370   6.237   0.575   0.341  1.5464 -0.3975 -1.1019
   29MOL   H23510371   6.338   0.696   0.405 -0.1709  0.6634  0.7148
   29MOL   C23610372   5.900   0.597   0.418  0.4399  0.1183  0.4607
   29MOL   C23710373   5.816   0.580   0.285  0.3229 -0.1357 -0.3807
   29MOL   C23810374   5.925   0.587   0.170  0.2326 -0.8405  0.0067
   29MOL   C23910375   5.876   0.554   0.036  0.1816  0.8797  0.4656
   29MOL   C24010376   5.983   0.586   7.684 -0.0595 -0.3205  0.3620
   29MOL   C24110377   5.817   0.405   0.027  0.0773 -0.4192  0.7057
   29MOL   H24210378   5.946   0.695   0.425  2.1926 -0.5543 -1.1106
   29MOL   H24310379   5.824   0.604   0.495 -0.2354  0.2774 -0.2128
   29MOL   H24410380   5.778   0.478   0.295 -0.2074  0.2154  1.3022
   29MOL   H24510381   6.018   0.531   0.180  1.5614  1.1913 -0.6259
   29MOL   H24610382   5.960   0.690   0.170 -0.3340 -0.6443  1.0043
   29MOL   H24710383   5.794   0.623   0.018 -0.5645  0.1402  1.0014
   29MOL   H24810384   5.955   0.581   7.579  1.1963 -0.7604  0.0386
   29MOL   H24910385   6.067   0.517   7.684 -0.7517 -1.1743  0.2579
   29MOL   H25010386   6.032   0.679   7.712  1.6125 -1.1813  0.3502
   29MOL   H25110387   5.721   0.386   0.075 -2.0196  1.7883 -2.4905
   29MOL   H25210388   5.897   0.335   0.052  0.3112 -0.9890 -1.5957
   29MOL   H25310389   5.796   0.387   7.674 -0.3338  1.9534  0.3475
   29MOL   C25410390   5.699   0.679   0.274 -0.3873  0.0344 -0.0287
   29MOL   C25510391   5.584   0.660   0.369  0.1784  0.0783  0.1442
   29MOL   C25610392   5.497   0.792   0.391  0.3190 -0.3666  0.4868
   29MOL   C25710393   5.566   0.894   0.479 -0.3754 -0.4331  0.2215
   29MOL   C25810394   5.590   0.841   0.626  0.3084 -0.1982  0.4069
   29MOL   C25910395   5.498   1.032   0.486 -0.5542 -0.1606 -0.6660
   29MOL   H26010396   5.738   0.777   0.300  1.2840 -0.8135  0.7795
   29MOL   H26110397   5.650   0.684   0.176  1.5593  1.1447 -0.9762
   29MOL   H26210398   5.612   0.607   0.460 -1.6822  1.9437  1.8726
   29MOL   H26310399   5.400   0.785   0.441  0.5683  0.6258  1.1237
   29MOL   H26410400   5.471   0.840   0.296  1.6114  1.5381  1.0704
   29MOL   H26510401   5.665   0.922   0.442 -0.3884  0.5114  0.9039
   29MOL   H26610402   5.635   0.919   0.687 -0.1324  0.7727 -0.4880
   29MOL   H26710403   5.649   0.749   0.624  1.1483  0.3380 -0.0061
   29MOL   H26810404   5.498   0.834   0.683  1.0317  0.5703  1.6924
   29MOL   H26910405   5.395   1.019   0.520 -0.0197  1.5239  1.6872
   29MOL   H27010406   5.560   1.091   0.552 -0.2059 -0.2906 -0.8776
   29MOL   H27110407   5.481   1.074   0.386 -3.3555  2.3067  0.7710
   29MOL   C27210408   5.487   0.554   0.305  0.4335 -0.2224 -0.0490
   29MOL   C27310409   5.400   0.469   0.404 -0.7436 -0.1072 -0.3449
   29MOL   C27410410   5.285   0.402   0.325 -0.7282 -0.7519  0.3692
   29MOL   C27510411   5.185   0.491   0.255  0.9267  0.1642 -0.1713
   29MOL   C27610412   5.132   0.614   0.333 -0.6621  0.4434 -0.4279
   29MOL   C27710413   5.080   0.400   0.190  0.5510 -0.1863 -0.3168
   29MOL   H27810414   5.420   0.592   0.227 -0.3185 -1.0805  0.1817
   29MOL   H27910415   5.552   0.482   0.256 -1.8644 -0.0770 -3.5008
   29MOL   H28010416   5.348   0.533   0.475 -2.1742 -1.6019 -0.0045
   29MOL   H28110417   5.231   0.328   0.383  0.9436 -1.9685  0.4058
   29MOL   H28210418   5.333   0.335   0.253 -1.0490  1.1920 -1.7269
   29MOL   H28310419   5.231   0.536   0.167  0.0470  0.1900 -0.6243
   29MOL   H28410420   5.214   0.685   0.341 -1.4818  1.6869 -2.5737
   29MOL   H28510421   5.049   0.666   0.285 -0.7655  1.1670  0.5126
   29MOL   H28610422   5.109   0.589   0.437  0.7731  1.7948  0.2328
   29MOL   H28710423   5.030   0.340   0.266 -0.1406  0.8386  0.0465
   29MOL   H28810424   5.010   0.464   0.135  0.9855  0.6348  0.0792
   29MOL   H28910425   5.130   0.331   0.123  2.6743  1.9048 -0.9552
   29MOL   C29010426   5.485   0.362   0.487 -0.0150 -0.3229  0.4637
   29MOL   C29110427   5.414   0.261   0.576 -0.1243  0.6499  0.0234
   29MOL   C29210428   5.396   0.128   0.504  0.3616  0.7282 -0.1920
   29MOL   C29310429   5.285   0.042   0.566 -0.0256  0.0393 -0.3670
   29MOL   C29410430   5.149   0.097   0.545  0.4049  0.3390  0.1048
   29MOL   C29510431   5.291   7.651   0.513  0.1921 -0.1741 -0.9793
   29MOL   H29610432   5.542   0.299   0.418  3.0935  2.0946  0.7499
   29MOL   H29710433   5.570   0.408   0.538  1.3680 -1.1285 -1.0412
   29MOL   H29810434   5.321   0.314   0.597  0.1118  1.1697 -0.2573
   29MOL   H29910435   5.492   0.077   0.501  0.8117  1.4138  1.9387
   29MOL   H30010436   5.357   0.142   0.403 -0.5771 -1.4532 -0.1638
   29MOL   H30110437   5.311   0.034   0.672 -1.7192 -0.5240  0.0206
   29MOL   H30210438   5.110   0.110   0.444  0.7341  1.4114  0.1100
   29MOL   H30310439   5.141   0.193   0.596  0.4715  0.9614 -1.0392
   29MOL   H30410440   5.070   0.050   0.603  1.0389  1.6893  2.1105
   29MOL   H30510441   5.253   7.648   0.411 -0.4522 -0.9286 -0.7262
   29MOL   H30610442   5.232   7.577   0.567 -0.3420 -0.6573 -2.2062
   29MOL   H30710443   5.394   7.616   0.520 -0.4432 -2.2499 -1.5604
   29MOL   C30810444   5.493   0.239   0.709  0.4497 -0.1291  0.2571
   29MOL   C30910445   5.436   0.300   0.840 -0.4889  0.1626  0.5252
   29MOL   C31010446   5.448   0.206   0.964 -0.4283  0.1552 -0.6230
   29MOL   C31110447   5.356   0.083   0.968 -0.4774  0.0652 -0.5943
   29MOL   C31210448   5.418   7.743   1.075 -0.0372 -0.5208 -0.0851
   29MOL   C31310449   5.211   0.105   0.991  0.0843  0.0327  0.4906
   29MOL   H31410450   5.513   0.135   0.731 -3.4109 -0.5070  2.5486
   29MOL   H31510451   5.593   0.279   0.693  1.0215 -0.7303  2.1833
   29MOL   H31610452   5.331   0.329   0.828 -0.0486  0.9583 -1.6486
   29MOL   H31710453   5.445   0.265   1.055 -2.5986  0.6035 -0.9548
   29MOL   H31810454   5.550   0.170   0.955 -0.0269  0.9236  0.6551
   29MOL   H31910455   5.358   0.015   0.883 -1.9358 -1.8622  0.8622
   29MOL   H32010456   5.429   0.044   1.170  0.0723  1.2950 -1.1054
   29MOL   H32110457   5.522   7.714   1.056 -0.3935 -1.4223 -0.6828
   29MOL   H32210458   5.366   7.648   1.088 -0.9909  0.0363  0.2010
   29MOL   H32310459   5.177   0.204   0.962  3.2944  0.4527 -2.2202
   29MOL   H32410460   5.161   0.026   0.935  1.4867 -1.3908  1.2300
   29MOL   H32510461   5.180   0.080   1.092 -1.3084 -2.8591 -0.5957
   29MOL   C32610462   5.511   0.439   0.865  0.1712  0.3433  0.3342
   29MOL   C32710463   5.490   0.517   0.994  1.0177 -0.6115 -0.6662
   29MOL   C32810464   5.346   0.545   1.024  0.0080  0.6211  0.1915
   29MOL   C32910465   5.305   0.591   1.165 -0.3453 -0.0128  0.2848
   29MOL   C33010466   5.158   0.614   1.183  0.1090  0.0448 -0.3707
   29MOL   C33110467   5.367   0.511   1.286  0.0024 -0.5665 -0.5272
   29MOL   H33210468   5.480   0.509   0.787 -0.0473 -1.8841 -1.6407
   29MOL   H33310469   5.616   0.424   0.840 -0.3759  0.7011 -2.2841
   29MOL   H33410470   5.542   0.458   1.070  3.1729  1.7987 -0.1873
   29MOL   H33510471   5.304   0.617   0.954  0.5135  0.5337 -0.2005
   29MOL   H33610472   5.284   0.459   1.002  1.0733  0.4297 -2.2280
   29MOL   H33710473   5.332   0.696   1.175 -0.3751 -0.0024  0.2512
   29MOL   H33810474   5.147   0.691   1.259 -0.8847 -0.8536  0.4089
   29MOL   H33910475   5.126   0.521   1.230  0.8532 -0.6211 -1.1518
   29MOL   H34010476   5.092   0.630   1.098 -0.4942  0.6914  0.2063
   29MOL   H34110477   5.457   0.555   1.328  0.2658  0.9144 -2.5968
   29MOL   H34210478   5.314   0.523   1.381  1.4462  2.8167 -0.0787
   29MOL   H34310479   5.390   0.407   1.265 -0.2267 -0.5125 -1.0469
   29MOL   C34410480   5.560   0.651   0.995  0.4090 -0.6662  1.0142
   29MOL   C34510481   5.713   0.631   0.977  0.0483  0.3793 -0.0424
   29MOL   C34610482   5.783   0.767   0.990  0.4144 -0.7577 -0.3896
   29MOL   C34710483   5.913   0.778   0.912 -0.3778 -0.0701 -0.2652
   29MOL   C34810484   6.016   0.689   0.977 -0.2949  0.9616  0.4644
   29MOL   C34910485   5.975   0.923   0.913 -0.0240  0.1321 -0.5335
   29MOL   H35010486   5.545   0.702   1.090 -1.9226 -0.2240  0.4311
   29MOL   H35110487   5.510   0.718   0.925  0.9282 -2.2596 -0.9546
   29MOL   H35210488   5.730   0.611   0.871  0.6904  1.1883 -0.0995
   29MOL   H35310489   5.719   0.850   0.959  1.2849  0.4206  0.9449
   29MOL   H35410490   5.799   0.783   1.097 -0.1923 -0.2730 -0.3710
   29MOL   H35510491   5.899   0.740   0.811 -0.5746 -1.0426  0.1222
   29MOL   H35610492   6.037   0.724   1.078  0.1709  1.8624  0.0651
   29MOL   H35710493   5.981   0.586   0.977 -1.3048  1.2841 -0.7585
   29MOL   H35810494   6.098   0.693   0.906 -1.1147  2.4733 -0.4242
   29MOL   H35910495   6.078   0.936   0.878  0.0909 -0.4198 -0.3969
   29MOL   H36010496   5.994   0.956   1.016  0.3613 -3.4034  0.5931
   29MOL   H36110497   5.898   0.986   0.870 -0.8703 -0.0678  0.6508
   29MOL   H36210498   5.754   0.560   1.048 -2.8269 -1.6319 -0.2782
   30MOL     C110499   3.437   0.080   2.768 -0.7717  0.5854 -0.5980
   30MOL     C210500   3.329   0.083   2.659 -0.3438  0.5020 -0.3269
   30MOL     C310501   3.245   0.204   2.663 -0.0210  0.3112 -0.1867
   30MOL     C410502   3.311   0.346   2.678  0.2623  0.3962 -0.6104
   30MOL     C510503   3.211   0.459   2.667 -0.4840 -0.2579  0.1184
   30MOL     C610504   3.427   0.381   2.577  0.3210 -0.2069 -0.2029
   30MOL     H710505   3.514   0.156   2.755  0.3804 -0.1079  1.8785
   30MOL     H810506   3.394   0.102   2.866 -0.1148  0.3852 -0.2645
   30MOL     H910507   3.376   0.089   2.560  1.1459 -0.3063  0.3174
   30MOL    H1010508   3.178   0.206   2.577 -0.0992  1.1823 -0.1107
   30MOL    H1110509   3.192   0.199   2.758  2.6624  0.6332  1.3763
   30MOL    H1210510   3.358   0.363   2.775 -0.3447  2.5066 -0.6642
   30MOL    H1310511   3.157   0.460   2.761 -0.2543 -5.8387  0.4805
   30MOL    H1410512   3.247   0.560   2.650 -0.0354 -0.2922  0.8760
   30MOL    H1510513   3.128   0.442   2.598 -0.7315  2.4309 -0.2890
   30MOL    H1610514   3.393   0.398   2.475 -1.0322  3.2914  0.7378
   30MOL    H1710515   3.501   0.301   2.575  0.1792 -0.3642  0.6886
   30MOL    H1810516   3.474   0.476   2.605 -0.0552  0.7446 -2.7156
   30MOL    H1910517   3.484   7.734   2.769 -0.2213  0.8619  0.2407
   30MOL    C2010518   3.238   7.707   2.656 -0.4662  0.3588 -0.8689
   30MOL    C2110519   3.289   7.575   2.599 -0.0969  0.7522  0.0813
   30MOL    C2210520   3.181   7.460   2.618  0.6155 -0.5621  0.0742
   30MOL    C2310521   3.126   7.436   2.761  0.4215 -0.1492 -0.1005
   30MOL    C2410522   3.014   7.338   2.750 -0.3150  0.7094  0.2373
   30MOL    C2510523   3.247   7.377   2.848  0.1689 -0.5260  0.2424
   30MOL    H2610524   3.201   7.698   2.758  3.3200 -0.4683  0.4977
   30MOL    H2710525   3.146   7.727   2.601 -1.5810 -1.5585  0.2618
   30MOL    H2810526   3.374   7.549   2.662  0.9725  0.1049 -1.5864
   30MOL    H2910527   3.222   7.364   2.585 -1.2452 -1.7829  1.2034
   30MOL    H3010528   3.096   7.471   2.551 -0.8491  1.3524  2.1864
   30MOL    H3110529   3.080   7.527   2.801  0.2124  0.3223 -1.3954
   30MOL    H3210530   2.926   7.393   2.717 -1.5885 -0.4318  1.6870
   30MOL    H3310531   2.979   7.300   2.846 -2.3207 -1.7408 -1.4176
   30MOL    H3410532   3.038   7.256   2.683  1.5316  1.1713  0.3155
   30MOL    H3510533   3.301   7.461   2.891 -0.9585  0.4123 -0.1414
   30MOL    H3610534   3.209   7.319   2.931 -2.5833  0.1304 -0.5022
   30MOL    H3710535   3.326   7.326   2.793  0.7942  0.4062  0.2681
   30MOL    C3810536   3.325   7.571   2.451  0.0000  0.0485  0.4721
   30MOL    C3910537   3.467   7.601   2.403 -0.3158  0.4315 -0.4190
   30MOL    C4010538   3.472   7.653   2.267  1.0515  0.9242 -0.0177
   30MOL    C4110539   3.438   0.057   2.263 -0.3993  0.1669 -0.6693
   30MOL    C4210540   3.402   0.088   2.118 -0.6129 -0.0725  0.0396
   30MOL    C4310541   3.541   0.150   2.326  0.2110  0.6515  0.5263
   30MOL    H4410542   3.257   7.644   2.408  1.6918  0.8180 -0.9739
   30MOL    H4510543   3.302   7.474   2.406 -0.7414  0.7211 -0.6144
   30MOL    H4610544   3.487   7.687   2.467  0.4042  0.3542 -0.5347
   30MOL    H4710545   3.409   7.601   2.195  0.9430  2.3545 -0.9808
   30MOL    H4810546   3.572   7.648   2.223  1.1930 -0.7733  0.4658
   30MOL    H4910547   3.349   0.068   2.324 -0.8271 -1.1337 -1.0383
   30MOL    H5010548   3.303   0.051   2.091 -0.1130  0.9966 -3.4340
   30MOL    H5110549   3.390   0.194   2.099  1.4577  0.6145  2.2866
   30MOL    H5210550   3.469   0.052   2.041 -0.1074  2.9930 -1.0152
   30MOL    H5310551   3.523   0.257   2.316  0.5136  0.6384 -0.1737
   30MOL    H5410552   3.637   0.133   2.278  0.8008 -0.4484  2.0609
   30MOL    H5510553   3.559   0.138   2.433 -0.2132  0.1389  0.5437
   30MOL    C5610554   3.570   7.494   2.430  0.0217 -0.0696 -0.3492
   30MOL    C5710555   3.715   7.559   2.459  0.1394  0.1116 -0.1525
   30MOL    C5810556   3.826   7.450   2.434  0.4418 -0.5016 -0.2350
   30MOL    C5910557   3.853   7.421   2.285 -0.8057  0.7809 -0.2480
   30MOL    C6010558   3.932   7.292   2.275  0.0421 -0.1708  0.9933
   30MOL    C6110559   3.910   7.543   2.208 -0.1108 -0.5006 -0.1847
   30MOL    H6210560   3.565   7.416   2.355  1.4914 -0.2105 -0.3265
   30MOL    H6310561   3.546   7.443   2.523  3.3915 -2.1042 -0.5072
   30MOL    H6410562   3.732   7.641   2.390 -1.0054  0.9434  0.5345
   30MOL    H6510563   3.923   7.484   2.470  0.2063  0.5518 -0.6005
   30MOL    H6610564   3.797   7.364   2.494 -1.9295 -0.3651 -1.1344
   30MOL    H6710565   3.762   7.397   2.229 -1.4335  1.7448  0.3363
   30MOL    H6810566   3.951   7.280   2.168 -0.1710 -1.3963  1.0937
   30MOL    H6910567   3.871   7.208   2.306 -0.6574  0.8044  2.3487
   30MOL    H7010568   4.023   7.282   2.335  0.2212 -1.3738  0.5216
   30MOL    H7110569   3.993   7.595   2.256  0.4008  0.5150 -2.1047
   30MOL    H7210570   3.838   7.622   2.184  2.6860  1.6048 -1.9972
   30MOL    H7310571   3.953   7.511   2.113 -0.1340  1.9087 -1.0582
   30MOL    C7410572   3.721   7.608   2.605 -0.2211  0.1479 -0.4843
   30MOL    C7510573   3.851   7.678   2.653  0.2706 -0.2118 -0.1891
   30MOL    C7610574   3.847   7.691   2.810  0.4841 -0.0927  0.3662
   30MOL    C7710575   3.913   7.583   2.895  0.6180  0.6104 -0.3840
   30MOL    C7810576   3.892   7.444   2.849 -0.2966 -0.0722 -0.1375
   30MOL    C7910577   3.884   7.599   3.042  0.3344 -0.0683 -0.1957
   30MOL    H8010578   3.691   7.518   2.660  3.5489 -0.9887 -0.1683
   30MOL    H8110579   3.643   7.682   2.625 -1.1375 -0.6564 -1.0195
   30MOL    H8210580   3.942   7.624   2.628 -0.8111 -1.3838 -1.6361
   30MOL    H8310581   3.886   0.036   2.841 -0.2414  0.2384  0.2626
   30MOL    H8410582   3.743   7.683   2.843 -0.3046 -0.2141 -2.0507
   30MOL    H8510583   4.021   7.583   2.883  0.5975  1.4015 -0.6434
   30MOL    H8610584   3.786   7.417   2.845 -0.4514 -0.0413  2.5866
   30MOL    H8710585   3.940   7.368   2.911 -1.8974 -2.2106 -1.4316
   30MOL    H8810586   3.935   7.432   2.750  1.6657 -0.8984  0.7951
   30MOL    H8910587   3.949   7.678   3.079 -0.2806  1.2848 -1.9826
   30MOL    H9010588   3.781   7.630   3.057  0.4325  0.2235 -0.1152
   30MOL    H9110589   3.912   7.516   3.108 -2.5408 -0.7421  0.2267
   30MOL    C9210590   3.860   0.066   2.589  0.1231 -0.7372 -0.0170
   30MOL    C9310591   3.994   0.130   2.616 -0.7691  0.4801 -0.3110
   30MOL    C9410592   4.074   0.156   2.487 -0.4155  0.3302  0.1775
   30MOL    C9510593   4.131   0.025   2.421  0.8575 -0.3664  0.4535
   30MOL    C9610594   4.172   0.046   2.278 -0.1124  0.4699 -0.5052
   30MOL    C9710595   4.257   7.721   2.489 -0.6036 -0.1690  0.0903
   30MOL    H9810596   3.839   0.062   2.482  0.2935 -1.5303 -0.0217
   30MOL    H9910597   3.784   0.132   2.630  1.8945  2.0956 -1.0637
   30MOL   H10010598   4.058   0.077   2.686  3.2477  3.7467 -1.3174
   30MOL   H10110599   4.152   0.231   2.483  3.5779 -3.5090  2.0930
   30MOL   H10210600   4.000   0.192   2.415  2.1260  0.5060 -2.4263
   30MOL   H10310601   4.049   7.705   2.424 -1.2932  1.9950 -0.2388
   30MOL   H10410602   4.226   7.719   2.227 -0.7890 -1.3217  1.4944
   30MOL   H10510603   4.233   0.136   2.271 -1.0213  1.0363 -1.2723
   30MOL   H10610604   4.086   0.057   2.211 -1.8765 -1.9294  1.2817
   30MOL   H10710605   4.240   7.687   2.592  1.8761  1.4449  1.0650
   30MOL   H10810606   4.337   0.040   2.507  1.8085 -2.8128  0.0986
   30MOL   H10910607   4.299   7.641   2.429  0.1691  2.9197 -3.6232
   30MOL   C11010608   3.975   0.262   2.694 -0.4249 -0.1072 -0.3302
   30MOL   C11110609   4.106   0.344   2.737  0.2080  0.2480  0.2213
   30MOL   C11210610   4.086   0.499   2.734 -0.1632 -0.3595  0.5008
   30MOL   C11310611   4.104   0.557   2.588 -0.1932 -0.3819 -0.4916
   30MOL   C11410612   4.246   0.602   2.567 -0.4266 -0.7369 -0.0944
   30MOL   C11510613   4.020   0.685   2.569  0.8029  0.2447  0.7580
   30MOL   H11610614   3.920   0.246   2.787 -0.3579  2.9518  0.2803
   30MOL   H11710615   3.914   0.324   2.629  0.8458 -1.3904 -2.8063
   30MOL   H11810616   4.186   0.324   2.666 -0.6013 -0.4699 -0.5167
   30MOL   H11910617   4.140   0.566   2.801 -1.2539  1.9183 -0.8661
   30MOL   H12010618   3.981   0.512   2.761 -0.4826  1.5084 -1.5381
   30MOL   H12110619   4.078   0.494   2.503 -2.1565  0.4521 -0.5354
   30MOL   H12210620   4.271   0.686   2.631 -1.2706 -0.1289 -0.5527
   30MOL   H12310621   4.273   0.632   2.466  0.8390 -3.1416 -0.5059
   30MOL   H12410622   4.312   0.526   2.609 -1.0392 -0.0435  2.2133
   30MOL   H12510623   3.915   0.665   2.589  0.2669 -0.0557 -2.1099
   30MOL   H12610624   4.008   0.708   2.463  2.2900 -3.1888 -0.2370
   30MOL   H12710625   4.059   0.767   2.630  1.5284 -0.5151  1.3372
   30MOL   C12810626   4.148   0.303   2.884  0.1346  0.3183  0.3306
   30MOL   C12910627   4.297   0.325   2.902 -0.4202 -0.0996 -0.3952
   30MOL   C13010628   4.368   0.201   2.837  0.3158  0.8679  0.2163
   30MOL   C13110629   4.520   0.217   2.802 -0.4705  0.4339  0.0939
   30MOL   C13210630   4.574   0.085   2.742  0.0031 -0.5462  0.2525
   30MOL   C13310631   4.552   0.327   2.703  0.1078  0.4212 -0.0633
   30MOL   H13410632   4.129   0.200   2.913 -0.8511 -0.0738 -1.5768
   30MOL   H13510633   4.085   0.364   2.949 -0.1177 -0.3821  0.7459
   30MOL   H13610634   4.329   0.412   2.844  2.4866 -2.0154 -1.7549
   30MOL   H13710635   4.355   0.109   2.894  0.5631  0.3525 -0.5464
   30MOL   H13810636   4.305   0.167   2.754  2.7524 -0.6056 -1.0915
   30MOL   H13910637   4.580   0.237   2.891 -1.8251  0.0057  1.1169
   30MOL   H14010638   4.678   0.091   2.709  0.4398  0.3390  1.7132
   30MOL   H14110639   4.503   0.053   2.666 -0.8399 -0.1444  0.8676
   30MOL   H14210640   4.579   0.005   2.817  0.0684 -0.2205  0.5989
   30MOL   H14310641   4.529   0.420   2.756 -3.1760  0.3401 -1.2492
   30MOL   H14410642   4.659   0.333   2.685  0.3258 -2.1328  0.2604
   30MOL   H14510643   4.493   0.325   2.611 -0.1414 -0.6127  0.1133
   30MOL   C14610644   4.335   0.347   3.053  0.5562 -0.1993 -0.3916
   30MOL   C14710645   4.298   0.479   3.120 -0.2961  0.5495 -0.2401
   30MOL   C14810646   4.405   0.591   3.091 -0.4830  0.5121  0.2804
   30MOL   C14910647   4.359   0.738   3.116 -0.5992  0.6127 -0.3190
   30MOL   C15010648   4.482   0.827   3.138 -1.2552 -0.3019  0.0725
   30MOL   C15110649   4.261   0.797   3.005  0.0625 -0.6639 -0.0018
   30MOL   H15210650   4.443   0.344   3.061  0.3848 -3.8520  1.5488
   30MOL   H15310651   4.291   0.271   3.118 -0.4251  2.0953  1.6806
   30MOL   H15410652   4.210   0.516   3.067  0.0669 -0.9928 -1.9883
   30MOL   H15510653   4.490   0.556   3.150 -2.0693 -3.2259  0.5002
   30MOL   H15610654   4.432   0.578   2.986 -0.0308 -0.9341  0.5596
   30MOL   H15710655   4.305   0.755   3.209  2.0711 -0.1942  1.4492
   30MOL   H15810656   4.560   0.814   3.063 -1.5957 -0.8407 -0.1945
   30MOL   H15910657   4.520   0.813   3.239 -0.8798 -0.1244 -0.0436
   30MOL   H16010658   4.462   0.934   3.139 -0.4387 -0.1091 -1.4548
   30MOL   H16110659   4.296   0.790   2.902 -1.2846 -0.8493 -0.4579
   30MOL   H16210660   4.212   0.892   3.027  0.0800 -1.0164  1.6387
   30MOL   H16310661   4.177   0.729   2.995 -1.3996  0.9529  0.8592
   30MOL   C16410662   4.274   0.472   3.273 -0.0893  0.4857 -0.1597
   30MOL   C16510663   4.131   0.440   3.310  0.5498  0.7077  0.6812
   30MOL   C16610664   4.125   0.365   3.447 -0.3551  0.3118 -0.0935
   30MOL   C16710665   4.156   0.212   3.443 -0.5101  0.4277 -0.2533
   30MOL   C16810666   4.187   0.151   3.579 -0.3987 -0.0659 -0.3658
   30MOL   C16910667   4.039   0.133   3.381 -0.3913  0.2444  0.0139
   30MOL   H17010668   4.336   0.397   3.322 -0.7777  0.5005  0.7390
   30MOL   H17110669   4.301   0.561   3.330  0.9685 -0.5973  1.0644
   30MOL   H17210670   4.090   0.379   3.230 -1.2562  1.2718  1.1460
   30MOL   H17310671   4.194   0.413   3.516 -0.0036  1.2627 -1.0998
   30MOL   H17410672   4.029   0.387   3.494 -0.9980  0.5249 -1.4654
   30MOL   H17510673   4.239   0.190   3.376  0.6466  0.7636  1.0522
   30MOL   H17610674   4.097   0.136   3.639 -0.6005  1.0537 -0.3923
   30MOL   H17710675   4.240   0.214   3.651 -1.1433  0.1354  0.0085
   30MOL   H17810676   4.232   0.051   3.571  0.1165 -0.0831  2.2231
   30MOL   H17910677   3.944   0.171   3.417 -0.9928 -0.8551 -0.3956
   30MOL   H18010678   4.039   0.029   3.415  0.1207  0.3102  0.2206
   30MOL   H18110679   4.056   0.133   3.273  0.2736  1.4634  0.1009
   30MOL   C18210680   4.062   0.578   3.313  0.1733  0.3898  0.0096
   30MOL   C18310681   3.909   0.582   3.314  0.0068  0.0126  0.8770
   30MOL   C18410682   3.864   0.710   3.379  0.1884  0.3707 -0.1865
   30MOL   C18510683   3.867   0.712   3.540  0.4276 -0.0610  0.8474
   30MOL   C18610684   3.879   0.853   3.595  0.2619 -0.0256 -0.2608
   30MOL   C18710685   3.761   0.626   3.607  0.7215  0.3440 -0.5097
   30MOL   H18810686   4.105   0.631   3.228  1.3290 -0.1489  0.2545
   30MOL   H18910687   4.103   0.638   3.395 -0.4836 -1.2804  1.5921
   30MOL   H19010688   3.878   0.499   3.377  0.1086 -0.2220  0.6167
   30MOL   H19110689   3.764   0.739   3.347 -0.5659 -1.6758  0.2415
   30MOL   H19210690   3.923   0.794   3.344 -0.0618  0.8029  0.4264
   30MOL   H19310691   3.962   0.667   3.571 -0.3898 -3.0300 -0.7786
   30MOL   H19410692   3.966   0.904   3.553  0.7821 -2.4657 -2.2227
   30MOL   H19510693   3.888   0.865   3.703 -2.9490  0.9426 -0.0498
   30MOL   H19610694   3.791   0.912   3.571  0.6240  0.6332  0.0105
   30MOL   H19710695   3.672   0.622   3.545 -0.0834 -0.0811  0.6607
   30MOL   H19810696   3.736   0.655   3.709  1.4745 -0.1300 -0.1879
   30MOL   H19910697   3.776   0.518   3.609  0.2060  0.2473 -1.4301
   30MOL   C20010698   3.863   0.559   3.169 -0.0979 -0.6139  0.7933
   30MOL   C20110699   3.714   0.551   3.149  0.6408  0.3623  0.0247
   30MOL   C20210700   3.648   0.427   3.215 -0.5698 -0.4174  0.6674
   30MOL   C20310701   3.712   0.286   3.196  0.1911 -0.1444 -0.1450
   30MOL   C20410702   3.659   0.188   3.298 -0.0293  0.6043 -0.2175
   30MOL   C20510703   3.674   0.223   3.055 -0.6620 -0.2455  0.1356
   30MOL   H20610704   3.906   0.469   3.125 -1.8369 -1.1521  0.1748
   30MOL   H20710705   3.907   0.644   3.117  0.0198 -0.5990  0.9168
   30MOL   H20810706   3.665   0.635   3.199  1.3644 -0.0800  1.5240
   30MOL   H20910707   3.628   0.444   3.321 -2.1157 -0.6037  0.4261
   30MOL   H21010708   3.543   0.421   3.186 -0.3046  0.0841 -0.4138
   30MOL   H21110709   3.820   0.279   3.211  0.3644  1.7949 -0.4026
   30MOL   H21210710   3.551   0.195   3.313 -0.5504 -1.6230 -2.5119
   30MOL   H21310711   3.697   0.184   3.400  1.0137 -0.3097 -0.6294
   30MOL   H21410712   3.691   0.088   3.266 -1.2882  0.3190 -0.6232
   30MOL   H21510713   3.665   0.114   3.050  1.0295 -0.3257 -1.8070
   30MOL   H21610714   3.723   0.268   2.969 -0.9282 -0.8985 -0.3604
   30MOL   H21710715   3.571   0.257   3.041 -0.7764 -0.9177 -0.7130
   30MOL   C21810716   3.677   0.556   2.998 -0.6452  0.4139 -0.1918
   30MOL   C21910717   3.669   0.691   2.926  0.7175 -0.8546  0.2273
   30MOL   C22010718   3.568   0.685   2.809 -0.8110 -0.9362 -0.8104
   30MOL   C22110719   3.528   0.816   2.739  0.3405 -0.5362 -1.3187
   30MOL   C22210720   3.460   0.783   2.608  0.1235 -0.0879  0.1423
   30MOL   C22310721   3.431   0.907   2.820  1.3309 -0.7626 -0.0721
   30MOL   H22410722   3.752   0.499   2.943 -0.1487  0.2000  0.6798
   30MOL   H22510723   3.590   0.494   2.980 -0.8688  0.7695 -0.3337
   30MOL   H22610724   3.620   0.758   2.997  1.7997 -0.6822  0.8307
   30MOL   H22710725   3.615   0.618   2.737  0.6387  1.4568 -2.1650
   30MOL   H22810726   3.474   0.641   2.842 -1.4012  0.3835 -0.6961
   30MOL   H22910727   3.617   0.868   2.706  0.5275  0.2749  0.4214
   30MOL   H23010728   3.527   0.727   2.542  2.7124  0.1672  2.4545
   30MOL   H23110729   3.374   0.715   2.612 -0.7160  0.8780 -1.1514
   30MOL   H23210730   3.430   0.870   2.550  0.0076  0.6941  1.3662
   30MOL   H23310731   3.389   0.992   2.766  2.3005 -1.1713 -1.4738
   30MOL   H23410732   3.348   0.844   2.852  0.4422  0.4674  0.0998
   30MOL   H23510733   3.479   0.951   2.908  0.2958  1.6950 -0.7082
   30MOL   C23610734   3.806   0.756   2.883  0.0741 -0.1201 -0.8105
   30MOL   C23710735   3.816   0.904   2.927 -0.0178 -0.7972 -0.3291
   30MOL   C23810736   3.938   0.966   2.847 -0.1101 -0.3811  0.3456
   30MOL   C23910737   3.911   1.026   2.706 -0.1288 -0.0270 -0.1887
   30MOL   C24010738   3.802   1.131   2.709  0.6378  0.1646 -0.4266
   30MOL   C24110739   4.022   1.092   2.633 -0.0914  0.0988  0.5909
   30MOL   H24210740   3.825   0.747   2.776  1.5091 -0.2526 -0.5506
   30MOL   H24310741   3.893   0.700   2.917  0.0944 -0.7525 -1.8908
   30MOL   H24410742   3.721   0.956   2.910  0.6846  0.2068 -1.2945
   30MOL   H24510743   4.015   0.890   2.834 -0.6142 -0.9292  0.6009
   30MOL   H24610744   3.984   1.052   2.896  0.6594 -0.2716 -0.5342
   30MOL   H24710745   3.874   0.941   2.649 -0.1619 -0.8222  1.0087
   30MOL   H24810746   3.707   1.099   2.751  0.9339  0.1442  0.2341
   30MOL   H24910747   3.776   1.154   2.606  0.8351 -0.6121 -0.6506
   30MOL   H25010748   3.828   1.224   2.760  0.2306 -0.6692  1.3348
   30MOL   H25110749   3.998   1.123   2.532 -1.9539 -0.7840  0.7379
   30MOL   H25210750   4.107   1.024   2.639  0.5350  1.0326  2.7897
   30MOL   H25310751   4.045   1.186   2.683  0.2115  0.5590 -0.4236
   30MOL   C25410752   3.859   0.908   3.080  0.1160 -0.1153  0.1546
   30MOL   C25510753   3.873   1.047   3.145 -0.4116 -0.4141 -0.0603
   30MOL   C25610754   3.770   1.069   3.261 -0.0777 -0.5040  0.1742
   30MOL   C25710755   3.622   1.079   3.226  0.0423 -0.5306  0.0457
   30MOL   C25810756   3.582   1.217   3.164 -0.2226 -0.6469  0.6620
   30MOL   C25910757   3.526   1.038   3.331  0.4324 -0.1475  0.5744
   30MOL   H26010758   3.781   0.857   3.137  0.7340  0.5040  1.5523
   30MOL   H26110759   3.945   0.843   3.097 -0.0448  0.1259  1.9704
   30MOL   H26210760   3.840   1.114   3.066 -0.6216 -0.4391  0.0067
   30MOL   H26310761   3.793   1.158   3.319  3.0071 -1.5447  0.6469
   30MOL   H26410762   3.784   0.984   3.328  0.6981 -0.2728  0.3119
   30MOL   H26510763   3.601   1.009   3.144 -1.1222 -1.7258  1.3299
   30MOL   H26610764   3.609   1.292   3.238  1.4363 -1.9055  1.3535
   30MOL   H26710765   3.474   1.208   3.149 -0.4687  1.6029  0.8199
   30MOL   H26810766   3.628   1.239   3.068  1.0439 -2.1619  0.8999
   30MOL   H26910767   3.527   1.109   3.415  0.8125  1.1153 -0.4829
   30MOL   H27010768   3.423   1.040   3.297  1.2022 -1.8431 -1.9626
   30MOL   H27110769   3.529   0.938   3.374 -0.0750 -0.6070 -0.4512
   30MOL   C27210770   4.022   1.090   3.170 -0.0749 -0.5695 -0.0144
   30MOL   C27310771   4.034   1.244   3.198 -0.0959 -0.7382 -0.0282
   30MOL   C27410772   4.191   1.271   3.209  0.1530  0.5603 -0.8977
   30MOL   C27510773   4.262   1.237   3.338 -0.2639  0.0173  0.6755
   30MOL   C27610774   4.198   1.325   3.447 -0.9933  0.0114 -0.0094
   30MOL   C27710775   4.413   1.272   3.323  0.9988 -0.0994  0.3205
   30MOL   H27810776   4.053   1.031   3.256 -1.8047 -0.1510  0.9083
   30MOL   H27910777   4.086   1.065   3.085 -2.6711 -0.0888 -2.1886
   30MOL   H28010778   3.988   1.256   3.296  0.1321 -0.8074  0.0889
   30MOL   H28110779   4.207   1.379   3.208 -0.1360  0.6292  0.6596
   30MOL   H28210780   4.240   1.231   3.121 -0.0783 -1.3483 -0.1703
   30MOL   H28310781   4.251   1.133   3.369  1.2868 -0.3245  0.1543
   30MOL   H28410782   4.271   1.340   3.526 -0.5279 -0.3448 -0.3720
   30MOL   H28510783   4.177   1.426   3.410  2.6729  0.7842 -0.1740
   30MOL   H28610784   4.104   1.285   3.485 -1.3897  1.5798  0.7320
   30MOL   H28710785   4.418   1.380   3.307  1.6945  0.0019  1.2113
   30MOL   H28810786   4.474   1.231   3.403 -0.9493 -0.6658  1.5479
   30MOL   H28910787   4.464   1.226   3.239 -1.0347  0.0713 -1.0539
   30MOL   C29010788   3.961   1.333   3.085  0.0651  0.2890 -0.4966
   30MOL   C29110789   3.984   1.486   3.088  0.6236 -0.4292  0.1344
   30MOL   C29210790   3.903   1.543   2.970  0.4386 -0.0282 -0.0544
   30MOL   C29310791   3.991   1.541   2.836  0.4602 -0.8198 -0.6306
   30MOL   C29410792   3.906   1.543   2.704 -0.5449 -0.2102  0.4360
   30MOL   C29510793   4.089   1.655   2.841 -0.4597 -0.4793  0.3360
   30MOL   H29610794   3.976   1.287   2.987 -2.0151  0.1356 -0.7774
   30MOL   H29710795   3.854   1.324   3.105  0.1036  0.2855 -0.2958
   30MOL   H29810796   4.090   1.510   3.077  0.6583  0.1751  1.6811
   30MOL   H29910797   3.846   1.635   2.985 -1.0722 -0.5773 -2.0976
   30MOL   H30010798   3.824   1.470   2.950  0.5417 -0.0629 -0.3322
   30MOL   H30110799   4.045   1.447   2.830 -1.4746 -2.0712  0.9663
   30MOL   H30210800   3.978   1.548   2.622 -2.2350  1.9530 -0.9813
   30MOL   H30310801   3.850   1.637   2.711  1.1245  0.7383  1.2112
   30MOL   H30410802   3.835   1.464   2.680  0.5206 -1.2978  0.8726
   30MOL   H30510803   4.162   1.635   2.920 -0.5083  0.4727  0.6347
   30MOL   H30610804   4.036   1.749   2.858  0.6728  0.7783 -2.6104
   30MOL   H30710805   4.146   1.651   2.748 -0.2654 -0.5828  0.4606
   30MOL   C30810806   3.926   1.568   3.205  0.3159  0.5818  0.2299
   30MOL   C30910807   3.992   1.706   3.225 -0.3386  0.2148  0.2178
   30MOL   C31010808   3.900   1.791   3.316 -0.1065  0.0498  0.6143
   30MOL   C31110809   3.763   1.838   3.265  0.2924 -0.9692  0.0858
   30MOL   C31210810   3.680   1.896   3.383 -0.1325  0.4358  0.0955
   30MOL   C31310811   3.767   1.930   3.139  0.4252 -0.1330 -0.0357
   30MOL   H31410812   3.817   1.565   3.206  0.3359 -1.2459  1.4396
   30MOL   H31510813   3.953   1.502   3.288  3.2138 -1.2169 -2.0245
   30MOL   H31610814   3.984   1.761   3.131 -1.4472  1.2108  0.8724
   30MOL   H31710815   3.952   1.879   3.352 -2.0623  1.2729  0.5647
   30MOL   H31810816   3.869   1.748   3.411  1.2425 -0.8081  0.6716
   30MOL   H31910817   3.711   1.748   3.231 -0.0743 -0.5902 -0.3569
   30MOL   H32010818   3.580   1.925   3.350 -0.2712 -0.3976 -0.2113
   30MOL   H32110819   3.731   1.984   3.422  1.6386 -0.2053 -0.7601
   30MOL   H32210820   3.675   1.831   3.470  0.0490  0.8997  0.4571
   30MOL   H32310821   3.684   2.001   3.140  0.0167 -0.5981 -0.6464
   30MOL   H32410822   3.852   1.996   3.159  0.9471 -0.3523 -1.4985
   30MOL   H32510823   3.787   1.895   3.038  4.0970 -2.6450  1.4736
   30MOL   C32610824   4.144   1.709   3.256 -0.0944 -0.2330  0.0771
   30MOL   C32710825   4.214   1.844   3.276  0.3121 -0.3030 -0.0762
   30MOL   C32810826   4.188   1.941   3.160  0.0433  0.3103 -0.0362
   30MOL   C32910827   4.245   2.081   3.167  0.0836  0.1294  0.6235
   30MOL   C33010828   4.235   2.144   3.027 -0.2882 -0.0783  0.2837
   30MOL   C33110829   4.180   2.168   3.271  0.1321 -0.0977 -0.1361
   30MOL   H33210830   4.188   1.672   3.164 -0.2694  1.0279 -0.5221
   30MOL   H33310831   4.159   1.637   3.336 -1.0341 -0.4661  0.0486
   30MOL   H33410832   4.173   1.891   3.366 -0.4340 -0.6100 -0.2557
   30MOL   H33510833   4.233   1.904   3.068 -0.2239 -0.5764  0.1869
   30MOL   H33610834   4.086   1.961   3.125  0.5904 -0.3896 -2.1025
   30MOL   H33710835   4.351   2.074   3.190  0.8429  2.1662 -1.9479
   30MOL   H33810836   4.133   2.137   2.989 -0.0555 -1.0444 -0.1834
   30MOL   H33910837   4.310   2.111   2.956  1.0354  0.7747  1.2535
   30MOL   H34010838   4.252   2.252   3.033  0.1795 -0.1337  0.0031
   30MOL   H34110839   4.218   2.270   3.273 -1.5518  0.5596  3.3045
   30MOL   H34210840   4.071   2.168   3.259 -0.1374  2.5220  1.7732
   30MOL   H34310841   4.202   2.127   3.370 -0.0461  0.0919 -0.0179
   30MOL   C34410842   4.368   1.823   3.301  0.2974  0.2835 -0.0333
   30MOL   C34510843   4.417   1.728   3.411  0.6193 -1.0326 -0.0903
   30MOL   C34610844   4.411   1.783   3.554 -0.0727  0.8290  0.1485
   30MOL   C34710845   4.509   1.715   3.660  0.2700 -0.0154  0.0566
   30MOL   C34810846   4.489   1.562   3.676  0.8916  0.1006  0.2293
   30MOL   C34910847   4.506   1.786   3.794  0.0288  0.1939 -0.0725
   30MOL   H35010848   4.421   1.917   3.310  1.6163 -0.4476 -0.0071
   30MOL   H35110849   4.414   1.788   3.209 -1.3108  0.0139 -0.7581
   30MOL   H35210850   4.522   1.704   3.390  0.9760 -0.0605  0.5398
   30MOL   H35310851   4.425   1.890   3.539  0.2947  0.3979 -2.9869
   30MOL   H35410852   4.304   1.776   3.573 -0.2216 -2.0595 -1.4762
   30MOL   H35510853   4.611   1.734   3.628  0.8197  0.9206  2.2519
   30MOL   H35610854   4.402   1.526   3.731  1.2449 -0.7774  0.2231
   30MOL   H35710855   4.486   1.511   3.580  3.0341  1.1638 -0.4357
   30MOL   H35810856   4.584   1.538   3.724  0.3222  0.7721  1.7089
   30MOL   H35910857   4.588   1.745   3.851 -1.0679  0.6257  1.8447
   30MOL   H36010858   4.413   1.789   3.851  0.7192  3.1523  0.9748
   30MOL   H36110859   4.526   1.891   3.772 -0.8229  0.0391 -1.7154
   30MOL   H36210860   4.362   1.634   3.401  1.0595 -1.4628  1.3928
   31MOL     C110861   1.756   5.542   3.491 -0.3363  0.0124 -0.0862
   31MOL     C210862   1.783   5.401   3.566  0.2474  0.6317 -0.8033
   31MOL     C310863   1.734   5.287   3.476  0.6223 -0.4993 -0.0550
   31MOL     C410864   1.789   5.145   3.504  1.0026  0.3318  0.0552
   31MOL     C510865   1.944   5.127   3.499 -0.4844  0.7594  0.7812
   31MOL     C610866   1.727   5.044   3.398  0.2679 -0.0228 -0.1561
   31MOL     H710867   1.654   5.578   3.499 -0.4622 -0.9328  2.9449
   31MOL     H810868   1.808   5.630   3.528  0.3445 -0.1493 -0.6382
   31MOL     H910869   1.891   5.395   3.575  0.0995  0.6114  1.2377
   31MOL    H1010870   1.625   5.277   3.481  0.8445 -1.8927  3.0603
   31MOL    H1110871   1.756   5.302   3.370  2.7078 -0.5798  0.3540
   31MOL    H1210872   1.764   5.116   3.607  0.0810  1.1633  0.0650
   31MOL    H1310873   2.008   5.187   3.563 -1.6203  1.8130  0.9265
   31MOL    H1410874   1.955   5.019   3.508  0.6854  0.8258  0.3432
   31MOL    H1510875   1.967   5.144   3.393  0.8737  1.5700  1.1933
   31MOL    H1610876   1.620   5.060   3.380 -0.0291 -0.6134  1.0332
   31MOL    H1710877   1.750   4.937   3.406 -1.2648 -0.5613 -2.4827
   31MOL    H1810878   1.771   5.074   3.303 -1.4296 -2.1399 -1.6743
   31MOL    H1910879   1.780   5.534   3.384  2.3616  0.0711  0.4685
   31MOL    C2010880   1.730   5.392   3.715  0.3669  0.1771  0.0444
   31MOL    C2110881   1.803   5.480   3.827  0.0854 -0.2136  0.5784
   31MOL    C2210882   1.699   5.481   3.943  0.0384 -0.3577 -0.6117
   31MOL    C2310883   1.745   5.556   4.072  0.3927 -0.0635 -0.1771
   31MOL    C2410884   1.776   5.705   4.053  0.2802 -0.3000  0.4746
   31MOL    C2510885   1.638   5.545   4.172  0.3315 -0.5518  0.2378
   31MOL    H2610886   1.624   5.415   3.709 -0.1199 -1.6067  1.6053
   31MOL    H2710887   1.744   5.292   3.755 -0.9205  0.4784  1.2375
   31MOL    H2810888   1.808   5.577   3.777 -1.4575 -0.9623 -1.0985
   31MOL    H2910889   1.669   5.380   3.971  0.2140 -0.0644  0.6597
   31MOL    H3010890   1.607   5.532   3.917  0.2343 -0.1501 -0.8993
   31MOL    H3110891   1.829   5.505   4.119 -0.2129 -1.2711 -0.3925
   31MOL    H3210892   1.850   5.708   3.973  2.0982  2.9629  2.1855
   31MOL    H3310893   1.810   5.764   4.138 -0.9093  1.5646 -0.3181
   31MOL    H3410894   1.683   5.749   4.017  0.8175  0.3778 -0.1042
   31MOL    H3510895   1.603   5.443   4.187  1.1354 -0.8520  0.0776
   31MOL    H3610896   1.670   5.585   4.269  1.1143 -1.5182  0.3782
   31MOL    H3710897   1.551   5.607   4.148  1.2791  1.4445  1.8178
   31MOL    C3810898   1.940   5.424   3.860 -0.3292 -0.0859 -0.1592
   31MOL    C3910899   2.061   5.513   3.910 -0.3737 -0.4895  0.3947
   31MOL    C4010900   2.102   5.615   3.794 -0.7541  0.4824 -0.5645
   31MOL    C4110901   2.188   5.729   3.849  0.2504 -0.0520 -0.3352
   31MOL    C4210902   2.108   5.830   3.934  0.0877  0.0109 -0.3445
   31MOL    C4310903   2.249   5.810   3.736  0.0229 -0.6247 -0.2407
   31MOL    H4410904   1.980   5.370   3.775 -0.2306 -0.0610 -0.1293
   31MOL    H4510905   1.918   5.353   3.940  0.4719 -0.5097 -0.3120
   31MOL    H4610906   2.033   5.568   3.999 -1.1996  0.5799 -0.5109
   31MOL    H4710907   2.013   5.666   3.757  0.2503  1.6193 -1.4324
   31MOL    H4810908   2.148   5.558   3.714  0.2660 -1.2830  1.2215
   31MOL    H4910909   2.277   5.705   3.907 -0.6818 -2.5518  0.1189
   31MOL    H5010910   2.004   5.849   3.907 -0.4361  0.6549  1.9774
   31MOL    H5110911   2.098   5.794   4.037 -0.5846  2.0145  0.3292
   31MOL    H5210912   2.158   5.926   3.944  0.9928 -0.2371 -2.3474
   31MOL    H5310913   2.325   5.762   3.674 -0.0566 -0.8792 -0.1437
   31MOL    H5410914   2.299   5.900   3.769 -0.4205  0.1217 -1.5834
   31MOL    H5510915   2.170   5.856   3.678  1.1495 -1.2625 -2.3479
   31MOL    C5610916   2.192   5.423   3.937 -0.3316  0.0607  0.0931
   31MOL    C5710917   2.213   5.372   4.086  0.2186  0.4546 -0.1212
   31MOL    C5810918   2.302   5.462   4.161  0.6124  0.2394 -0.0406
   31MOL    C5910919   2.284   5.470   4.311 -0.2041  0.6747 -0.2512
   31MOL    C6010920   2.173   5.576   4.347 -0.8000  0.4820 -0.1920
   31MOL    C6110921   2.408   5.500   4.388  0.1499  0.1331  0.0717
   31MOL    H6210922   2.283   5.481   3.919  0.2886  0.6901  4.6188
   31MOL    H6310923   2.195   5.339   3.868  0.1907  0.1108  0.0497
   31MOL    H6410924   2.113   5.373   4.130  0.4311  1.1579  0.3474
   31MOL    H6510925   2.406   5.437   4.144  1.2132 -0.0161  3.6402
   31MOL    H6610926   2.303   5.565   4.125  0.2734  0.6610  1.1334
   31MOL    H6710927   2.262   5.374   4.358  4.4473  0.4938  1.8087
   31MOL    H6810928   2.212   5.675   4.324  1.1882  0.7857  3.9111
   31MOL    H6910929   2.177   5.570   4.456 -0.5748  0.9354 -0.1725
   31MOL    H7010930   2.077   5.548   4.303 -0.8683  0.1346  0.1740
   31MOL    H7110931   2.488   5.430   4.363  0.9744 -0.2162  3.4601
   31MOL    H7210932   2.392   5.494   4.496  1.4604 -0.6798  0.2308
   31MOL    H7310933   2.442   5.598   4.356  0.3342 -0.3150 -1.1177
   31MOL    C7410934   2.253   5.227   4.096  0.5154  0.3535  0.3454
   31MOL    C7510935   2.150   5.122   4.037  0.4669 -0.3430  0.2490
   31MOL    C7610936   2.029   5.105   4.142  0.4384  0.2259  0.5504
   31MOL    C7710937   1.933   4.986   4.115  0.6417 -0.1471 -0.1171
   31MOL    C7810938   1.854   5.009   3.979 -0.4212  0.2382 -0.6871
   31MOL    C7910939   1.826   4.972   4.228 -0.1179  0.4079  0.1251
   31MOL    H8010940   2.271   5.199   4.200 -0.2338  2.1931  1.0007
   31MOL    H8110941   2.341   5.221   4.032 -0.9284 -0.3850 -1.6152
   31MOL    H8210942   2.118   5.171   3.946  0.3227 -1.9584 -0.5906
   31MOL    H8310943   2.065   5.090   4.244 -0.8437 -0.0279  0.9775
   31MOL    H8410944   1.977   5.200   4.136 -0.8182 -0.3984  1.2229
   31MOL    H8510945   1.981   4.889   4.109  2.4675  0.7187 -0.0444
   31MOL    H8610946   1.930   5.019   3.902  2.4940 -4.9409  1.2889
   31MOL    H8710947   1.794   5.100   3.969  0.7759  1.1772  0.5247
   31MOL    H8810948   1.801   4.926   3.933  0.6135  0.0076 -1.4714
   31MOL    H8910949   1.781   5.067   4.256 -1.1914  1.3637 -4.4031
   31MOL    H9010950   1.746   4.907   4.192 -0.4953  0.5902  0.6237
   31MOL    H9110951   1.871   4.943   4.322 -0.2664 -2.0811 -0.5467
   31MOL    C9210952   2.212   4.978   3.998 -0.2076  0.1469 -0.1069
   31MOL    C9310953   2.325   4.963   3.902 -0.2709 -0.1190  0.3358
   31MOL    C9410954   2.382   4.821   3.896  0.2002  0.5089  0.1061
   31MOL    C9510955   2.464   4.786   4.016 -0.4648 -0.6536 -0.3260
   31MOL    C9610956   2.454   4.636   4.032  0.8775  0.6120 -0.2036
   31MOL    C9710957   2.610   4.835   4.004 -0.1778 -0.0991  0.4602
   31MOL    H9810958   2.237   4.934   4.094 -1.0725 -1.9097 -0.7824
   31MOL    H9910959   2.133   4.907   3.970  1.2948 -1.3009 -0.7851
   31MOL   H10010960   2.405   5.035   3.919  1.0657 -1.6276  0.5099
   31MOL   H10110961   2.440   4.795   3.808  0.4057 -1.5813  0.8364
   31MOL   H10210962   2.301   4.748   3.891  0.9020 -0.3822  1.4832
   31MOL   H10310963   2.421   4.830   4.106 -0.6287 -2.4937  0.5276
   31MOL   H10410964   2.475   4.576   3.943  2.3721 -0.0684  0.5906
   31MOL   H10510965   2.354   4.613   4.068  1.1473 -0.6457 -0.2477
   31MOL   H10610966   2.528   4.600   4.104 -0.1185 -0.2976  0.3654
   31MOL   H10710967   2.655   4.837   4.103  0.9721  1.2063 -0.0680
   31MOL   H10810968   2.611   4.937   3.965  1.4926  0.1560  1.1121
   31MOL   H10910969   2.670   4.782   3.930 -1.6354  2.4264 -2.6448
   31MOL   C11010970   2.268   4.995   3.761 -0.2536 -0.3258  0.5907
   31MOL   C11110971   2.365   5.035   3.645  0.3663 -0.4674  0.6831
   31MOL   C11210972   2.286   5.037   3.506  0.3480 -0.0083 -0.0766
   31MOL   C11310973   2.254   4.895   3.448 -0.2829 -0.1256 -0.4731
   31MOL   C11410974   2.366   4.804   3.427  0.3857 -0.3938  0.6352
   31MOL   C11510975   2.189   4.920   3.305  0.6201 -0.2686  0.1654
   31MOL   H11610976   2.207   5.086   3.759  1.2554  0.7191  1.0276
   31MOL   H11710977   2.202   4.918   3.721 -1.0572  1.1041 -0.9104
   31MOL   H11810978   2.438   4.954   3.641 -0.7488 -1.4724  0.3369
   31MOL   H11910979   2.337   5.090   3.425 -0.1106  1.8324  0.8000
   31MOL   H12010980   2.194   5.094   3.516 -0.8448 -2.0879  1.0617
   31MOL   H12110981   2.185   4.835   3.508  1.8685 -1.4689  0.6817
   31MOL   H12210982   2.333   4.701   3.412 -0.1594 -0.3175  1.2968
   31MOL   H12310983   2.428   4.796   3.516  0.1973  0.2707  0.8316
   31MOL   H12410984   2.430   4.831   3.342  0.9356 -0.6140  0.9756
   31MOL   H12510985   2.090   4.967   3.306  0.3776 -0.7847  0.7571
   31MOL   H12610986   2.157   4.822   3.268 -1.3088  0.0350  0.9608
   31MOL   H12710987   2.246   4.978   3.233  0.3219  2.1586  1.8345
   31MOL   C12810988   2.437   5.176   3.666  0.2508 -0.2931 -0.5984
   31MOL   C12910989   2.593   5.182   3.629 -0.1869  0.5381 -0.3365
   31MOL   C13010990   2.683   5.136   3.748 -0.1999 -0.3872  0.3651
   31MOL   C13110991   2.833   5.119   3.711  0.1828 -0.1690 -0.1955
   31MOL   C13210992   2.925   5.194   3.800 -1.4214  0.7842  0.3500
   31MOL   C13310993   2.873   4.967   3.696  0.2418  0.1830  0.2778
   31MOL   H13410994   2.431   5.204   3.771  0.2364 -2.2314 -0.0639
   31MOL   H13510995   2.381   5.247   3.605  1.0014  1.7729  1.0660
   31MOL   H13610996   2.609   5.116   3.544 -0.2887  0.3135 -0.1805
   31MOL   H13710997   2.664   5.201   3.833  0.6976  1.5437 -0.8809
   31MOL   H13810998   2.643   5.037   3.774 -0.6532 -0.5786 -1.0386
   31MOL   H13910999   2.846   5.157   3.609  0.2780 -0.9277 -0.4677
   31MOL   H14011000   3.023   5.191   3.753 -1.2909 -3.3949  0.6971
   31MOL   H14111001   2.940   5.149   3.899  1.7248 -2.1653 -1.3773
   31MOL   H14211002   2.886   5.292   3.826 -1.3549  0.8794  0.0928
   31MOL   H14311003   2.978   4.947   3.673  0.4154  1.8750 -0.4353
   31MOL   H14411004   2.861   4.926   3.797  3.4669 -0.5328  0.4355
   31MOL   H14511005   2.802   4.910   3.636 -0.7402  2.9335 -1.2541
   31MOL   C14611006   2.638   5.321   3.588  0.6035 -0.3779 -0.6022
   31MOL   C14711007   2.610   5.365   3.440 -0.8514 -0.5127  0.0530
   31MOL   C14811008   2.729   5.316   3.347 -0.0141  0.5042 -0.2958
   31MOL   C14911009   2.700   5.330   3.199  0.3806  1.0229  0.1317
   31MOL   C15011010   2.835   5.312   3.135  0.2998  0.1742  0.2854
   31MOL   C15111011   2.608   5.216   3.160  0.9862  0.1107  0.6111
   31MOL   H15211012   2.740   5.352   3.609  0.3463  0.6235 -0.7843
   31MOL   H15311013   2.593   5.397   3.653  1.8086 -0.0736 -0.1051
   31MOL   H15411014   2.524   5.305   3.412 -0.2375 -2.1662  1.5786
   31MOL   H15511015   2.814   5.373   3.384 -0.8406  1.0072  0.8386
   31MOL   H15611016   2.766   5.216   3.369  0.2083  0.6143 -0.1567
   31MOL   H15711017   2.662   5.430   3.177  0.1418  0.8612 -0.1923
   31MOL   H15811018   2.884   5.221   3.168  2.7702  0.7510 -1.5271
   31MOL   H15911019   2.902   5.396   3.152  2.2761 -1.4690  0.8484
   31MOL   H16011020   2.827   5.295   3.027  1.8080  1.0593  0.0181
   31MOL   H16111021   2.523   5.217   3.229  0.1276 -0.7761 -0.4003
   31MOL   H16211022   2.657   5.119   3.166  0.3927 -0.1853  0.6982
   31MOL   H16311023   2.561   5.236   3.064 -0.6481 -0.0586  1.3483
   31MOL   C16411024   2.586   5.523   3.434  0.7071 -0.0501  0.3149
   31MOL   C16511025   2.705   5.625   3.458  0.6535 -0.2525  0.7363
   31MOL   C16611026   2.733   5.718   3.339  0.0310 -0.7864  0.1148
   31MOL   C16711027   2.875   5.763   3.314 -0.3395 -0.6037  0.3255
   31MOL   C16811028   2.977   5.650   3.325  0.5691  0.7244  0.2099
   31MOL   C16911029   2.889   5.824   3.169  0.2241 -0.4459  0.2763
   31MOL   H17011030   2.544   5.534   3.334  0.0829 -0.8563  0.4728
   31MOL   H17111031   2.504   5.541   3.504 -0.9309 -2.1727 -0.9593
   31MOL   H17211032   2.789   5.557   3.471  0.2592 -0.4912  2.1680
   31MOL   H17311033   2.701   5.657   3.254 -1.3336 -1.3521  1.0106
   31MOL   H17411034   2.667   5.803   3.349  2.1881  0.9551 -0.0941
   31MOL   H17511035   2.905   5.841   3.384 -0.5654 -0.7261  0.5599
   31MOL   H17611036   3.001   5.633   3.430 -2.4130 -1.6710  0.6019
   31MOL   H17711037   3.068   5.670   3.268 -0.6130  2.6862 -1.0688
   31MOL   H17811038   2.938   5.551   3.299 -1.3019  1.9810 -2.0136
   31MOL   H17911039   2.869   5.738   3.106  1.0664  0.7544 -1.6588
   31MOL   H18011040   2.991   5.850   3.141  0.2698 -2.1314 -1.2577
   31MOL   H18111041   2.821   5.903   3.139 -1.0543 -1.5573  0.2256
   31MOL   C18211042   2.687   5.704   3.589 -0.5713  0.0702 -0.0086
   31MOL   C18311043   2.819   5.752   3.659  0.3215  0.1901  0.0573
   31MOL   C18411044   2.792   5.877   3.750  0.3062 -0.1363 -0.1228
   31MOL   C18511045   2.688   5.858   3.859  1.2099  0.3681 -0.2345
   31MOL   C18611046   2.733   5.774   3.978 -0.5745 -0.9142 -0.2327
   31MOL   C18711047   2.655   6.004   3.898 -0.1049  0.2638 -0.3595
   31MOL   H18811048   2.632   5.648   3.665 -0.6482  1.2754  0.8494
   31MOL   H18911049   2.628   5.796   3.583  3.2865  2.6903 -0.3580
   31MOL   H19011050   2.884   5.788   3.580  0.6404 -0.9154 -0.1979
   31MOL   H19111051   2.768   5.966   3.691  1.2632  0.6832  0.6906
   31MOL   H19211052   2.887   5.910   3.792 -0.7339  0.9370  1.4480
   31MOL   H19311053   2.591   5.831   3.818  1.5852  3.8106 -3.7981
   31MOL   H19411054   2.782   5.683   3.944 -0.3947  0.0422 -2.6530
   31MOL   H19511055   2.661   5.742   4.053  0.3208 -1.1910  0.5231
   31MOL   H19611056   2.817   5.823   4.028  0.2643 -0.5525 -1.9428
   31MOL   H19711057   2.731   6.073   3.935  1.0722 -0.0945 -2.0636
   31MOL   H19811058   2.573   5.999   3.970 -0.4948  0.3391 -0.7930
   31MOL   H19911059   2.597   6.058   3.822 -1.7815  0.1763  0.8443
   31MOL   C20011060   2.904   5.631   3.712 -0.2452 -0.6390 -0.2878
   31MOL   C20111061   3.041   5.668   3.772 -0.1527 -0.0976 -0.5871
   31MOL   C20211062   3.126   5.767   3.689 -0.4610  0.3428  0.2827
   31MOL   C20311063   3.237   5.837   3.777 -0.6435  0.4116  0.2505
   31MOL   C20411064   3.338   5.907   3.681 -0.4016 -0.0075 -0.1036
   31MOL   C20511065   3.185   5.920   3.895  0.1489 -0.3585  0.2633
   31MOL   H20611066   2.929   5.566   3.628 -0.1777 -1.3591  0.2817
   31MOL   H20711067   2.849   5.563   3.777 -1.6389 -0.8066 -1.6143
   31MOL   H20811068   3.010   5.723   3.861  1.0416  0.7965 -0.7082
   31MOL   H20911069   3.169   5.713   3.604  0.7442 -0.9365  1.6683
   31MOL   H21011070   3.070   5.852   3.653 -3.4100 -0.4507  2.7780
   31MOL   H21111071   3.294   5.754   3.821 -1.9998 -0.1859  0.8937
   31MOL   H21211072   3.303   6.000   3.637  3.6806  1.5263 -0.3521
   31MOL   H21311073   3.366   5.853   3.591 -1.8921 -0.5250 -0.2611
   31MOL   H21411074   3.436   5.920   3.728 -0.3716 -0.6291  0.0137
   31MOL   H21511075   3.265   5.961   3.956 -0.4427  1.0343  0.1127
   31MOL   H21611076   3.129   5.856   3.963  2.5068 -0.0138  2.6143
   31MOL   H21711077   3.123   6.001   3.857  0.0939 -0.8286 -0.6551
   31MOL   C21811078   3.114   5.543   3.827 -0.6991 -0.1711  0.2829
   31MOL   C21911079   3.142   5.541   3.977 -0.8058  0.2213 -0.2374
   31MOL   C22011080   3.265   5.460   4.024  0.2059  0.2077 -0.1637
   31MOL   C22111081   3.408   5.521   3.987  0.3441  0.2456  0.1744
   31MOL   C22211082   3.432   5.656   4.060 -0.2072  0.0006 -0.7707
   31MOL   C22311083   3.507   5.411   4.005  0.9632  0.1035 -0.1858
   31MOL   H22411084   3.055   5.454   3.807 -0.8083  0.2683 -1.4949
   31MOL   H22511085   3.198   5.516   3.762  0.5237 -1.1744  2.2498
   31MOL   H22611086   3.168   5.643   4.007 -0.3996  0.8904 -2.7049
   31MOL   H22711087   3.274   5.439   4.130  1.2585  1.1599 -0.0570
   31MOL   H22811088   3.248   5.361   3.982 -1.3327 -0.6690  2.4138
   31MOL   H22911089   3.404   5.537   3.879 -0.0571 -2.6502 -0.2635
   31MOL   H23011090   3.361   5.738   4.046 -1.9909 -0.5044  4.3209
   31MOL   H23111091   3.448   5.634   4.165  1.4011  1.7214 -0.6363
   31MOL   H23211092   3.527   5.700   4.029  0.8648 -1.6523  0.1337
   31MOL   H23311093   3.509   5.376   4.108 -3.9812  0.8250  0.2939
   31MOL   H23411094   3.480   5.331   3.937  2.5655 -0.4477 -0.1795
   31MOL   H23511095   3.604   5.446   3.971 -0.0094  1.5883 -1.5203
   31MOL   C23611096   3.017   5.499   4.063  0.0502  0.4476 -0.1693
   31MOL   C23711097   3.028   5.500   4.221  0.2876 -0.3182 -0.2098
   31MOL   C23811098   2.901   5.433   4.286 -0.1617 -0.0793  0.5045
   31MOL   C23911099   2.873   5.283   4.243  0.0306  0.3916  0.0732
   31MOL   C24011100   2.997   5.187   4.252 -0.3794  0.6564 -0.3655
   31MOL   C24111101   2.761   5.245   4.339  0.3647  0.0298 -0.4524
   31MOL   H24211102   2.986   5.398   4.037 -0.6410  1.0900 -1.9248
   31MOL   H24311103   2.934   5.565   4.038 -0.2365  0.0428 -0.2922
   31MOL   H24411104   3.117   5.442   4.246  0.2490  0.4844  1.8971
   31MOL   H24511105   2.818   5.503   4.279 -0.1754 -0.0412  1.0311
   31MOL   H24611106   2.917   5.428   4.394 -1.3260 -0.0370  0.6918
   31MOL   H24711107   2.838   5.304   4.142  0.5873  2.2162  0.2486
   31MOL   H24811108   2.956   5.088   4.234  1.9228 -0.2992 -0.4681
   31MOL   H24911109   3.028   5.180   4.356  0.3317 -1.2200 -0.6821
   31MOL   H25011110   3.082   5.217   4.191  0.2158 -2.6488 -1.2348
   31MOL   H25111111   2.730   5.145   4.308  0.3384  0.1102 -0.6890
   31MOL   H25211112   2.677   5.312   4.321  0.7150 -0.0423 -2.4441
   31MOL   H25311113   2.777   5.245   4.447  0.4708 -1.5478 -0.4441
   31MOL   C25411114   3.038   5.654   4.259 -0.1586 -0.2583 -0.0633
   31MOL   C25511115   3.085   5.692   4.402  0.6152 -0.0878  0.1910
   31MOL   C25611116   3.237   5.659   4.419 -0.2489  0.0142  0.4268
   31MOL   C25711117   3.255   5.524   4.486  0.1372 -0.1332 -0.0252
   31MOL   C25811118   3.230   5.541   4.642 -0.4401  0.0347 -0.2090
   31MOL   C25911119   3.378   5.446   4.438  0.5014 -0.0504 -0.0565
   31MOL   H26011120   3.108   5.714   4.201 -0.4668  1.0020  0.8553
   31MOL   H26111121   2.940   5.702   4.252 -1.7191 -2.8489  2.7215
   31MOL   H26211122   3.022   5.642   4.476  1.0410 -1.1363 -0.1538
   31MOL   H26311123   3.284   5.729   4.487  0.7337 -0.3560  0.1315
   31MOL   H26411124   3.283   5.658   4.320 -1.1668  0.5165 -0.0112
   31MOL   H26511125   3.166   5.467   4.460 -0.1038 -0.6102  1.7832
   31MOL   H26611126   3.288   5.617   4.695  0.4710  0.0529 -1.2137
   31MOL   H26711127   3.252   5.444   4.685 -2.2215 -0.5370 -0.5524
   31MOL   H26811128   3.126   5.558   4.670 -0.1770  0.2400  0.6675
   31MOL   H26911129   3.390   5.347   4.483  1.2449 -1.2373 -2.7702
   31MOL   H27011130   3.393   5.440   4.330 -0.6603 -1.2960 -0.1600
   31MOL   H27111131   3.464   5.502   4.475  0.3282 -0.3342  0.7819
   31MOL   C27211132   3.060   5.840   4.431  0.6683 -0.1239 -0.6668
   31MOL   C27311133   3.078   5.892   4.576 -0.1448  0.1848  0.1428
   31MOL   C27411134   3.197   5.990   4.568  0.1691 -0.3327  0.3696
   31MOL   C27511135   3.256   6.053   4.689  0.3595 -0.3022 -0.3384
   31MOL   C27611136   3.353   6.174   4.664  0.1726  0.9207 -0.3093
   31MOL   C27711137   3.325   5.948   4.771  0.0608  0.5175  0.0707
   31MOL   H27811138   3.115   5.901   4.358  1.0551  0.6470  0.2555
   31MOL   H27911139   2.957   5.861   4.401  0.0647 -0.4019  1.1633
   31MOL   H28011140   3.111   5.820   4.651 -1.5522 -0.1033  0.5005
   31MOL   H28111141   3.153   6.074   4.513  1.6445 -1.4999 -2.7410
   31MOL   H28211142   3.272   5.951   4.499 -0.1452  1.8283 -1.2565
   31MOL   H28311143   3.169   6.091   4.742  1.1739 -0.1153  0.8822
   31MOL   H28411144   3.310   6.256   4.606 -1.8149 -0.2222 -0.4925
   31MOL   H28511145   3.381   6.218   4.760  1.1025 -1.9282  0.7744
   31MOL   H28611146   3.448   6.138   4.623  0.4678 -0.0935  1.2151
   31MOL   H28711147   3.256   5.878   4.818  2.1791 -1.7685 -0.0890
   31MOL   H28811148   3.392   5.891   4.706 -0.9787 -1.3163  0.5689
   31MOL   H28911149   3.384   5.997   4.848  0.7929 -1.0765  0.5520
   31MOL   C29011150   2.950   5.951   4.639  0.3771 -0.5974  0.3769
   31MOL   C29111151   2.838   5.847   4.676 -0.5434  0.2653  0.0298
   31MOL   C29211152   2.881   5.742   4.785  0.6859 -0.4794  0.1650
   31MOL   C29311153   2.783   5.618   4.813  0.0031 -0.4493 -0.1618
   31MOL   C29411154   2.759   5.517   4.701 -0.1461  0.1783  0.5505
   31MOL   C29511155   2.831   5.540   4.938 -0.0760 -0.0441 -0.3413
   31MOL   H29611156   2.973   6.013   4.725  1.0223 -0.5737  0.1882
   31MOL   H29711157   2.915   6.018   4.560  0.6522 -0.2497  0.5508
   31MOL   H29811158   2.809   5.792   4.586  0.2885 -0.0058 -0.0777
   31MOL   H29911159   2.915   5.787   4.878  0.6887  3.7749 -1.7990
   31MOL   H30011160   2.972   5.694   4.750  1.1331  1.6040 -1.6460
   31MOL   H30111161   2.690   5.662   4.848 -0.2868 -2.5766  1.8050
   31MOL   H30211162   2.715   5.424   4.737 -4.5968  1.9330 -0.0409
   31MOL   H30311163   2.848   5.475   4.657 -0.0995 -0.0873  0.8968
   31MOL   H30411164   2.684   5.558   4.633  0.8163 -0.1031 -0.6993
   31MOL   H30511165   2.929   5.494   4.926  0.6943  1.0997  1.3177
   31MOL   H30611166   2.758   5.464   4.966  1.0955 -0.4738  1.6563
   31MOL   H30711167   2.828   5.609   5.023  0.6635 -2.4084  1.6426
   31MOL   C30811168   2.716   5.932   4.724 -0.3958  0.2712  0.1095
   31MOL   C30911169   2.633   6.003   4.611 -0.0185 -0.0665  0.0544
   31MOL   C31011170   2.568   5.907   4.507  0.1689  0.3036 -0.5426
   31MOL   C31111171   2.557   5.965   4.356  0.2411 -0.1087  0.4210
   31MOL   C31211172   2.692   5.975   4.291 -0.3709  1.0405  0.2691
   31MOL   C31311173   2.457   5.890   4.270  0.6849 -0.2203 -0.7728
   31MOL   H31411174   2.648   5.882   4.793 -2.6564  0.7236 -1.7246
   31MOL   H31511175   2.762   6.007   4.788  1.6756 -1.0541  0.2064
   31MOL   H31611176   2.708   6.061   4.557 -0.1757 -1.2911 -1.5285
   31MOL   H31711177   2.467   5.884   4.541  0.3723  2.3289  1.5682
   31MOL   H31811178   2.621   5.813   4.490 -1.2845 -1.1429  2.4931
   31MOL   H31911179   2.522   6.067   4.368  0.0357  0.3698 -3.6172
   31MOL   H32011180   2.772   5.999   4.361  0.1631 -1.2557  0.4718
   31MOL   H32111181   2.694   6.039   4.202 -0.0464 -0.6902 -0.9948
   31MOL   H32211182   2.715   5.875   4.255 -2.1262  0.6008  0.3297
   31MOL   H32311183   2.366   5.866   4.326  1.0915  1.9065  0.8460
   31MOL   H32411184   2.442   5.964   4.192  2.4243  3.3500  2.1389
   31MOL   H32511185   2.500   5.801   4.224 -0.0792 -0.2995 -1.3583
   31MOL   C32611186   2.533   6.111   4.667 -1.3525 -0.3056 -0.3469
   31MOL   C32711187   2.597   6.218   4.755 -0.0221 -0.1682  0.0345
   31MOL   C32811188   2.495   6.322   4.792 -0.0013  0.4745  0.2050
   31MOL   C32911189   2.400   6.291   4.904  0.5840  0.3160 -0.1663
   31MOL   C33011190   2.471   6.322   5.032  0.4722 -0.1885 -0.9693
   31MOL   C33111191   2.265   6.373   4.887  0.3857  0.4146 -0.1749
   31MOL   H33211192   2.450   6.060   4.716 -0.4266 -1.7338 -0.2051
   31MOL   H33311193   2.480   6.155   4.582  0.3148  3.5473  0.5098
   31MOL   H33411194   2.636   6.172   4.846 -0.1834  0.0310  0.2032
   31MOL   H33511195   2.533   6.424   4.799 -1.5536  1.2271 -1.5924
   31MOL   H33611196   2.431   6.340   4.705 -0.2780  0.4121  0.3982
   31MOL   H33711197   2.359   6.191   4.893  1.5844 -0.2383  1.0416
   31MOL   H33811198   2.516   6.420   5.047 -1.5788  1.0401 -2.6604
   31MOL   H33911199   2.552   6.251   5.051  1.1536  0.5661 -1.0189
   31MOL   H34011200   2.400   6.306   5.114 -1.5770  0.1270 -2.6645
   31MOL   H34111201   2.186   6.331   4.948  1.2717  1.2678  1.5882
   31MOL   H34211202   2.261   6.481   4.902  0.4932  0.7262 -2.1900
   31MOL   H34311203   2.228   6.336   4.791 -0.4060  0.2254  0.2016
   31MOL   C34411204   2.727   6.282   4.698  0.6731 -0.5917 -0.1007
   31MOL   C34511205   2.807   6.358   4.808 -0.5476  0.2408 -0.0375
   31MOL   C34611206   2.921   6.271   4.858  0.1812  0.0392  0.0736
   31MOL   C34711207   2.974   6.321   4.992  0.4148  0.2708 -0.0062
   31MOL   C34811208   3.123   6.285   5.015 -0.0915 -0.2545  0.3039
   31MOL   C34911209   2.885   6.290   5.121 -0.4083  0.3464  0.1011
   31MOL   H35011210   2.696   6.354   4.622 -2.5666 -0.5087  1.2217
   31MOL   H35111211   2.794   6.209   4.654 -0.8147 -2.0643  0.0349
   31MOL   H35211212   2.756   6.396   4.896  2.5139  0.8982  1.5137
   31MOL   H35311213   2.877   6.172   4.870 -0.7476  0.2766 -1.2308
   31MOL   H35411214   3.005   6.268   4.788  1.8172 -1.6654  2.0209
   31MOL   H35511215   2.977   6.430   4.978 -4.4755  0.3660 -1.5114
   31MOL   H35611216   3.144   6.297   5.121  0.0961  0.6354  0.1760
   31MOL   H35711217   3.151   6.185   4.982 -1.8316 -0.2294 -1.3025
   31MOL   H35811218   3.183   6.362   4.966 -1.3045  0.2811 -0.3490
   31MOL   H35911219   2.850   6.187   5.116 -0.7571  0.3796  1.7797
   31MOL   H36011220   2.793   6.347   5.116 -0.3571  0.3527 -0.8326
   31MOL   H36111221   2.927   6.307   5.220 -1.1910 -0.5855  0.5983
   31MOL   H36211222   2.850   6.450   4.768 -1.5866  1.0947  0.7885
   32MOL     C111223   4.957   3.480   1.660  0.6301 -0.2596 -0.2328
   32MOL     C211224   4.993   3.358   1.758  0.0091 -0.2323  0.1090
   32MOL     C311225   4.884   3.246   1.730 -0.0585  0.5601 -0.2128
   32MOL     C411226   4.930   3.102   1.763 -0.7162 -0.2821  0.4674
   32MOL     C511227   5.010   3.049   1.654 -0.2213  0.2490  1.1068
   32MOL     C611228   4.814   3.003   1.795  0.7316  0.5794 -0.3206
   32MOL     H711229   4.964   3.460   1.553  3.5008  0.5304 -0.2289
   32MOL     H811230   4.863   3.531   1.680  0.0757 -1.7325  0.9852
   32MOL     H911231   5.090   3.317   1.730 -0.0074 -0.7615  0.8172
   32MOL    H1011232   4.803   3.278   1.796  1.1447  2.1250  0.5250
   32MOL    H1111233   4.836   3.251   1.632 -2.8345  1.4843  1.1275
   32MOL    H1211234   4.988   3.104   1.856  2.5863  0.1620 -1.5092
   32MOL    H1311235   5.061   2.956   1.680 -1.0039 -0.4353  0.2522
   32MOL    H1411236   4.947   3.021   1.569  1.6090 -1.5813  0.3033
   32MOL    H1511237   5.079   3.120   1.610  0.3449  0.4126  2.2769
   32MOL    H1611238   4.742   3.047   1.864 -1.6654 -1.9585 -1.0942
   32MOL    H1711239   4.839   2.902   1.829 -3.6864 -0.9179 -1.1496
   32MOL    H1811240   4.756   2.978   1.706  2.0686  1.1448 -1.3760
   32MOL    H1911241   5.036   3.554   1.675  0.1000  0.2140  0.2424
   32MOL    C2011242   4.987   3.396   1.904 -0.1209 -0.1808  0.2102
   32MOL    C2111243   5.107   3.466   1.971  0.1119  0.4916  0.2046
   32MOL    C2211244   5.063   3.517   2.107 -0.3908  0.1561  0.2264
   32MOL    C2311245   4.981   3.647   2.097 -0.5423 -0.4708 -0.7810
   32MOL    C2411246   4.839   3.632   2.156 -0.3500 -0.6962  0.1514
   32MOL    C2511247   5.041   3.769   2.162 -0.3896  0.1597  0.0081
   32MOL    H2611248   4.903   3.460   1.932  0.3021  1.0152 -1.1751
   32MOL    H2711249   4.976   3.302   1.958  3.6085  1.1614  3.5549
   32MOL    H2811250   5.133   3.556   1.915  0.2296  1.2585  1.4604
   32MOL    H2911251   5.142   3.520   2.182  1.0233  0.2918 -1.2275
   32MOL    H3011252   4.998   3.446   2.157  0.9860 -0.4007  1.2370
   32MOL    H3111253   4.968   3.671   1.991 -1.6454 -1.6446 -0.9145
   32MOL    H3211254   4.785   3.556   2.101  1.9291 -2.3148  0.0579
   32MOL    H3311255   4.780   3.723   2.151 -1.5137 -1.5085 -1.1414
   32MOL    H3411256   4.848   3.604   2.261  0.0394  0.4526  0.4357
   32MOL    H3511257   5.144   3.768   2.126 -0.1824  2.2065  0.4868
   32MOL    H3611258   4.983   3.859   2.142 -0.9666 -0.5103 -1.4349
   32MOL    H3711259   5.041   3.766   2.271 -0.7548 -0.7949 -0.0211
   32MOL    C3811260   5.227   3.372   1.976 -0.0989 -0.0744  0.3704
   32MOL    C3911261   5.371   3.434   2.007  0.1699  0.2330 -0.2072
   32MOL    C4011262   5.476   3.375   1.912 -0.2672 -0.0475 -0.3245
   32MOL    C4111263   5.456   3.413   1.764  0.1378  0.4698 -0.4417
   32MOL    C4211264   5.561   3.337   1.678 -0.6777 -0.2546  0.2288
   32MOL    C4311265   5.442   3.565   1.727  0.5207 -0.0205  0.1269
   32MOL    H4411266   5.239   3.328   1.877 -0.0333 -0.5278  0.5786
   32MOL    H4511267   5.208   3.287   2.042  1.7608  0.6931  1.9741
   32MOL    H4611268   5.351   3.539   1.989 -1.5089  0.2090  1.2746
   32MOL    H4711269   5.470   3.267   1.917 -0.5281 -0.1025 -1.7576
   32MOL    H4811270   5.582   3.399   1.926 -0.1018 -0.6187 -0.5878
   32MOL    H4911271   5.366   3.366   1.724 -0.1911  0.8761 -0.1790
   32MOL    H5011272   5.577   3.233   1.709 -3.1221 -1.0992 -1.2586
   32MOL    H5111273   5.531   3.343   1.574  2.8421  1.7176 -0.7438
   32MOL    H5211274   5.649   3.399   1.696  0.3530 -0.9210 -2.3966
   32MOL    H5311275   5.527   3.620   1.768  0.2885 -0.3556  1.0756
   32MOL    H5411276   5.348   3.616   1.752  0.7013 -0.9395  2.7997
   32MOL    H5511277   5.445   3.590   1.621  0.7685 -1.3894 -0.1876
   32MOL    C5611278   5.418   3.430   2.154 -0.5232  0.3018  0.1307
   32MOL    C5711279   5.539   3.531   2.175 -0.0021  0.3316 -0.2217
   32MOL    C5811280   5.652   3.472   2.256  0.1431  0.5821  0.2398
   32MOL    C5911281   5.741   3.375   2.182 -0.4146  0.2635  0.8627
   32MOL    C6011282   5.823   3.275   2.262 -0.9522  0.4729  0.0255
   32MOL    C6111283   5.832   3.443   2.075 -0.4014 -0.6727  0.8654
   32MOL    H6211284   5.449   3.328   2.176  0.6833  0.6768  0.2014
   32MOL    H6311285   5.335   3.446   2.223 -0.2373  0.6089  0.4052
   32MOL    H6411286   5.587   3.565   2.083  0.1380 -1.1298 -0.7005
   32MOL    H6511287   5.713   3.559   2.281 -0.2726  1.3431 -1.3609
   32MOL    H6611288   5.623   3.428   2.352  3.5020 -1.4421  0.4271
   32MOL    H6711289   5.670   3.311   2.131  2.1035 -1.7683 -0.2504
   32MOL    H6811290   5.762   3.210   2.324 -0.2151 -0.8698 -0.6438
   32MOL    H6911291   5.896   3.326   2.325 -0.3232 -0.4665  0.0657
   32MOL    H7011292   5.871   3.203   2.196 -1.5212  0.0970  0.0131
   32MOL    H7111293   5.922   3.389   2.048 -1.6876 -2.4677  0.0548
   32MOL    H7211294   5.871   3.530   2.128  0.0454 -0.4770  0.2147
   32MOL    H7311295   5.778   3.475   1.986 -1.7783 -1.3422  1.4428
   32MOL    C7411296   5.487   3.667   2.233 -0.8803 -0.5246  0.6610
   32MOL    C7511297   5.593   3.785   2.229  0.2282  1.0688 -0.2805
   32MOL    C7611298   5.543   3.901   2.319 -0.3772 -0.5552 -0.5132
   32MOL    C7711299   5.552   3.878   2.466 -0.4549  0.0013 -0.0723
   32MOL    C7811300   5.441   3.951   2.540  0.2056  0.1875 -0.0512
   32MOL    C7911301   5.685   3.934   2.512  0.2113 -0.4563  0.3136
   32MOL    H8011302   5.453   3.645   2.334 -0.1310 -0.7163  0.8723
   32MOL    H8111303   5.400   3.693   2.173 -0.1370 -2.0435 -1.1181
   32MOL    H8211304   5.684   3.758   2.284  0.2298 -2.2665 -1.8077
   32MOL    H8311305   5.598   3.990   2.287 -0.0684 -0.0494  1.3800
   32MOL    H8411306   5.440   3.924   2.295 -1.2911 -1.2786  2.5719
   32MOL    H8511307   5.554   3.772   2.494  0.3466 -0.2742 -1.1497
   32MOL    H8611308   5.350   3.913   2.495  0.0525  1.8357 -1.1859
   32MOL    H8711309   5.444   4.058   2.520  0.6941  0.2634  0.4085
   32MOL    H8811310   5.436   3.927   2.646  1.2126 -1.2953 -0.3145
   32MOL    H8911311   5.761   3.863   2.480 -0.0845  0.7089 -3.0931
   32MOL    H9011312   5.700   4.038   2.483 -0.4075 -0.2439  0.7310
   32MOL    H9111313   5.679   3.943   2.621 -0.7553  0.6132  0.1879
   32MOL    C9211314   5.628   3.831   2.082  0.2350  0.3591  0.1961
   32MOL    C9311315   5.774   3.839   2.039  0.0804  0.0367  0.8725
   32MOL    C9411316   5.792   3.882   1.881 -0.2183  0.2534  0.0144
   32MOL    C9511317   5.796   3.760   1.784  0.0210  0.0256 -0.2879
   32MOL    C9611318   5.752   3.780   1.646 -0.4887  0.5495  0.3571
   32MOL    C9711319   5.937   3.708   1.786 -0.6564 -0.1759  0.3058
   32MOL    H9811320   5.578   3.770   2.008 -1.1921  0.1956  1.2655
   32MOL    H9911321   5.582   3.928   2.061  0.7555  0.7789  0.9530
   32MOL   H10011322   5.811   3.737   2.046 -0.3531 -0.1039  1.1400
   32MOL   H10111323   5.884   3.937   1.861 -1.0304  1.2223 -1.1192
   32MOL   H10211324   5.717   3.956   1.851 -0.3564 -0.2174 -0.7944
   32MOL   H10311325   5.730   3.682   1.823  1.1201 -0.8398 -0.1519
   32MOL   H10411326   5.648   3.814   1.642 -0.4555  0.4794 -1.5787
   32MOL   H10511327   5.771   3.689   1.589  2.1920  1.6218 -0.5484
   32MOL   H10611328   5.821   3.852   1.603  0.6645 -0.8455 -0.1838
   32MOL   H10711329   5.967   3.664   1.882 -1.5493  0.2718  0.7925
   32MOL   H10811330   6.017   3.781   1.773 -0.6319 -0.0922  0.9035
   32MOL   H10911331   5.947   3.634   1.707 -0.1852 -0.9401  1.0639
   32MOL   C11011332   5.851   3.944   2.122 -0.0389 -0.0363 -0.6266
   32MOL   C11111333   6.001   3.918   2.147  0.0150 -0.7008 -0.0391
   32MOL   C11211334   6.084   4.037   2.198 -0.5640  0.2192  0.1834
   32MOL   C11311335   6.091   4.157   2.100  0.1866  0.0004 -0.4042
   32MOL   C11411336   6.173   4.126   1.967 -0.4285  0.1786 -0.5157
   32MOL   C11511337   6.147   4.275   2.175  0.4856  0.4560 -0.0024
   32MOL   H11611338   5.798   3.963   2.215  0.7385  0.1594 -0.2175
   32MOL   H11711339   5.829   4.044   2.084  1.2785 -0.0984 -1.6231
   32MOL   H11811340   6.045   3.885   2.053  1.1906  0.1323  0.1963
   32MOL   H11911341   6.185   4.003   2.222 -0.0482 -0.2820 -2.5866
   32MOL   H12011342   6.025   4.078   2.280 -0.4081  0.0993  0.3539
   32MOL   H12111343   5.990   4.179   2.066  0.4139  0.8948 -0.5334
   32MOL   H12211344   6.280   4.138   1.980 -0.6195  1.5172  0.0130
   32MOL   H12311345   6.155   4.207   1.896  0.8760  0.3417 -0.6668
   32MOL   H12411346   6.155   4.032   1.915  1.0756  0.5059 -1.6468
   32MOL   H12511347   6.171   4.363   2.115 -0.6834  0.4088 -0.5554
   32MOL   H12611348   6.248   4.251   2.206  1.2014  2.0344 -1.0501
   32MOL   H12711349   6.080   4.310   2.254  1.5439 -0.4929  1.3369
   32MOL   C12811350   6.012   3.803   2.250 -0.8139 -0.1977  0.1464
   32MOL   C12911351   6.143   3.720   2.252  0.2855 -0.1246  0.3963
   32MOL   C13011352   6.141   3.613   2.145  0.7370 -0.0605  0.6699
   32MOL   C13111353   6.282   3.551   2.109 -0.4128 -0.0279 -0.3668
   32MOL   C13211354   6.261   3.418   2.033  0.1110  0.1906  0.0811
   32MOL   C13311355   6.370   3.645   2.029  0.0819 -0.1823  0.0174
   32MOL   H13411356   5.928   3.734   2.245  0.5166 -1.9197  0.7145
   32MOL   H13511357   5.982   3.839   2.349  1.3491 -0.2328  0.8573
   32MOL   H13611358   6.233   3.776   2.229 -0.0680  0.6436  0.8508
   32MOL   H13711359   6.071   3.539   2.183 -1.3867  1.5028 -0.1136
   32MOL   H13811360   6.092   3.650   2.055 -0.5500  1.5346  2.0062
   32MOL   H13911361   6.336   3.516   2.196 -2.5689 -1.1909  0.5489
   32MOL   H14011362   6.195   3.434   1.947  0.1080  0.6985  0.1749
   32MOL   H14111363   6.221   3.337   2.094  0.0458  0.6752  0.6818
   32MOL   H14211364   6.358   3.386   1.997 -1.6563 -1.9122 -3.0534
   32MOL   H14311365   6.346   3.661   1.924 -4.0004 -0.4690  0.8160
   32MOL   H14411366   6.363   3.740   2.081  1.5219 -1.7501  3.2354
   32MOL   H14511367   6.473   3.618   2.050 -0.4500 -2.4789 -0.2135
   32MOL   C14611368   6.172   3.659   2.394  0.0717  0.2454 -0.1257
   32MOL   C14711369   6.210   3.760   2.502 -0.5931  0.2939  0.0993
   32MOL   C14811370   6.348   3.721   2.560  0.9226  0.3416  0.3374
   32MOL   C14911371   6.466   3.748   2.467  0.0194 -0.6800 -0.5424
   32MOL   C15011372   6.490   3.900   2.454  0.1479  0.2990 -0.0260
   32MOL   C15111373   6.590   3.675   2.508 -0.3568 -0.6511 -0.5187
   32MOL   H15211374   6.247   3.583   2.371  0.4114 -0.1275  2.1652
   32MOL   H15311375   6.083   3.603   2.424 -0.0429  0.4648 -0.0619
   32MOL   H15411376   6.216   3.855   2.449  1.4311 -0.2881 -0.7716
   32MOL   H15511377   6.369   3.761   2.659  1.1213 -0.4512  0.6200
   32MOL   H15611378   6.353   3.612   2.566  1.4886  0.2986 -0.7721
   32MOL   H15711379   6.447   3.707   2.367  0.2081 -0.8620 -0.5032
   32MOL   H15811380   6.396   3.943   2.419  0.3488  1.4386  0.8159
   32MOL   H15911381   6.571   3.928   2.387  0.5375  0.4559  0.5112
   32MOL   H16011382   6.504   3.948   2.551 -0.0993 -1.2695  0.8020
   32MOL   H16111383   6.681   3.717   2.465 -0.0851 -1.8746 -1.1424
   32MOL   H16211384   6.603   3.573   2.473 -0.6155 -0.2918 -1.6689
   32MOL   H16311385   6.600   3.678   2.617  0.4745 -2.0756 -0.5426
   32MOL   C16411386   6.103   3.764   2.613  0.0131 -0.0543  0.4012
   32MOL   C16511387   6.116   3.897   2.683 -0.0911 -0.1050  0.1785
   32MOL   C16611388   6.037   4.001   2.602  0.5701 -0.0006 -0.6254
   32MOL   C16711389   6.087   4.142   2.626 -0.4272  0.3053  0.0609
   32MOL   C16811390   6.218   4.160   2.560 -0.4384 -0.7077 -0.2799
   32MOL   C16911391   5.980   4.242   2.582  0.4955  0.2785  0.7843
   32MOL   H17011392   5.998   3.743   2.595 -0.0260  1.8169 -1.8805
   32MOL   H17111393   6.132   3.679   2.675  1.8795 -0.4724 -0.9776
   32MOL   H17211394   6.221   3.918   2.706  0.0935 -0.9113  0.1064
   32MOL   H17311395   6.040   3.997   2.493 -0.9704  0.6047 -0.7022
   32MOL   H17411396   5.934   3.995   2.636  1.1796 -0.6990  1.1958
   32MOL   H17511397   6.095   4.149   2.734 -3.1954  0.1023  0.3241
   32MOL   H17611398   6.267   4.255   2.580  1.3910 -1.7657  0.3409
   32MOL   H17711399   6.205   4.178   2.454  2.6474 -1.0252 -0.7407
   32MOL   H17811400   6.287   4.079   2.579 -2.0163 -2.6326 -2.4641
   32MOL   H17911401   5.913   4.250   2.668 -0.0359 -0.5244  0.4506
   32MOL   H18011402   5.932   4.215   2.489 -0.3889 -0.5500  1.4719
   32MOL   H18111403   6.016   4.345   2.578 -3.2628  1.6449  0.5310
   32MOL   C18211404   6.055   3.875   2.827  0.0296  0.1571 -0.1999
   32MOL   C18311405   6.132   3.818   2.943 -0.0442  0.1792 -0.0710
   32MOL   C18411406   6.244   3.918   2.982 -0.2632  0.3549  0.0549
   32MOL   C18511407   6.362   3.847   3.060  0.2557  0.3030 -0.1970
   32MOL   C18611408   6.426   3.735   2.980 -0.1859 -0.0340  0.1501
   32MOL   C18711409   6.461   3.955   3.098  0.3012 -0.6713  0.2193
   32MOL   H18811410   5.965   3.814   2.818  0.6024 -0.7738  0.4162
   32MOL   H18911411   6.019   3.973   2.861  2.0546  1.1799 -0.9298
   32MOL   H19011412   6.181   3.734   2.894 -1.4374 -0.8454  0.2544
   32MOL   H19111413   6.215   3.999   3.050 -0.3473  0.0752  0.3533
   32MOL   H19211414   6.296   3.977   2.906 -0.8935  3.4181  1.8928
   32MOL   H19311415   6.327   3.803   3.154 -0.0456  0.1161 -0.3973
   32MOL   H19411416   6.527   3.719   3.017  0.3497  0.5703 -1.0321
   32MOL   H19511417   6.449   3.772   2.880 -0.3207  1.7830  0.7820
   32MOL   H19611418   6.362   3.647   2.974 -0.5148  0.1068  1.5065
   32MOL   H19711419   6.494   4.016   3.014 -3.0496  1.3998  0.3363
   32MOL   H19811420   6.554   3.918   3.142 -0.2908  0.0378  2.0977
   32MOL   H19911421   6.418   4.022   3.172  1.3148  1.1985 -0.8403
   32MOL   C20011422   6.039   3.785   3.065  0.0989  0.0815  0.2609
   32MOL   C20111423   5.936   3.665   3.041  0.2037 -0.4198  0.8137
   32MOL   C20211424   5.820   3.657   3.152  0.5254  0.1047  0.7699
   32MOL   C20311425   5.712   3.765   3.159  0.6857  0.3740  0.1951
   32MOL   C20411426   5.623   3.759   3.030 -0.2186 -0.9055 -0.5061
   32MOL   C20511427   5.629   3.780   3.294  0.2911 -0.0051  0.2898
   32MOL   H20611428   5.981   3.877   3.077  0.4583  0.1959  1.1940
   32MOL   H20711429   6.088   3.783   3.162  0.2523 -0.0369  0.1801
   32MOL   H20811430   5.879   3.677   2.950  0.9015  0.6980  0.5134
   32MOL   H20911431   5.764   3.565   3.137 -0.2837  1.0061 -2.0357
   32MOL   H21011432   5.861   3.646   3.252 -1.5282 -0.1802  1.6071
   32MOL   H21111433   5.762   3.862   3.164 -0.1668  0.8609 -0.5128
   32MOL   H21211434   5.686   3.755   2.941 -0.3178 -1.9824 -0.5395
   32MOL   H21311435   5.568   3.853   3.023  0.1195 -0.4940  2.0811
   32MOL   H21411436   5.558   3.671   3.023  0.2681 -1.4525  1.5628
   32MOL   H21511437   5.561   3.696   3.302  2.7174 -2.1073 -0.4675
   32MOL   H21611438   5.578   3.877   3.299 -1.6393 -0.9342 -0.7301
   32MOL   H21711439   5.677   3.771   3.391 -0.6168 -1.4795  0.6144
   32MOL   C21811440   6.016   3.534   3.054 -0.9902 -0.1344  0.2044
   32MOL   C21911441   5.961   3.400   3.007  0.4604 -0.2437  0.4195
   32MOL   C22011442   6.058   3.288   3.047 -0.1938  0.7455 -0.8565
   32MOL   C22111443   6.038   3.232   3.196  0.0670  0.0419 -0.2035
   32MOL   C22211444   5.926   3.121   3.200  0.5877 -0.4812 -0.0782
   32MOL   C22311445   6.172   3.183   3.251 -0.4225 -0.0030  0.6318
   32MOL   H22411446   6.112   3.547   3.004 -0.5105 -1.5358  0.7423
   32MOL   H22511447   6.042   3.522   3.159 -1.6625  0.9242  0.4984
   32MOL   H22611448   5.864   3.385   3.055 -1.5335  2.5807 -2.5185
   32MOL   H22711449   6.061   3.202   2.980 -0.0420  2.5396 -3.2286
   32MOL   H22811450   6.160   3.325   3.036  0.0620  0.8725  1.6865
   32MOL   H22911451   6.007   3.314   3.260 -0.0552 -1.5203  1.7898
   32MOL   H23011452   5.829   3.170   3.188  1.0912  0.5986  0.1975
   32MOL   H23111453   5.937   3.042   3.126 -0.0463 -0.1171 -0.5748
   32MOL   H23211454   5.929   3.072   3.297  0.3762 -0.0385  0.1550
   32MOL   H23311455   6.203   3.093   3.198 -1.6488 -0.3331  0.4428
   32MOL   H23411456   6.244   3.260   3.228 -0.8435  0.3319  0.4325
   32MOL   H23511457   6.173   3.161   3.358  0.1471  0.0932  0.6464
   32MOL   C23611458   5.938   3.390   2.855  0.2648  0.2763 -0.0857
   32MOL   C23711459   5.832   3.296   2.799 -0.7232  0.1126 -1.1103
   32MOL   C23811460   5.854   3.251   2.650 -0.3828 -0.0555 -0.0119
   32MOL   C23911461   5.973   3.157   2.633 -0.3053 -0.6103  0.0984
   32MOL   C24011462   5.939   3.022   2.687 -0.3111  0.2742 -0.1777
   32MOL   C24111463   6.028   3.137   2.495  0.3681 -0.1442  0.1957
   32MOL   H24211464   6.035   3.380   2.808  0.1093  0.5528 -0.4682
   32MOL   H24311465   5.902   3.483   2.811 -1.5525 -1.4706 -2.3832
   32MOL   H24411466   5.840   3.205   2.858 -0.4128 -0.4453 -2.0110
   32MOL   H24511467   5.866   3.344   2.594  0.9381  0.4491  1.0557
   32MOL   H24611468   5.773   3.206   2.594  0.0050 -2.7648  1.5466
   32MOL   H24711469   6.051   3.187   2.703 -0.3944  0.6152 -0.3302
   32MOL   H24811470   5.916   3.028   2.794  2.1817  1.3909  0.3258
   32MOL   H24911471   6.018   2.947   2.685  0.4440  1.0655 -0.2337
   32MOL   H25011472   5.847   2.978   2.648  0.2878 -0.8539 -0.3623
   32MOL   H25111473   6.103   3.059   2.497 -1.0259 -1.4992  0.3323
   32MOL   H25211474   6.060   3.233   2.453 -1.8945  0.0951 -1.1112
   32MOL   H25311475   5.956   3.097   2.424  0.8318 -0.8854  0.1444
   32MOL   C25411476   5.695   3.362   2.811 -1.0764 -0.5870 -0.0654
   32MOL   C25511477   5.581   3.269   2.790  0.7669 -0.2831 -0.0589
   32MOL   C25611478   5.488   3.255   2.915  1.0181 -0.2779  0.0185
   32MOL   C25711479   5.558   3.176   3.029 -0.1054 -0.8583  0.2557
   32MOL   C25811480   5.549   3.025   3.003  0.2875  0.1254  0.2021
   32MOL   C25911481   5.519   3.232   3.172  0.5003 -0.0209 -0.1347
   32MOL   H26011482   5.682   3.407   2.909 -1.1970 -1.8755  0.5144
   32MOL   H26111483   5.679   3.453   2.753 -1.0193 -0.3080  0.3549
   32MOL   H26211484   5.630   3.174   2.768  1.2930 -0.1773  0.6436
   32MOL   H26311485   5.401   3.195   2.891  2.0619 -1.5397 -0.7238
   32MOL   H26411486   5.467   3.358   2.940  1.9622 -0.0994  0.1044
   32MOL   H26511487   5.663   3.206   3.026 -0.9636  2.1139 -1.9442
   32MOL   H26611488   5.589   2.992   2.907 -1.1159 -0.6792 -0.1229
   32MOL   H26711489   5.448   2.985   2.999 -0.4449  1.9521  0.0669
   32MOL   H26811490   5.602   2.970   3.081  1.7129 -0.3531 -1.0637
   32MOL   H26911491   5.566   3.177   3.253 -3.4885 -1.2288  1.4886
   32MOL   H27011492   5.541   3.339   3.183  0.3458  0.1035 -1.0570
   32MOL   H27111493   5.411   3.220   3.183  0.5684 -0.6925 -0.1729
   32MOL   C27211494   5.492   3.313   2.680 -0.4899  0.1506  0.2150
   32MOL   C27311495   5.404   3.215   2.602  0.1215 -0.5154 -0.5714
   32MOL   C27411496   5.314   3.301   2.511  0.2304  0.6920  0.1391
   32MOL   C27511497   5.174   3.347   2.570 -0.1424 -0.5386 -0.0240
   32MOL   C27611498   5.088   3.422   2.467 -0.0998  0.2882 -0.2438
   32MOL   C27711499   5.177   3.443   2.687  0.5992  0.1058 -0.3875
   32MOL   H27811500   5.433   3.395   2.721 -0.3322  0.1619  0.4181
   32MOL   H27911501   5.556   3.368   2.610  1.0721 -0.6318  1.0194
   32MOL   H28011502   5.344   3.164   2.677  1.8119 -1.6117  0.0506
   32MOL   H28111503   5.283   3.230   2.434  0.4725 -0.0878  0.7568
   32MOL   H28211504   5.381   3.378   2.473  0.0551  1.0474  0.5508
   32MOL   H28311505   5.114   3.257   2.584  2.0245 -2.1460 -0.8884
   32MOL   H28411506   5.124   3.524   2.462  1.9579 -0.3766  0.6133
   32MOL   H28511507   5.076   3.380   2.367 -0.4242 -0.7643  0.2207
   32MOL   H28611508   4.987   3.415   2.509  0.5914  4.1830  2.2919
   32MOL   H28711509   5.230   3.537   2.674  0.8923 -0.0964 -0.6695
   32MOL   H28811510   5.080   3.479   2.719  0.8835 -0.0367  0.6614
   32MOL   H28911511   5.228   3.397   2.773 -1.4185 -0.9239  0.2895
   32MOL   C29011512   5.490   3.117   2.520 -0.6343 -0.1836 -0.2211
   32MOL   C29111513   5.416   2.990   2.469 -0.4822  0.0478  0.3904
   32MOL   C29211514   5.510   2.924   2.366  0.0913 -0.3534  0.4900
   32MOL   C29311515   5.538   3.001   2.232  0.6586 -0.4011 -0.3994
   32MOL   C29411516   5.658   2.931   2.171  0.3219 -0.1233 -0.7768
   32MOL   C29511517   5.423   2.993   2.136 -0.1649  0.3218  0.5506
   32MOL   H29611518   5.545   3.179   2.449 -0.0595  1.2370  1.4109
   32MOL   H29711519   5.565   3.080   2.590  0.2619  1.2464 -0.4028
   32MOL   H29811520   5.325   3.019   2.417  0.6075  1.2832 -0.8849
   32MOL   H29911521   5.481   2.820   2.353  0.0123 -0.2796  0.0788
   32MOL   H30011522   5.596   2.899   2.429 -0.8145 -0.5427  1.6685
   32MOL   H30111523   5.568   3.104   2.255 -2.1448  0.6090 -1.0036
   32MOL   H30211524   5.611   2.846   2.121  0.7749 -1.3313  0.8294
   32MOL   H30311525   5.729   2.900   2.248  0.0803  0.6209 -0.2543
   32MOL   H30411526   5.714   2.996   2.103  1.4432  0.9031  1.0994
   32MOL   H30511527   5.394   2.889   2.120  0.7166  0.6561 -3.7156
   32MOL   H30611528   5.442   3.038   2.038 -1.2631 -2.6784 -1.1042
   32MOL   H30711529   5.336   3.047   2.174 -0.7408  1.0692 -1.7729
   32MOL   C30811530   5.379   2.896   2.591 -0.2919 -0.1382 -0.6554
   32MOL   C30911531   5.300   2.765   2.562 -0.3547  0.0031  0.0609
   32MOL   C31011532   5.304   2.666   2.680 -0.5016 -0.0373 -0.4227
   32MOL   C31111533   5.442   2.592   2.692  0.3104 -0.0126 -0.5645
   32MOL   C31211534   5.439   2.520   2.828  0.3809 -0.4472  0.2409
   32MOL   C31311535   5.472   2.492   2.580 -0.5100  0.3337  0.3302
   32MOL   H31411536   5.466   2.885   2.656 -1.4257 -1.4989  0.6686
   32MOL   H31511537   5.314   2.951   2.659  1.6553 -1.9074  2.7321
   32MOL   H31611538   5.348   2.719   2.476 -1.1431  0.3809 -0.5870
   32MOL   H31711539   5.233   2.583   2.672  1.0790 -1.4062 -0.4852
   32MOL   H31811540   5.300   2.724   2.772 -0.3885 -0.9064  0.1370
   32MOL   H31911541   5.521   2.667   2.682 -0.5513  0.7524 -1.7092
   32MOL   H32011542   5.432   2.592   2.910 -0.2196 -2.3772  1.9317
   32MOL   H32111543   5.540   2.482   2.837  0.2560 -0.4287  1.9277
   32MOL   H32211544   5.356   2.449   2.828 -0.2520  0.2828  0.8334
   32MOL   H32311545   5.444   2.534   2.483  0.4878 -0.3211 -0.2572
   32MOL   H32411546   5.576   2.461   2.572 -1.2564 -2.0610 -0.6044
   32MOL   H32511547   5.438   2.394   2.613 -0.0684  0.1790  0.3304
   32MOL   C32611548   5.151   2.800   2.522 -0.8852  0.8720 -0.5125
   32MOL   C32711549   5.061   2.679   2.474  0.2639 -0.5907 -0.3712
   32MOL   C32811550   5.122   2.567   2.378 -0.3730 -0.0661  0.0422
   32MOL   C32911551   5.070   2.422   2.400 -0.2085 -0.2331  0.3132
   32MOL   C33011552   5.133   2.330   2.292  0.1723 -0.0267  0.0268
   32MOL   C33111553   5.101   2.366   2.539 -0.4408  0.3763  1.0236
   32MOL   H33211554   5.136   2.886   2.458 -0.3944  1.0181 -0.4323
   32MOL   H33311555   5.092   2.829   2.609 -1.2407  1.4663 -0.9530
   32MOL   H33411556   5.041   2.623   2.566 -0.7338 -0.2677 -0.3803
   32MOL   H33511557   5.120   2.611   2.278 -0.2015 -1.3749 -0.5424
   32MOL   H33611558   5.230   2.557   2.389 -0.2358  1.7125  0.4744
   32MOL   H33711559   4.964   2.414   2.373 -0.0552 -1.3626  0.0147
   32MOL   H33811560   5.102   2.227   2.306 -2.3462  0.9234  1.9457
   32MOL   H33911561   5.242   2.334   2.290  0.1417  0.5003 -0.6928
   32MOL   H34011562   5.112   2.357   2.189 -0.0423 -2.8821 -0.7013
   32MOL   H34111563   5.037   2.409   2.616  1.1968 -1.6020  3.5951
   32MOL   H34211564   5.081   2.258   2.536 -0.2289  0.3663 -0.5262
   32MOL   H34311565   5.203   2.385   2.571 -0.4921 -1.6845  2.5112
   32MOL   C34411566   4.930   2.748   2.411 -0.5725 -0.5963 -0.0178
   32MOL   C34511567   4.826   2.641   2.385 -0.0262 -0.5740 -0.0782
   32MOL   C34611568   4.704   2.686   2.317  0.1878 -0.2244 -0.3008
   32MOL   C34711569   4.616   2.567   2.255  0.2016  0.5464  0.5164
   32MOL   C34811570   4.691   2.499   2.129 -0.4614  0.2190 -1.1494
   32MOL   C34911571   4.472   2.612   2.214 -0.1123  0.3980 -0.1126
   32MOL   H35011572   4.945   2.820   2.331 -2.4804 -2.2433 -1.9037
   32MOL   H35111573   4.888   2.811   2.490  0.0084 -1.2288  0.8126
   32MOL   H35211574   4.787   2.591   2.473 -1.6485 -0.0710 -0.4999
   32MOL   H35311575   4.641   2.753   2.375 -1.6882 -0.5216 -1.9373
   32MOL   H35411576   4.731   2.750   2.232  1.1570  0.4144  0.4655
   32MOL   H35511577   4.607   2.492   2.333  2.4905 -0.5792 -0.2571
   32MOL   H35611578   4.796   2.474   2.142 -0.7426 -0.0563  0.7821
   32MOL   H35711579   4.643   2.402   2.114  0.0515 -0.0311 -1.1715
   32MOL   H35811580   4.687   2.567   2.044 -1.8032 -0.2312 -1.4595
   32MOL   H35911581   4.476   2.671   2.122  1.4019 -0.5868 -0.6937
   32MOL   H36011582   4.424   2.669   2.293 -0.4214  1.3323 -0.9541
   32MOL   H36111583   4.410   2.524   2.193 -0.9449  1.0385 -0.3792
   32MOL   H36211584   4.878   2.579   2.312 -0.3499 -0.8233 -0.0959
   33MOL     C111585   0.050   4.776   1.883  0.1428 -0.0314  0.5522
   33MOL     C211586   0.114   4.819   2.015 -0.2910  0.4009 -0.2682
   33MOL     C311587   0.121   4.969   2.018 -0.0241  1.3060  0.3577
   33MOL     C411588   0.184   5.030   2.149  0.1181  0.3013 -0.2447
   33MOL     C511589   0.117   4.977   2.276 -0.1526 -0.8815 -0.0764
   33MOL     C611590   0.153   5.184   2.144 -0.0046 -0.5457  0.2969
   33MOL     H711591   7.746   4.683   1.895  0.8505 -0.4487  0.6026
   33MOL     H811592   7.710   4.829   1.858 -1.7758 -4.2351 -1.8217
   33MOL     H911593   0.048   4.796   2.099  1.5998  0.2977  1.2422
   33MOL    H1011594   0.174   4.993   1.926  1.1405  1.3956  1.0466
   33MOL    H1111595   0.025   5.019   2.006 -0.2271  0.7913 -0.1809
   33MOL    H1211596   0.289   4.999   2.142  0.5636  1.8069 -0.4732
   33MOL    H1311597   0.133   4.869   2.278  0.1782 -0.8388 -0.3832
   33MOL    H1411598   0.161   5.017   2.368  0.0799 -0.7155 -0.2599
   33MOL    H1511599   0.010   4.994   2.287 -0.1089 -0.8402  0.3126
   33MOL    H1611600   0.191   5.234   2.233  0.3252  0.4790 -0.4152
   33MOL    H1711601   0.048   5.213   2.139 -0.1513 -0.9482  0.9201
   33MOL    H1811602   0.201   5.229   2.057  1.9364 -1.5705  0.8095
   33MOL    H1911603   0.108   4.790   1.792  1.9797  0.1919  1.7462
   33MOL    C2011604   0.248   4.756   2.047 -0.7929 -0.6723  0.4481
   33MOL    C2111605   0.241   4.595   2.046  0.0602 -0.2450 -0.0881
   33MOL    C2211606   0.374   4.541   2.008  0.5895 -0.3992 -0.5716
   33MOL    C2311607   0.383   4.406   1.936  0.2675  0.6108  0.4482
   33MOL    C2411608   0.322   4.405   1.793 -0.1174 -0.8224  0.2062
   33MOL    C2511609   0.536   4.374   1.929  0.1417  0.4379 -0.5969
   33MOL    H2611610   0.318   4.783   1.968 -0.7642 -3.1259 -0.4115
   33MOL    H2711611   0.301   4.788   2.137  0.4151  0.6080 -0.6960
   33MOL    H2811612   0.180   4.566   1.960 -0.1142  0.9171 -0.3597
   33MOL    H2911613   0.437   4.543   2.097 -0.5265 -1.8488  0.2783
   33MOL    H3011614   0.435   4.604   1.944  0.0268 -0.7432 -1.4600
   33MOL    H3111615   0.339   4.321   1.989  1.8752 -0.6236 -0.1394
   33MOL    H3211616   0.215   4.423   1.800 -0.1091 -0.5727 -0.3001
   33MOL    H3311617   0.340   4.312   1.738  0.7254 -0.7818  0.4008
   33MOL    H3411618   0.376   4.477   1.731  0.7500 -0.7994  0.9733
   33MOL    H3511619   0.538   4.269   1.902 -3.2547  0.4338 -1.0539
   33MOL    H3611620   0.594   4.443   1.867 -1.1822  2.4622  0.3582
   33MOL    H3711621   0.576   4.373   2.030 -0.8382 -0.9641 -0.2188
   33MOL    C3811622   0.187   4.553   2.187  0.4578 -0.2346 -1.0508
   33MOL    C3911623   0.114   4.417   2.193  0.5468  0.0515 -0.4818
   33MOL    C4011624   7.718   4.424   2.156  0.0778  0.6077  0.2906
   33MOL    C4111625   7.654   4.307   2.070  0.8001 -0.4466  0.4766
   33MOL    C4211626   7.642   4.173   2.139 -0.2991 -0.4877  0.2989
   33MOL    C4311627   7.721   4.300   1.935  0.1115 -0.1346  0.1645
   33MOL    H4411628   0.117   4.628   2.224  0.1925  0.0656 -2.1451
   33MOL    H4511629   0.265   4.551   2.264  0.0337  1.7391 -0.5316
   33MOL    H4611630   0.156   4.360   2.110  0.4458  1.5870 -1.5904
   33MOL    H4711631   7.698   4.515   2.099 -0.9028  0.1402 -0.1209
   33MOL    H4811632   7.662   4.438   2.248 -0.7712 -1.2885  0.0963
   33MOL    H4911633   7.557   4.351   2.046  0.3295 -1.8607 -0.2498
   33MOL    H5011634   7.611   4.201   2.239  1.5870 -2.2544  1.4183
   33MOL    H5111635   7.575   4.105   2.086 -0.0220  1.1411 -2.2139
   33MOL    H5211636   7.738   4.122   2.148  0.4258  1.0232  1.2697
   33MOL    H5311637   0.067   4.254   1.945 -0.1282 -0.7419 -0.2515
   33MOL    H5411638   7.732   4.397   1.886 -1.0478  0.5599  1.2607
   33MOL    H5511639   7.674   4.226   1.871 -2.0710  0.3219  1.1909
   33MOL    C5611640   0.117   4.340   2.329  0.5039 -0.8179  0.4763
   33MOL    C5711641   0.257   4.294   2.373 -0.3428 -0.6347  0.1437
   33MOL    C5811642   0.313   4.173   2.289  0.4050  0.5641 -0.0760
   33MOL    C5911643   0.460   4.194   2.254 -0.3003  0.4827 -0.0964
   33MOL    C6011644   0.508   4.102   2.149  0.0241 -0.3202 -0.5859
   33MOL    C6111645   0.554   4.197   2.374 -0.0200  0.0885 -0.2605
   33MOL    H6211646   0.061   4.246   2.322  1.2537 -1.0509 -2.9952
   33MOL    H6311647   0.068   4.402   2.405  1.5295 -0.4308  0.8253
   33MOL    H6411648   0.322   4.381   2.365 -1.3263  0.0890 -0.0024
   33MOL    H6511649   0.287   4.078   2.336 -3.1617  1.0495 -0.9721
   33MOL    H6611650   0.269   4.170   2.190 -2.4337  1.2074  1.1028
   33MOL    H6711651   0.463   4.288   2.199 -0.0043 -0.2279 -1.3065
   33MOL    H6811652   0.452   4.124   2.059  1.5719 -1.2738 -1.8169
   33MOL    H6911653   0.500   3.995   2.169  1.4444 -0.4048 -0.4008
   33MOL    H7011654   0.612   4.122   2.121  0.9662  1.0202  3.4879
   33MOL    H7111655   0.550   4.291   2.428 -1.7456  0.2785 -0.6848
   33MOL    H7211656   0.655   4.192   2.333 -0.2653  0.8282 -0.9665
   33MOL    H7311657   0.541   4.117   2.447 -0.2029  1.5465  1.3113
   33MOL    C7411658   0.251   4.250   2.529 -0.7311 -0.3934 -0.4736
   33MOL    C7511659   0.259   4.369   2.636 -0.4723 -0.0926 -0.0157
   33MOL    C7611660   0.398   4.443   2.622 -0.3873  0.1738  0.0273
   33MOL    C7711661   0.399   4.578   2.695  0.1633  0.1622 -0.2727
   33MOL    C7811662   0.315   4.680   2.621  0.5335  0.2755  0.0797
   33MOL    C7911663   0.544   4.643   2.694  0.0079 -0.4828  0.3607
   33MOL    H8011664   0.314   4.167   2.560  0.2954  0.5495 -0.0279
   33MOL    H8111665   0.155   4.199   2.539 -0.2207 -1.5285 -1.2376
   33MOL    H8211666   0.180   4.440   2.611  0.4641  0.5064 -1.3556
   33MOL    H8311667   0.481   4.381   2.656 -0.3943  0.1765  0.0504
   33MOL    H8411668   0.426   4.467   2.520 -1.6972 -2.9541 -1.1246
   33MOL    H8511669   0.370   4.581   2.800  0.2439  2.3597 -0.2903
   33MOL    H8611670   0.337   4.780   2.659 -1.7912  1.1101 -0.6664
   33MOL    H8711671   0.209   4.663   2.640  0.8850 -0.3198  1.5672
   33MOL    H8811672   0.341   4.686   2.515 -0.2121  1.1612 -0.0545
   33MOL    H8911673   0.565   4.698   2.603 -0.8118 -2.3216 -0.9579
   33MOL    H9011674   0.547   4.718   2.773 -1.5149 -0.0967  0.0673
   33MOL    H9111675   0.611   4.556   2.700 -0.4675 -0.8282  0.7689
   33MOL    C9211676   0.237   4.316   2.780  0.7716 -0.5574  0.3370
   33MOL    C9311677   0.084   4.292   2.815 -0.7464 -0.6386 -0.2513
   33MOL    C9411678   0.065   4.192   2.933  0.1243 -0.0091  0.1792
   33MOL    C9511679   0.092   4.044   2.916 -0.1588  1.1526 -0.4837
   33MOL    C9611680   0.041   3.967   3.047 -0.5810 -0.0226  0.2551
   33MOL    C9711681   0.020   3.996   2.790 -0.1314  0.2053  0.8690
   33MOL    H9811682   0.283   4.218   2.792 -1.1230 -1.3201  1.7273
   33MOL    H9911683   0.291   4.379   2.850  1.5639 -1.6928  0.7626
   33MOL   H10011684   0.042   4.247   2.725 -0.3672  1.2531 -1.3928
   33MOL   H10111685   7.714   4.196   2.966 -0.3862 -0.8060 -1.2842
   33MOL   H10211686   0.112   4.235   3.022  2.0750  0.3519 -0.9917
   33MOL   H10311687   0.200   4.033   2.911  0.0672  1.6382  2.4341
   33MOL   H10411688   0.110   3.893   3.088 -0.3144 -0.2002 -0.5050
   33MOL   H10511689   7.700   3.917   3.024 -0.2984 -1.6857  2.6313
   33MOL   H10611690   0.023   4.040   3.126  2.7734 -1.1721  2.2112
   33MOL   H10711691   7.666   4.019   2.780 -0.4633 -0.7191  2.2068
   33MOL   H10811692   0.033   3.889   2.773 -0.7134  0.4643 -1.4148
   33MOL   H10911693   0.063   4.038   2.699  1.4508 -3.6606 -0.2855
   33MOL   C11011694   0.010   4.428   2.847  0.2868 -0.1113 -0.3719
   33MOL   C11111695   7.630   4.458   2.765  0.0650  0.2355  0.0901
   33MOL   C11211696   7.512   4.359   2.790  0.2292 -0.1627 -0.5403
   33MOL   C11311697   7.407   4.332   2.683 -0.8067  0.2725  0.6684
   33MOL   C11411698   7.288   4.242   2.725  0.6133 -0.2019 -0.6027
   33MOL   C11511699   7.471   4.270   2.562 -0.2515  0.0027  0.6822
   33MOL   H11611700   0.071   4.516   2.826  1.0764 -0.7238 -0.6795
   33MOL   H11711701   7.750   4.440   2.954  1.2882 -0.0781 -0.2560
   33MOL   H11811702   7.656   4.467   2.660 -2.6574 -0.5373 -0.6970
   33MOL   H11911703   7.465   4.382   2.886  0.9359  1.7059 -0.6284
   33MOL   H12011704   7.559   4.262   2.808 -1.5266 -0.7833  0.8447
   33MOL   H12111705   7.357   4.424   2.653  0.4973  0.5726 -0.6342
   33MOL   H12211706   7.203   4.239   2.658 -0.9612 -0.8143  1.3872
   33MOL   H12311707   7.242   4.261   2.822 -1.5467 -0.6453 -1.5148
   33MOL   H12411708   7.334   4.143   2.726 -3.0072 -1.9652 -1.3582
   33MOL   H12511709   7.529   4.178   2.574  2.4446  1.7998  2.0777
   33MOL   H12611710   7.543   4.339   2.519  0.2811 -0.6585  0.4982
   33MOL   H12711711   7.408   4.259   2.474 -2.3134  2.2029  1.8232
   33MOL   C12811712   7.572   4.596   2.787 -0.2023  0.0259 -0.0236
   33MOL   C12911713   7.657   4.716   2.721  0.3467  0.4480 -0.0608
   33MOL   C13011714   7.661   4.853   2.791 -0.1481 -0.3666 -0.4673
   33MOL   C13111715   7.709   4.853   2.942 -0.4856 -0.0877 -0.1080
   33MOL   C13211716   0.112   4.849   2.951  0.2984  0.1488 -0.1447
   33MOL   C13311717   7.663   4.982   3.010 -0.1848 -0.3021 -0.6035
   33MOL   H13411718   7.571   4.600   2.896  1.1489 -1.9626  0.0679
   33MOL   H13511719   7.469   4.605   2.752 -0.7066  1.4854  1.7047
   33MOL   H13611720   0.008   4.681   2.731 -0.2612 -1.5068 -0.3217
   33MOL   H13711721   7.732   4.920   2.743  0.3496 -0.0937  0.6299
   33MOL   H13811722   7.568   4.910   2.795  0.6659  1.1763 -2.6301
   33MOL   H13911723   7.663   4.767   2.990  1.0241 -1.5499 -1.2310
   33MOL   H14011724   0.159   4.923   2.886  1.2994 -1.5707 -1.4184
   33MOL   H14111725   0.156   4.764   2.900  0.9922 -0.4381  1.4477
   33MOL   H14211726   0.143   4.867   3.053 -1.2104 -3.3635  1.0017
   33MOL   H14311727   7.698   4.980   3.113 -1.5009  2.8042 -0.0168
   33MOL   H14411728   7.696   5.075   2.961  0.8232 -1.0021 -1.2814
   33MOL   H14511729   7.554   4.987   3.013 -0.1051  1.7360  0.1794
   33MOL   C14611730   7.642   4.728   2.562  0.4347 -0.0417  0.2371
   33MOL   C14711731   7.497   4.725   2.504 -0.5247  0.7291 -0.0338
   33MOL   C14811732   7.495   4.717   2.352 -0.4957 -0.3736  0.2640
   33MOL   C14911733   7.363   4.657   2.285 -0.4635 -0.3416 -0.5005
   33MOL   C15011734   7.373   4.670   2.133 -0.5799 -0.1414  0.5916
   33MOL   C15111735   7.326   4.510   2.322  0.3908 -0.0210  0.1763
   33MOL   H15211736   7.685   4.640   2.515 -1.7834 -0.8659 -0.3112
   33MOL   H15311737   7.691   4.819   2.526  1.0663 -0.3549  0.3044
   33MOL   H15411738   7.470   4.624   2.534 -0.8144  0.5496 -0.8699
   33MOL   H15511739   7.510   4.815   2.308 -0.6296  0.2185  1.4917
   33MOL   H15611740   7.574   4.651   2.317 -0.0138 -0.6183  1.7750
   33MOL   H15711741   7.284   4.721   2.325  1.3794  1.2110  0.7288
   33MOL   H15811742   7.412   4.765   2.098  0.3907 -0.3420  1.0904
   33MOL   H15911743   7.279   4.651   2.083  0.3883 -0.1112 -1.2927
   33MOL   H16011744   7.439   4.592   2.094  0.1413 -0.0999  1.6993
   33MOL   H16111745   7.336   4.494   2.429  0.0534 -2.5464 -0.1335
   33MOL   H16211746   7.403   4.449   2.275 -0.5524 -0.6251 -0.6209
   33MOL   H16311747   7.231   4.473   2.281  0.5052  1.1513 -1.1989
   33MOL   C16411748   7.384   4.816   2.564 -0.0303  0.4167 -0.1402
   33MOL   C16511749   7.358   4.961   2.507  1.0498  0.3372  0.2020
   33MOL   C16611750   7.232   5.034   2.556 -0.3139  0.1420  0.3917
   33MOL   C16711751   7.101   5.001   2.479 -0.0555  0.2043 -0.2418
   33MOL   C16811752   6.981   5.041   2.569 -0.3293  0.4177 -0.2296
   33MOL   C16911753   7.089   5.044   2.337 -0.0331  0.5860  0.4103
   33MOL   H17011754   7.294   4.760   2.538  0.9434 -0.6247 -1.3539
   33MOL   H17111755   7.385   4.816   2.673 -1.4143  0.4451 -0.1194
   33MOL   H17211756   7.351   4.942   2.399  1.6855 -1.1823  0.4087
   33MOL   H17311757   7.229   5.024   2.664  1.0263 -0.2074  0.4018
   33MOL   H17411758   7.252   5.139   2.535  0.9525 -0.2854 -0.5927
   33MOL   H17511759   7.090   4.892   2.479 -0.4915  0.2437 -1.1305
   33MOL   H17611760   6.887   5.003   2.528  0.1826 -3.5773  2.0763
   33MOL   H17711761   6.982   5.150   2.571  1.8805  0.3875  1.0854
   33MOL   H17811762   6.987   5.012   2.674 -0.9310  1.4883  0.1114
   33MOL   H17911763   7.096   5.152   2.324  0.8739  0.7338  2.0869
   33MOL   H18011764   7.003   5.005   2.282  0.3777  0.2613 -0.0046
   33MOL   H18111765   7.176   5.019   2.275 -0.8031 -0.5318 -0.2457
   33MOL   C18211766   7.482   5.054   2.524  0.7850 -0.5244  0.2319
   33MOL   C18311767   7.495   5.203   2.462 -0.2999  0.1926  0.1458
   33MOL   C18411768   7.647   5.252   2.456  0.4498  0.4061 -0.3262
   33MOL   C18511769   7.738   5.222   2.580  0.2843  0.6694 -0.5152
   33MOL   C18611770   0.134   5.279   2.550  0.1517  0.4162  0.7340
   33MOL   C18711771   7.677   5.268   2.712 -0.1052 -0.1466 -0.3922
   33MOL   H18811772   7.560   4.988   2.487 -1.6007 -3.0038 -0.5481
   33MOL   H18911773   7.510   5.058   2.629  1.4754  0.5060  0.0127
   33MOL   H19011774   7.449   5.270   2.534 -0.7264 -0.8393  0.8624
   33MOL   H19111775   7.623   5.357   2.442 -1.4504 -0.1668 -1.4816
   33MOL   H19211776   7.693   5.222   2.362 -1.7435  1.7629 -1.8595
   33MOL   H19311777   0.010   5.116   2.583 -0.9839  0.4033  0.7748
   33MOL   H19411778   0.147   5.384   2.526  1.7488 -0.2952 -1.6200
   33MOL   H19511779   0.200   5.221   2.485 -0.0586 -0.3307  1.1738
   33MOL   H19611780   0.187   5.279   2.645 -0.2741  1.3434  0.9823
   33MOL   H19711781   7.581   5.224   2.740  0.5560 -0.6652  1.0988
   33MOL   H19811782   7.642   5.369   2.691 -0.7064 -0.5390 -1.3137
   33MOL   H19911783   7.741   5.254   2.799 -1.2425  2.3707  0.9032
   33MOL   C20011784   7.434   5.228   2.320  0.3951  0.3587  0.3387
   33MOL   C20111785   7.404   5.374   2.274  0.2222  0.6077 -0.4608
   33MOL   C20211786   7.254   5.408   2.256  0.4697  0.3580 -0.6221
   33MOL   C20311787   7.184   5.425   2.397 -0.8727 -0.3544  0.6606
   33MOL   C20411788   7.228   5.553   2.469 -0.7926 -0.5254  0.5312
   33MOL   C20511789   7.036   5.425   2.362  0.3097  0.1928  0.0810
   33MOL   H20611790   7.335   5.183   2.311  0.6357 -0.4273  1.5514
   33MOL   H20711791   7.477   5.165   2.242  1.9608  0.8638  0.7801
   33MOL   H20811792   7.450   5.449   2.338  1.6454 -1.1819  0.6597
   33MOL   H20911793   7.247   5.504   2.206  0.7394  0.2733 -0.8267
   33MOL   H21011794   7.204   5.332   2.196  1.7578 -1.1576  0.1641
   33MOL   H21111795   7.235   5.347   2.454 -1.5869 -0.6232  0.9487
   33MOL   H21211796   7.219   5.642   2.405  2.4139 -0.8956 -0.5439
   33MOL   H21311797   7.331   5.541   2.503 -0.9839 -1.1669  0.8867
   33MOL   H21411798   7.170   5.570   2.560  0.2708  0.8547  0.9734
   33MOL   H21511799   7.016   5.351   2.285  0.0933  0.1213  0.2037
   33MOL   H21611800   7.006   5.517   2.312 -1.6991  0.9741  2.5667
   33MOL   H21711801   6.984   5.419   2.458  1.9590  1.3556  1.0703
   33MOL   C21811802   7.476   5.396   2.139  0.2360  0.3961 -0.2800
   33MOL   C21911803   7.529   5.534   2.111 -0.1816 -0.5651  0.1913
   33MOL   C22011804   7.556   5.555   1.957  0.4270  0.4289  0.2364
   33MOL   C22111805   7.437   5.560   1.856 -0.4572  0.3147  0.6580
   33MOL   C22211806   7.363   5.690   1.880 -0.0632 -0.0898  0.7919
   33MOL   C22311807   7.465   5.529   1.706 -0.6113 -0.3095  0.8813
   33MOL   H22411808   7.562   5.330   2.126 -0.1662 -0.4238  1.1256
   33MOL   H22511809   7.401   5.371   2.064  1.5104 -0.3936 -1.3318
   33MOL   H22611810   7.453   5.605   2.143  1.1730  1.3113 -0.6856
   33MOL   H22711811   7.616   5.646   1.951 -1.8959  1.8609 -2.5132
   33MOL   H22811812   7.622   5.471   1.934 -1.0763 -0.3659 -1.2602
   33MOL   H22911813   7.368   5.480   1.882  0.0073 -0.7526 -1.3610
   33MOL   H23011814   7.290   5.693   1.799  1.1534 -0.7751 -0.3483
   33MOL   H23111815   7.315   5.699   1.977 -2.5873  1.9657 -0.5966
   33MOL   H23211816   7.437   5.767   1.858  2.5959 -2.8693 -0.2915
   33MOL   H23311817   7.536   5.598   1.659 -1.6529 -0.9507 -1.7379
   33MOL   H23411818   7.503   5.427   1.701 -0.1082 -0.0517 -0.9642
   33MOL   H23511819   7.372   5.537   1.650  0.1425  1.2966 -0.1829
   33MOL   C23611820   7.657   5.549   2.195  0.6764  0.3601 -0.2265
   33MOL   C23711821   7.719   5.695   2.202 -1.0051  0.3926 -0.3558
   33MOL   C23811822   0.113   5.684   2.256 -0.3263 -0.3917  0.0944
   33MOL   C23911823   0.218   5.614   2.165  0.0969  0.4253  0.5338
   33MOL   C24011824   0.219   5.663   2.016 -0.1501  0.2445  0.8756
   33MOL   C24111825   0.355   5.629   2.233  0.4711 -0.1375 -0.1808
   33MOL   H24211826   7.730   5.469   2.182 -2.4397 -2.7642  0.8158
   33MOL   H24311827   7.643   5.527   2.300  0.8965  1.5638  0.0657
   33MOL   H24411828   7.721   5.738   2.102 -1.6518 -2.9533 -1.8917
   33MOL   H24511829   0.115   5.634   2.353  0.7845 -0.8870 -0.1748
   33MOL   H24611830   0.143   5.788   2.270  0.1806 -0.6540  1.0405
   33MOL   H24711831   0.206   5.506   2.175 -2.8310  0.9236  3.2973
   33MOL   H24811832   0.204   5.770   2.014  0.1677  0.2690 -1.8180
   33MOL   H24911833   0.125   5.626   1.976 -0.3852 -0.5616  2.1140
   33MOL   H25011834   0.299   5.624   1.953 -0.6472 -0.6548  0.7817
   33MOL   H25111835   0.359   5.582   2.332 -1.0728  0.4481  0.1702
   33MOL   H25211836   0.398   5.728   2.243  0.9725 -0.2375 -1.2621
   33MOL   H25311837   0.430   5.575   2.176  1.1203  0.9968 -0.4154
   33MOL   C25411838   7.635   5.793   2.293 -0.1143 -0.6463  0.4033
   33MOL   C25511839   7.528   5.883   2.216  0.3398  0.4127 -0.3788
   33MOL   C25611840   7.403   5.905   2.312 -0.2304 -0.2620 -0.6528
   33MOL   C25711841   7.269   5.964   2.255 -0.3838 -0.0858 -0.7901
   33MOL   C25811842   7.164   5.988   2.371  0.4878  0.9312 -0.5347
   33MOL   C25911843   7.204   5.878   2.144  0.7758  0.1190 -0.2094
   33MOL   H26011844   7.581   5.743   2.374 -4.9626  2.4309 -0.7263
   33MOL   H26111845   7.699   5.848   2.363 -1.3162  1.1453  0.1446
   33MOL   H26211846   7.485   5.837   2.127  1.1513 -0.6054 -0.2514
   33MOL   H26311847   7.429   5.958   2.404 -0.6506  0.7985 -1.1397
   33MOL   H26411848   7.377   5.804   2.346  0.3652 -0.0354  0.5064
   33MOL   H26511849   7.293   6.064   2.219  1.0365  0.7260  2.1860
   33MOL   H26611850   7.130   5.893   2.412  0.9821  0.1009 -2.0099
   33MOL   H26711851   7.088   6.056   2.334  1.2212  0.9295 -2.1017
   33MOL   H26811852   7.210   6.033   2.459  1.2499 -0.0456 -0.4212
   33MOL   H26911853   7.109   5.927   2.123  0.7598 -0.0789 -0.6001
   33MOL   H27011854   7.259   5.872   2.051 -0.0428 -0.9754 -0.6408
   33MOL   H27111855   7.186   5.779   2.187  0.4259  0.5210  0.5848
   33MOL   C27211856   7.587   6.026   2.187 -0.5748  0.7516 -0.5543
   33MOL   C27311857   7.695   6.043   2.072  0.0028 -0.0054  0.4001
   33MOL   C27411858   7.634   5.988   1.938  0.4834  0.2604  0.3687
   33MOL   C27511859   7.694   6.013   1.800 -0.4074  0.3917 -0.3120
   33MOL   C27611860   7.611   5.956   1.685  0.4069 -0.4215 -0.1739
   33MOL   C27711861   0.088   5.959   1.786 -0.4629  0.0385  0.3334
   33MOL   H27811862   7.513   6.101   2.157 -0.3681  1.9405  1.8451
   33MOL   H27911863   7.641   6.059   2.275 -1.3788 -0.6488  0.4748
   33MOL   H28011864   0.018   5.967   2.092  0.1601  0.4249  1.4367
   33MOL   H28111865   7.530   6.018   1.926  0.5565  0.1453 -0.5442
   33MOL   H28211866   7.627   5.880   1.948  1.4338  0.2727  1.1495
   33MOL   H28311867   7.698   6.121   1.782 -1.8629  0.7260  1.2020
   33MOL   H28411868   7.601   5.848   1.687 -0.5923 -0.3498 -0.9463
   33MOL   H28511869   7.517   6.011   1.675  0.5826 -0.0283  0.3141
   33MOL   H28611870   7.662   5.964   1.588  1.1235 -0.2138  0.2144
   33MOL   H28711871   0.073   5.853   1.768 -0.8112  0.6389 -3.1189
   33MOL   H28811872   0.139   5.998   1.698 -1.0910  0.5535  0.1920
   33MOL   H28911873   0.152   5.976   1.873 -1.5837  0.2581  1.1349
   33MOL   C29011874   7.750   6.187   2.063 -0.7102 -0.1338  0.8456
   33MOL   C29111875   0.095   6.229   2.173 -0.0420  0.3837 -0.5388
   33MOL   C29211876   0.212   6.126   2.207  0.3168  0.1583  0.3085
   33MOL   C29311877   0.290   6.148   2.346 -1.1486 -0.3978  0.3468
   33MOL   C29411878   0.201   6.089   2.457  0.0242 -0.0922  0.2578
   33MOL   C29511879   0.434   6.097   2.354 -1.2156  0.0399  0.2576
   33MOL   H29611880   0.053   6.212   1.972 -0.0993 -1.6605  0.7872
   33MOL   H29711881   7.663   6.253   2.060 -0.9758 -0.5202 -0.3503
   33MOL   H29811882   0.045   6.248   2.267  2.2415  0.8449  0.6297
   33MOL   H29911883   0.279   6.114   2.122 -1.2257 -0.6197 -0.8197
   33MOL   H30011884   0.164   6.030   2.229  0.0842  0.5551  1.6245
   33MOL   H30111885   0.308   6.252   2.371  1.4144 -1.0306  1.2687
   33MOL   H30211886   0.105   6.139   2.461  0.7319  1.4736 -1.5454
   33MOL   H30311887   0.259   6.092   2.550  1.5324 -0.4697 -0.6439
   33MOL   H30411888   0.182   5.983   2.439  0.1605  0.1039 -1.0733
   33MOL   H30511889   0.453   5.994   2.322 -0.6620 -0.0699  0.9224
   33MOL   H30611890   0.468   6.092   2.458 -1.2556 -0.0461  0.2677
   33MOL   H30711891   0.497   6.166   2.300  0.8348 -1.9072  0.0738
   33MOL   C30811892   0.163   6.366   2.150  0.3248  0.0573  0.3258
   33MOL   C30911893   0.071   6.485   2.164 -0.6989  0.1971  0.2771
   33MOL   C31011894   0.139   6.607   2.237  0.1148 -0.9825  0.2081
   33MOL   C31111895   0.180   6.587   2.386  0.7444 -0.1926 -0.3012
   33MOL   C31211896   0.221   6.730   2.436  0.0614  0.1092 -0.5656
   33MOL   C31311897   0.071   6.540   2.483  0.0601 -0.0269 -0.0140
   33MOL   H31411898   0.244   6.390   2.219  0.6952 -1.0893  0.3043
   33MOL   H31511899   0.213   6.365   2.053  1.4186  1.8321  0.8468
   33MOL   H31611900   7.736   6.462   2.226 -0.4067  1.1640  1.0502
   33MOL   H31711901   0.076   6.695   2.232 -1.2530 -1.7036  3.4394
   33MOL   H31811902   0.227   6.635   2.179 -0.0307 -2.8881 -0.9563
   33MOL   H31911903   0.269   6.525   2.395  0.9502 -0.1552 -1.8632
   33MOL   H32011904   0.306   6.781   2.392  0.3637  0.4700  0.4170
   33MOL   H32111905   0.255   6.717   2.539  2.1133  3.3869 -0.7530
   33MOL   H32211906   0.128   6.786   2.430  0.0182  0.4617  2.4403
   33MOL   H32311907   0.096   6.568   2.586 -0.2056  0.1537  0.0025
   33MOL   H32411908   7.729   6.591   2.465 -1.2496 -2.4251 -0.1813
   33MOL   H32511909   0.057   6.432   2.476 -3.1239  0.3914 -0.4425
   33MOL   C32611910   0.022   6.521   2.017  0.0433  1.0015 -0.3628
   33MOL   C32711911   7.657   6.617   1.994 -0.1808  0.0097  0.1623
   33MOL   C32811912   7.526   6.555   2.044 -0.1759 -0.2417  0.2508
   33MOL   C32911913   7.397   6.654   2.051  0.0154 -0.3872 -0.3037
   33MOL   C33011914   7.269   6.565   2.069 -0.9087 -0.3487  0.2411
   33MOL   C33111915   7.397   6.752   2.164  0.6807  0.3702 -0.2701
   33MOL   H33211916   7.748   6.434   1.958  0.2699  0.8631 -0.2645
   33MOL   H33311917   0.105   6.563   1.960 -1.1707  1.2222 -1.9676
   33MOL   H33411918   7.675   6.705   2.056  1.6083 -0.5613  0.4924
   33MOL   H33511919   7.508   6.477   1.970 -1.5211 -0.4744  0.8227
   33MOL   H33611920   7.538   6.491   2.132 -1.8344 -1.0591 -0.1038
   33MOL   H33711921   7.392   6.705   1.955  0.3394 -2.5240 -1.5035
   33MOL   H33811922   7.181   6.627   2.050  0.0810  1.0653  0.1862
   33MOL   H33911923   7.263   6.532   2.172  1.6301  1.3940  0.9756
   33MOL   H34011924   7.273   6.475   2.007  0.9900  0.3293 -0.6648
   33MOL   H34111925   7.307   6.812   2.156 -0.2073 -0.8729  0.1256
   33MOL   H34211926   7.403   6.707   2.263  1.3345  1.5944  0.2635
   33MOL   H34311927   7.472   6.831   2.157  0.4721  0.8112  2.1224
   33MOL   C34411928   7.661   6.688   1.854  0.0059  0.2697 -0.5389
   33MOL   C34511929   0.029   6.783   1.825  0.6433  0.0154 -0.6331
   33MOL   C34611930   0.060   6.787   1.681 -0.0196 -0.1000  0.4241
   33MOL   C34711931   0.160   6.900   1.647 -0.5585  0.4305  0.5095
   33MOL   C34811932   0.142   6.959   1.503  0.0685  0.6083 -0.0246
   33MOL   C34911933   0.305   6.878   1.702 -0.1377 -0.0394  0.2281
   33MOL   H35011934   7.569   6.745   1.841  0.8385  1.3197 -1.9631
   33MOL   H35111935   7.675   6.612   1.777  3.1163 -0.6831  0.8778
   33MOL   H35211936   0.117   6.750   1.880 -0.3840 -1.4333  0.1699
   33MOL   H35311937   0.102   6.696   1.640 -0.0916 -0.6508  1.5637
   33MOL   H35411938   7.721   6.804   1.624  0.0547 -1.5081 -0.1217
   33MOL   H35511939   0.128   6.989   1.702 -1.2592 -0.8027  2.1124
   33MOL   H35611940   0.229   7.024   1.490 -0.1156  0.7891 -0.3437
   33MOL   H35711941   0.141   6.890   1.419  0.1966  0.2202  0.2903
   33MOL   H35811942   0.057   7.026   1.497 -0.8260 -0.5606 -0.6390
   33MOL   H35911943   0.362   6.968   1.678 -0.9975 -0.0461 -1.9619
   33MOL   H36011944   0.354   6.791   1.656 -0.5584  0.8339 -1.9268
   33MOL   H36111945   0.302   6.859   1.809 -1.4836  0.9127  0.3580
   33MOL   H36211946   0.008   6.880   1.869  2.1511 -0.5763  1.4672
   34MOL     C111947   2.264   5.485   5.811  0.0668  0.1065 -0.2257
   34MOL     C211948   2.233   5.498   5.964  0.2744 -0.4723  0.1668
   34MOL     C311949   2.091   5.549   5.993 -0.6015  0.2397  0.7261
   34MOL     C411950   1.983   5.449   5.953 -0.2992 -0.5375  0.1782
   34MOL     C511951   1.845   5.514   5.957  0.1129 -0.0838 -0.1456
   34MOL     C611952   1.985   5.319   6.039 -0.7324  0.7437 -0.0194
   34MOL     H711953   2.184   5.424   5.770 -0.3083  1.0854 -0.9578
   34MOL     H811954   2.270   5.582   5.762 -1.2207 -0.2257 -1.0685
   34MOL     H911955   2.250   5.400   6.007 -0.2694 -0.4590  0.4197
   34MOL    H1011956   2.078   5.579   6.097  0.0720 -0.0907  0.9093
   34MOL    H1111957   2.073   5.642   5.939  1.6738  0.5322  0.4322
   34MOL    H1211958   1.999   5.418   5.849 -1.6706 -0.4720 -0.0669
   34MOL    H1311959   1.809   5.565   6.047 -0.0552 -1.0444  0.3462
   34MOL    H1411960   1.844   5.593   5.883  3.9938  0.3717  0.1910
   34MOL    H1511961   1.771   5.438   5.931  1.0102 -1.4059  1.0618
   34MOL    H1611962   1.988   5.347   6.144  0.9996 -1.1551  0.4781
   34MOL    H1711963   2.076   5.262   6.018 -1.4293 -0.6289  0.6559
   34MOL    H1811964   1.908   5.247   6.015  0.6789 -0.8031 -0.0309
   34MOL    H1911965   2.360   5.432   5.810  0.2275  0.3576  1.2165
   34MOL    C2011966   2.350   5.593   6.014  0.5977 -0.0057  0.3446
   34MOL    C2111967   2.346   5.642   6.159 -0.2646  0.0268 -1.0429
   34MOL    C2211968   2.363   5.524   6.253  0.5123 -0.3527  0.0134
   34MOL    C2311969   2.321   5.543   6.401 -0.4401  0.9318 -0.5857
   34MOL    C2411970   2.175   5.511   6.418  0.0552 -0.3814 -0.2939
   34MOL    C2511971   2.392   5.449   6.502 -0.0783 -0.2566  0.6710
   34MOL    H2611972   2.440   5.537   5.992  2.5524  2.3014  2.2361
   34MOL    H2711973   2.354   5.680   5.949  0.1500  1.7695  2.6207
   34MOL    H2811974   2.253   5.692   6.184  0.1595 -0.3472  1.4532
   34MOL    H2911975   2.470   5.503   6.250  0.4198 -0.6875 -3.5195
   34MOL    H3011976   2.294   5.453   6.208 -2.1148  1.8774  0.4056
   34MOL    H3111977   2.342   5.642   6.442 -1.4108  1.7160 -1.9540
   34MOL    H3211978   2.152   5.497   6.523 -0.8371 -0.4919 -0.4915
   34MOL    H3311979   2.151   5.414   6.373 -1.9125 -1.1443  2.2519
   34MOL    H3411980   2.109   5.583   6.368 -3.9201 -3.6823 -0.0634
   34MOL    H3511981   2.369   5.472   6.606  0.9135 -1.1155  1.0947
   34MOL    H3611982   2.360   5.346   6.490  0.1214 -0.2582  0.1482
   34MOL    H3711983   2.499   5.450   6.481  0.0439 -0.3843  1.2574
   34MOL    C3811984   2.471   5.733   6.185  0.0195  0.4054 -0.7969
   34MOL    C3911985   2.449   5.876   6.132 -0.0061  0.1021  0.4100
   34MOL    C4011986   2.566   5.915   6.036  0.8276 -0.2014  0.2568
   34MOL    C4111987   2.541   6.040   5.935 -0.6149 -0.3435  0.2048
   34MOL    C4211988   2.439   6.010   5.822 -0.5154 -0.3834 -0.4757
   34MOL    C4311989   2.678   6.075   5.874 -0.1927  0.4769 -0.1241
   34MOL    H4411990   2.566   5.699   6.143  0.2572  1.8417 -1.4307
   34MOL    H4511991   2.502   5.744   6.289 -1.3096  4.2615 -0.7472
   34MOL    H4611992   2.356   5.870   6.075  0.7628 -3.0753 -0.6048
   34MOL    H4711993   2.601   5.826   5.985  1.2418 -0.2784  0.6688
   34MOL    H4811994   2.653   5.938   6.099  0.5201 -1.2696  1.0786
   34MOL    H4911995   2.500   6.119   5.999 -0.2435  0.0790 -0.0761
   34MOL    H5011996   2.475   5.926   5.762 -0.0948 -0.0582 -0.6874
   34MOL    H5111997   2.338   5.987   5.857 -0.4562 -0.2593 -0.2190
   34MOL    H5211998   2.435   6.092   5.750 -2.1784  1.1178  1.2723
   34MOL    H5311999   2.749   6.096   5.954  2.8901  1.1251 -2.9246
   34MOL    H5412000   2.680   6.166   5.815 -1.4700  1.3903  1.2291
   34MOL    H5512001   2.727   5.995   5.816  1.1741  1.2806 -0.0988
   34MOL    C5612002   2.418   5.972   6.250 -0.0296 -0.3085  0.5617
   34MOL    C5712003   2.275   5.973   6.301 -0.0869 -0.2067  0.1340
   34MOL    C5812004   2.163   6.010   6.201 -1.0297  0.1682  0.1683
   34MOL    C5912005   2.010   5.990   6.238 -0.7615 -0.4214  0.3745
   34MOL    C6012006   1.975   5.841   6.245 -0.1103 -0.3260 -0.1858
   34MOL    C6112007   1.924   6.062   6.141  0.1626  0.7399 -0.2235
   34MOL    H6212008   2.449   6.069   6.211  1.3110 -0.7109  0.5744
   34MOL    H6312009   2.485   5.945   6.332 -1.0738  1.7114  2.1120
   34MOL    H6412010   2.244   5.872   6.331  1.2764 -0.0937  2.0247
   34MOL    H6512011   2.168   6.110   6.158 -2.5570  1.0563  1.9922
   34MOL    H6612012   2.165   5.940   6.118 -1.4341  1.2586 -0.7599
   34MOL    H6712013   1.986   6.029   6.337 -1.4425 -0.3385  0.1828
   34MOL    H6812014   1.874   5.808   6.270 -0.7440  2.1482  0.7088
   34MOL    H6912015   2.043   5.792   6.315 -1.5567  1.6316  2.6983
   34MOL    H7012016   1.996   5.804   6.145 -0.2108 -0.5227 -0.1349
   34MOL    H7112017   1.821   6.030   6.158  0.6794  0.1091  1.8223
   34MOL    H7212018   1.934   6.040   6.035  0.6434 -2.2817  0.4085
   34MOL    H7312019   1.922   6.170   6.157 -1.8841  0.5194  1.2131
   34MOL    C7412020   2.267   6.055   6.432 -0.1939  0.0156  0.0781
   34MOL    C7512021   2.317   6.006   6.567  0.5070 -1.0047  1.3778
   34MOL    C7612022   2.231   5.894   6.632 -0.3731 -0.0747  0.1601
   34MOL    C7712023   2.086   5.929   6.670  0.2743 -0.2590 -0.2695
   34MOL    C7812024   2.065   5.955   6.826  0.6300 -0.1756  0.3422
   34MOL    C7912025   1.984   5.831   6.618  0.0923 -0.6727 -0.5708
   34MOL    H8012026   2.162   6.081   6.447 -0.8966 -3.0769  0.9286
   34MOL    H8112027   2.321   6.147   6.407 -0.9883  0.7532  1.0520
   34MOL    H8212028   2.419   5.968   6.567  0.1839 -1.9134  0.2466
   34MOL    H8312029   2.223   5.811   6.561 -1.2035 -0.1386  0.3189
   34MOL    H8412030   2.283   5.850   6.717  1.8809  1.1799 -0.5336
   34MOL    H8512031   2.065   6.022   6.618 -1.4856  0.7941  2.3006
   34MOL    H8612032   2.132   6.037   6.852  1.2731 -1.4148  2.6795
   34MOL    H8712033   2.087   5.872   6.893 -0.1641 -0.5643  0.1275
   34MOL    H8812034   1.961   5.986   6.840  0.6413 -0.0139  0.0768
   34MOL    H8912035   1.884   5.873   6.624 -0.4156 -1.9318 -0.0694
   34MOL    H9012036   2.005   5.792   6.518  2.0741 -0.4004 -0.2723
   34MOL    H9112037   1.978   5.752   6.692 -0.7533 -0.4207 -0.3700
   34MOL    C9212038   2.341   6.121   6.667 -0.4043 -0.1449  0.2114
   34MOL    C9312039   2.412   6.097   6.803 -0.3863  0.5786 -0.3813
   34MOL    C9412040   2.565   6.073   6.787  0.0465  0.4356  0.1219
   34MOL    C9512041   2.617   5.957   6.877 -0.7389 -1.0880 -0.5849
   34MOL    C9612042   2.597   5.821   6.816 -0.2154 -0.5318 -0.5217
   34MOL    C9712043   2.758   5.978   6.932  0.5861  0.2152 -0.1816
   34MOL    H9812044   2.407   6.181   6.606 -1.0332  1.2769  0.9100
   34MOL    H9912045   2.249   6.179   6.673  0.2935  0.9072  0.8530
   34MOL   H10012046   2.368   6.005   6.842 -0.6605  0.4864 -0.9025
   34MOL   H10112047   2.614   6.167   6.811  2.1026 -0.4299 -0.6105
   34MOL   H10212048   2.596   6.052   6.685 -0.7276  1.3943 -0.3234
   34MOL   H10312049   2.557   5.953   6.968  2.2636 -0.4335  1.4891
   34MOL   H10412050   2.622   5.736   6.880  2.7962  0.7569  0.0880
   34MOL   H10512051   2.666   5.818   6.732  1.3263  1.2312  0.6345
   34MOL   H10612052   2.498   5.804   6.775  0.9350 -0.5691 -3.4005
   34MOL   H10712053   2.750   6.078   6.975  1.8809  0.0368  0.5098
   34MOL   H10812054   2.840   5.969   6.860 -0.1433  0.6265 -1.0701
   34MOL   H10912055   2.778   5.912   7.016 -2.5743  0.3113  0.7186
   34MOL   C11012056   2.376   6.207   6.903 -0.0508 -0.1482  0.1801
   34MOL   C11112057   2.393   6.189   7.050 -0.0377  0.3839  0.1293
   34MOL   C11212058   2.387   6.326   7.123  0.2949  0.4700 -0.4603
   34MOL   C11312059   2.254   6.410   7.114  0.8200  0.1458  0.1310
   34MOL   C11412060   2.223   6.484   6.985  0.1361 -0.1518 -0.5891
   34MOL   C11512061   2.248   6.513   7.233 -0.2365  0.2065 -0.2842
   34MOL   H11612062   2.268   6.217   6.893 -0.1164  1.1913  1.9546
   34MOL   H11712063   2.420   6.297   6.862  0.7306 -1.3868 -1.7876
   34MOL   H11812064   2.493   6.151   7.072 -0.4048  0.5073  2.1349
   34MOL   H11912065   2.471   6.386   7.087 -1.1207  1.7552 -1.7405
   34MOL   H12012066   2.399   6.302   7.228 -1.5400 -4.6434 -1.2545
   34MOL   H12112067   2.166   6.350   7.135  0.6238 -0.2311 -1.7268
   34MOL   H12212068   2.313   6.534   6.948  0.2580  0.5876  0.7071
   34MOL   H12312069   2.144   6.559   6.989 -0.0507 -0.4271  1.1212
   34MOL   H12412070   2.200   6.416   6.903 -0.5145 -0.3354 -0.2506
   34MOL   H12512071   2.263   6.472   7.333  0.2950  0.4231 -0.2717
   34MOL   H12612072   2.150   6.560   7.236  0.5447  1.8178  0.2979
   34MOL   H12712073   2.322   6.590   7.209 -0.1703  0.3560  0.4037
   34MOL   C12812074   2.276   6.098   7.096  0.3206  0.1189 -0.4474
   34MOL   C12912075   2.276   6.047   7.249 -0.5046 -0.3732  0.0485
   34MOL   C13012076   2.396   5.940   7.271  0.5012 -0.4734  0.5374
   34MOL   C13112077   2.527   6.015   7.318 -0.2131  0.2238  0.5664
   34MOL   C13212078   2.519   6.060   7.466  0.0833 -0.3220  0.3537
   34MOL   C13312079   2.645   5.921   7.303  0.6897  0.2633  0.6833
   34MOL   H13412080   2.292   6.002   7.049 -0.7327 -1.3639  2.0960
   34MOL   H13512081   2.177   6.133   7.067 -0.8573 -0.5454  2.5504
   34MOL   H13612082   2.287   6.137   7.310 -3.9183  0.7698 -0.9106
   34MOL   H13712083   2.372   5.864   7.345 -2.8260  0.4927  0.5229
   34MOL   H13812084   2.409   5.898   7.171 -3.3185 -2.5817  0.7908
   34MOL   H13912085   2.549   6.100   7.254 -1.5434 -0.5417 -0.9240
   34MOL   H14012086   2.609   6.107   7.505  2.4200 -4.1821 -0.1443
   34MOL   H14112087   2.512   5.967   7.523 -1.5319 -0.4250  0.0300
   34MOL   H14212088   2.436   6.125   7.496 -0.9432 -2.7669  3.0231
   34MOL   H14312089   2.650   5.838   7.373 -1.4041 -1.5934 -1.2920
   34MOL   H14412090   2.665   5.873   7.207  1.3856  1.6897  0.0968
   34MOL   H14512091   2.732   5.985   7.315  0.5836  0.4533  0.4317
   34MOL   C14612092   2.135   5.985   7.272 -0.8763  0.0618 -0.3003
   34MOL   C14712093   2.049   6.042   7.386  0.4791  0.3256 -0.1557
   34MOL   C14812094   1.993   6.180   7.371  0.2046 -0.0632 -1.1583
   34MOL   C14912095   1.863   6.205   7.299  0.5829  0.5929  0.1736
   34MOL   C15012096   1.745   6.140   7.370 -0.3476  0.0757  0.2623
   34MOL   C15112097   1.824   6.350   7.265 -0.6162  0.1781  0.4388
   34MOL   H15212098   2.164   5.885   7.305 -0.2457  0.3798  0.1181
   34MOL   H15312099   2.083   5.985   7.176  0.5107  1.0150 -1.0705
   34MOL   H15412100   1.972   5.966   7.397  1.7909 -1.3964 -2.3879
   34MOL   H15512101   1.993   6.229   7.468 -0.3515  2.7520 -2.5210
   34MOL   H15612102   2.078   6.226   7.322  2.0637 -0.8346  1.2811
   34MOL   H15712103   1.883   6.158   7.203 -1.1957  1.3399 -0.5744
   34MOL   H15812104   1.726   6.187   7.467 -2.2283  0.7195 -0.3882
   34MOL   H15912105   1.756   6.033   7.383 -0.4584 -0.4371 -3.3975
   34MOL   H16012106   1.654   6.164   7.315 -1.0861  0.2256  1.5276
   34MOL   H16112107   1.821   6.417   7.351  1.1703  1.2831 -0.3150
   34MOL   H16212108   1.733   6.366   7.208  1.0150 -0.2943 -2.3597
   34MOL   H16312109   1.910   6.388   7.210 -2.7744  1.6098 -2.0486
   34MOL   C16412110   2.132   6.037   7.516  0.1633  0.2732 -0.5993
   34MOL   C16512111   2.072   6.038   7.657 -0.3779  0.6511  0.3902
   34MOL   C16612112   2.069   5.894   7.714  0.0072  0.1475  0.3455
   34MOL   C16712113   1.957   5.804   7.655  0.1143  0.3590 -0.3623
   34MOL   C16812114   1.962   5.666   7.725 -0.1518 -0.1323  0.1630
   34MOL   C16912115   1.820   5.861   7.657  0.4843 -0.0715  0.2245
   34MOL   H17012116   2.212   5.963   7.510  1.8277  2.0143 -0.2899
   34MOL   H17112117   2.197   6.122   7.499  1.1355 -0.6090 -1.3826
   34MOL   H17212118   1.972   6.080   7.641 -0.6807  0.6349  2.1918
   34MOL   H17312119   2.168   5.849   7.709 -0.4473 -0.8842  0.5446
   34MOL   H17412120   2.043   5.896   0.067 -0.3212 -0.7456  0.2863
   34MOL   H17512121   1.981   5.776   7.552  1.4442  0.5680 -0.1167
   34MOL   H17612122   1.929   5.671   0.077 -0.9504  0.7087 -0.1227
   34MOL   H17712123   2.058   5.616   7.715  0.6956  1.7547 -1.3837
   34MOL   H17812124   1.899   5.593   7.672 -2.1840  1.3350  0.4827
   34MOL   H17912125   1.789   5.893   0.004 -0.3278 -3.4078  1.0964
   34MOL   H18012126   1.751   5.780   7.634  1.8515 -1.1569 -0.1352
   34MOL   H18112127   1.800   5.944   7.589 -0.4424  0.0428  0.6332
   34MOL   C18212128   2.157   6.127   7.747 -0.2900  0.0668 -0.3767
   34MOL   C18312129   2.141   6.281   7.730  0.2260 -0.1506  0.3425
   34MOL   C18412130   1.997   6.338   7.734 -0.0119 -0.2870  0.2420
   34MOL   C18512131   1.899   6.323   0.101 -0.0275 -0.7226  0.4385
   34MOL   C18612132   1.798   6.436   0.098 -0.4117 -0.3033 -0.4788
   34MOL   C18712133   1.831   6.184   0.118 -0.0611  0.0415 -0.3074
   34MOL   H18812134   2.261   6.095   7.736 -0.5503 -1.6371  1.6399
   34MOL   H18912135   2.128   6.103   0.097 -1.1281 -2.0034 -1.0624
   34MOL   H19012136   2.174   6.296   7.627 -0.4083 -1.1522 -0.0167
   34MOL   H19112137   1.941   6.293   7.652  0.7137 -1.4696  0.3889
   34MOL   H19212138   2.007   6.441   7.699  2.2677  0.1860  2.1574
   34MOL   H19312139   1.955   6.322   0.195  2.3166 -0.8951 -0.9443
   34MOL   H19412140   1.846   6.531   0.120  0.9645 -0.8915 -0.8837
   34MOL   H19512141   1.717   6.419   0.169  0.9220  0.9619  1.4268
   34MOL   H19612142   1.759   6.446   7.749  0.4859  0.2703 -0.7747
   34MOL   H19712143   1.904   6.112   0.153  0.1788 -0.7555 -2.3606
   34MOL   H19812144   1.804   6.147   0.019 -0.2641  0.6640 -0.4882
   34MOL   H19912145   1.742   6.181   0.181 -0.4118 -0.3152 -0.8178
   34MOL   C20012146   2.232   6.360   0.079 -0.0269  0.0421 -0.4391
   34MOL   C20112147   2.380   6.333   0.076  0.1029 -0.1863  0.4616
   34MOL   C20212148   2.421   6.232   0.185  0.2070  0.3608  0.1408
   34MOL   C20312149   2.545   6.144   0.162 -0.5655  0.0664 -0.3326
   34MOL   C20412150   2.654   6.173   0.266  0.1021 -0.4294  0.2856
   34MOL   C20512151   2.504   5.994   0.178  0.0294  0.3959  0.3894
   34MOL   H20612152   2.183   6.347   0.175  0.8796  1.0923  0.1760
   34MOL   H20712153   2.226   6.467   0.057  0.9442  0.2813  0.4230
   34MOL   H20812154   2.404   6.292   7.731  0.5333  0.3425  0.3452
   34MOL   H20912155   2.431   6.285   0.280 -1.3891  1.7646 -0.4513
   34MOL   H21012156   2.337   6.167   0.206  1.8103 -0.7695  3.4828
   34MOL   H21112157   2.581   6.169   0.062  1.3372  0.9063  0.5497
   34MOL   H21212158   2.678   6.278   0.280  0.7367  0.2085 -4.7614
   34MOL   H21312159   2.741   6.112   0.242  0.8001  0.7167 -0.1378
   34MOL   H21412160   2.624   6.159   0.370  0.2068 -1.3521  0.1973
   34MOL   H21512161   2.597   5.940   0.167 -0.2314  0.3035 -1.7144
   34MOL   H21612162   2.439   5.959   0.098  0.4549 -0.8077  0.5709
   34MOL   H21712163   2.456   5.966   0.271  0.1279  2.2537  1.0157
   34MOL   C21812164   2.468   6.463   0.089 -0.3996  0.5707  0.3787
   34MOL   C21912165   2.519   6.524   7.704 -0.0702 -0.2615 -0.4281
   34MOL   C22012166   2.631   6.441   7.633  0.0355  0.6001  0.4116
   34MOL   C22112167   2.700   6.495   7.507  0.1740 -0.0848  0.4405
   34MOL   C22212168   2.790   6.383   7.458 -0.0585 -0.2169 -0.2203
   34MOL   C22312169   2.612   6.551   7.396 -0.2405  0.0676 -0.2238
   34MOL   H22412170   2.401   6.519   0.155 -3.3566 -1.1968 -1.0349
   34MOL   H22512171   2.552   6.445   0.157 -0.4049 -0.3308  0.1466
   34MOL   H22612172   2.440   6.537   7.630  0.0908  0.9919 -0.3813
   34MOL   H22712173   2.716   6.425   7.699  1.0270 -2.0900 -1.4402
   34MOL   H22812174   2.593   6.341   7.611  0.6688  0.2470  0.9231
   34MOL   H22912175   2.766   6.573   7.544  2.3652 -1.8595  0.3775
   34MOL   H23012176   2.735   6.293   7.431  2.1876 -1.2132 -1.5565
   34MOL   H23112177   2.838   6.414   7.366 -0.1756 -0.3466 -0.3257
   34MOL   H23212178   2.855   6.345   7.537 -0.2004 -0.2844 -0.1341
   34MOL   H23312179   2.554   6.632   7.441 -0.8972 -0.7836  0.4753
   34MOL   H23412180   2.662   6.603   7.314 -1.5080  0.5523 -0.7010
   34MOL   H23512181   2.549   6.470   7.360  1.9911 -2.2055  0.8125
   34MOL   C23612182   2.579   6.664   7.740  0.1216  0.2310 -0.2471
   34MOL   C23712183   2.475   6.785   0.026 -0.0889 -0.4665  0.4645
   34MOL   C23812184   2.385   6.818   7.662 -0.2790 -0.3323  0.0466
   34MOL   C23912185   2.245   6.763   7.674  0.1010  0.0218  1.1151
   34MOL   C24012186   2.163   6.813   0.048 -0.2915  0.9337  0.5039
   34MOL   C24112187   2.164   6.781   7.540 -0.0215 -0.0477 -0.2271
   34MOL   H24212188   2.637   6.711   7.661  0.9640  0.7151  0.6468
   34MOL   H24312189   2.655   6.654   0.066 -0.4630  0.5439  0.3651
   34MOL   H24412190   2.407   6.751   0.104 -2.1405 -0.9027 -1.4613
   34MOL   H24512191   2.427   6.793   7.565  0.8857 -1.0249  0.7188
   34MOL   H24612192   2.381   6.927   7.654  1.5313 -0.3057 -0.7224
   34MOL   H24712193   2.242   6.654   7.686  2.5301 -0.0379  1.4864
   34MOL   H24812194   2.222   6.803   0.139  1.8283  0.5771 -0.8497
   34MOL   H24912195   2.075   6.750   0.061 -1.1456  1.8407 -0.7450
   34MOL   H25012196   2.133   6.917   0.031  0.3022  0.7311 -2.0314
   34MOL   H25112197   2.067   6.731   7.539 -1.8422  3.3119 -0.9174
   34MOL   H25212198   2.220   6.771   7.447 -0.3057  0.0460 -0.4090
   34MOL   H25312199   2.131   6.885   7.546  0.9975  0.3634 -1.5526
   34MOL   C25412200   2.558   6.905   0.076  1.1428 -0.1335 -0.2603
   34MOL   C25512201   2.484   7.026   0.139  0.1982  0.2197 -0.3645
   34MOL   C25612202   2.486   7.030   0.294 -0.0842 -0.0691 -0.8378
   34MOL   C25712203   2.364   6.979   0.366 -0.4746 -0.0068  0.4710
   34MOL   C25812204   2.241   7.065   0.331 -0.4509 -0.8598  0.2151
   34MOL   C25912205   2.384   6.984   0.517  0.6309 -0.3584 -0.0006
   34MOL   H26012206   2.631   6.871   0.149  0.6592 -0.1640  0.2132
   34MOL   H26112207   2.617   6.935   7.742 -0.5027  4.9561  0.2035
   34MOL   H26212208   2.379   7.011   0.113  0.5891 -2.2382 -0.6493
   34MOL   H26312209   2.506   7.127   0.338 -1.1193  0.6673 -1.9556
   34MOL   H26412210   2.581   6.986   0.328 -0.1942  0.0029 -0.4347
   34MOL   H26512211   2.354   6.873   0.341  3.4135 -0.6983  1.5655
   34MOL   H26612212   2.201   7.050   0.231  3.2191 -1.0888 -1.3005
   34MOL   H26712213   2.261   7.171   0.319  3.3250 -1.8001 -2.9990
   34MOL   H26812214   2.152   7.058   0.394 -1.8660  0.5544 -1.5959
   34MOL   H26912215   2.410   7.079   0.563 -2.3783 -0.6795  2.5435
   34MOL   H27012216   2.286   6.957   0.556 -0.6596  2.6896 -1.0064
   34MOL   H27112217   2.468   6.919   0.540  1.1278 -0.4792 -2.0793
   34MOL   C27212218   2.549   7.152   0.075  0.0821  0.0184 -0.1355
   34MOL   C27312219   2.453   7.276   0.084  0.2829  0.2089  0.1902
   34MOL   C27412220   2.539   7.407   0.092  0.5552 -0.1274  0.1871
   34MOL   C27512221   2.596   7.435   0.238  0.5380 -0.4270 -0.0429
   34MOL   C27612222   2.484   7.452   0.336 -0.5185 -0.7338  0.7471
   34MOL   C27712223   2.672   7.564   0.232 -0.6102  0.2621 -0.1267
   34MOL   H27812224   2.637   7.164   0.139 -0.1137 -0.8210  0.2933
   34MOL   H27912225   2.596   7.137   7.730  0.1331 -0.8648  0.0216
   34MOL   H28012226   2.396   7.258   0.175  1.5595 -1.1020  0.7490
   34MOL   H28112227   2.475   7.491   0.063  0.5451  0.2999  1.4017
   34MOL   H28212228   2.624   7.399   0.025  1.0196  0.3965  0.7033
   34MOL   H28312229   2.656   7.352   0.277 -0.2604 -1.1219 -0.2799
   34MOL   H28412230   2.414   7.533   0.318 -0.5218 -0.6710  1.0399
   34MOL   H28512231   2.422   7.363   0.350 -1.0579 -0.1671  2.0567
   34MOL   H28612232   2.520   7.481   0.435  1.2102 -0.8851  0.1635
   34MOL   H28712233   2.757   7.554   0.163  0.1683 -1.2193  1.0146
   34MOL   H28812234   2.606   7.648   0.211  0.2370 -0.0587 -4.8114
   34MOL   H28912235   2.723   7.590   0.324  1.1617  0.6865 -1.1943
   34MOL   C29012236   2.368   7.270   7.707 -0.6315  0.4953  0.2812
   34MOL   C29112237   2.245   7.354   7.703 -0.4413  0.7516  0.7749
   34MOL   C29212238   2.188   7.387   7.562 -0.1151  0.3494 -0.2269
   34MOL   C29312239   2.260   7.486   7.474  0.1663 -0.2080  0.0262
   34MOL   C29412240   2.199   7.515   7.332 -0.3988  1.1195 -0.0046
   34MOL   C29512241   2.273   7.624   7.540  0.6951 -0.3292  0.4165
   34MOL   H29612242   2.433   7.303   7.627 -0.4455  1.6948  0.9240
   34MOL   H29712243   2.340   7.167   7.685 -1.5826  1.3800 -2.8291
   34MOL   H29812244   2.264   7.449   0.001  0.8775 -0.9367  3.6024
   34MOL   H29912245   2.086   7.422   7.577  0.0971  0.2192  1.5284
   34MOL   H30012246   2.174   7.295   7.505 -0.9886  0.2352  0.1642
   34MOL   H30112247   2.360   7.444   7.466 -0.3887 -1.7281  0.9871
   34MOL   H30212248   2.193   7.433   7.261 -0.9868  2.0751 -1.0862
   34MOL   H30312249   2.270   7.563   7.264  2.4127 -2.3056  0.3657
   34MOL   H30412250   2.099   7.558   7.325 -0.0968  2.1731  1.8450
   34MOL   H30512251   2.363   7.623   7.603  0.7887 -1.6375  0.2599
   34MOL   H30612252   2.191   7.634   7.611  0.2751 -1.3710  0.0772
   34MOL   H30712253   2.267   7.702   7.464  2.0584 -2.1999 -1.6490
   34MOL   C30812254   2.127   7.289   0.031  0.8444 -0.7134 -0.3633
   34MOL   C30912255   2.012   7.383   0.104  0.1154  0.3975  0.2560
   34MOL   C31012256   2.071   7.505   0.180  0.5011  0.1278  0.4762
   34MOL   C31112257   1.983   7.561   0.292  0.8873 -0.1799 -0.1472
   34MOL   C31212258   2.060   7.586   0.416 -0.4578 -0.5931  0.3220
   34MOL   C31312259   1.920   7.686   0.245 -0.3217 -0.5542  0.1089
   34MOL   H31412260   2.090   7.202   7.730  0.4094 -2.0931  2.1330
   34MOL   H31512261   2.177   7.238   0.112 -0.0639 -1.4268 -0.2358
   34MOL   H31612262   1.970   7.316   0.179  0.0577 -0.8622 -0.8829
   34MOL   H31712263   2.104   7.585   0.114 -2.1624 -1.0232 -2.4108
   34MOL   H31812264   2.156   7.465   0.234  1.0261 -2.5406 -2.1842
   34MOL   H31912265   1.897   7.500   0.319  0.4528  0.4193 -0.1529
   34MOL   H32012266   2.157   7.630   0.390  0.5246 -2.1794  1.2080
   34MOL   H32112267   2.083   7.499   0.477  1.1754 -1.3696 -1.3239
   34MOL   H32212268   2.006   7.660   0.475 -1.0007 -0.3773 -0.4360
   34MOL   H32312269   1.858   7.724   0.326 -1.6411  1.1673 -1.6485
   34MOL   H32412270   1.999   0.001   0.211  0.5370 -1.4146  0.3878
   34MOL   H32512271   1.835   7.682   0.176  0.8031  1.3616 -1.4275
   34MOL   C32612272   1.883   7.416   0.018  0.0205  0.3131  0.6105
   34MOL   C32712273   1.799   7.292   7.716 -0.9205 -0.0574 -0.0172
   34MOL   C32812274   1.684   7.337   7.623 -0.3661 -0.6715  0.7859
   34MOL   C32912275   1.728   7.396   7.492 -0.6180 -0.3976  0.3211
   34MOL   C33012276   1.790   7.291   7.396 -0.4544  0.8287  0.2455
   34MOL   C33112277   1.614   7.472   7.414  0.0150  0.9128 -0.2422
   34MOL   H33212278   1.909   7.483   7.689 -0.4420 -0.8821 -0.5352
   34MOL   H33312279   1.815   7.472   0.083 -0.8868  2.3570 -2.0178
   34MOL   H33412280   1.867   7.223   7.666 -1.5559 -0.6588 -0.0537
   34MOL   H33512281   1.617   7.253   7.604 -0.4015 -0.2214 -1.1495
   34MOL   H33612282   1.641   7.423   7.673 -0.8999 -1.0526  0.9881
   34MOL   H33712283   1.803   7.473   7.510 -0.4803 -0.7032  1.0612
   34MOL   H33812284   1.894   7.268   7.417 -0.0286  0.5450 -2.0810
   34MOL   H33912285   1.772   7.312   7.291  1.4705 -2.1160 -0.7242
   34MOL   H34012286   1.736   7.198   7.418  2.3943 -0.0864  3.8783
   34MOL   H34112287   1.573   7.563   7.457 -0.2587  1.4227 -1.5521
   34MOL   H34212288   1.636   7.496   7.310 -2.1767  2.8226 -0.2993
   34MOL   H34312289   1.532   7.399   7.413  0.5801  0.1089  3.8439
   34MOL   C34412290   1.727   7.218   0.080  0.1757 -1.0024 -0.6273
   34MOL   C34512291   1.665   7.089   0.045  0.1817 -0.1970 -0.3811
   34MOL   C34612292   1.664   6.994   0.172 -0.3322  0.3084  0.2589
   34MOL   C34712293   1.777   6.895   0.193  0.4306  0.0832  0.1705
   34MOL   C34812294   1.750   6.813   0.321  0.4914 -0.9151  0.0753
   34MOL   C34912295   1.910   6.972   0.212  0.2210 -0.2734 -0.0873
   34MOL   H35012296   1.653   7.284   0.124  0.5322 -2.2085  1.8353
   34MOL   H35112297   1.799   7.204   0.161 -0.4134 -0.1679  0.0430
   34MOL   H35212298   1.706   7.042   7.707  1.4386 -0.2042  0.1789
   34MOL   H35312299   1.671   7.060   0.258 -1.7261 -1.8459  2.0674
   34MOL   H35412300   1.568   6.944   0.176 -0.0402 -0.3459 -0.7834
   34MOL   H35512301   1.768   6.833   0.105 -1.2463  1.1885 -0.4672
   34MOL   H35612302   1.805   6.720   0.311  2.1261  0.1778 -1.4709
   34MOL   H35712303   1.787   6.855   0.415 -2.0079  1.4562  0.0912
   34MOL   H35812304   1.650   6.772   0.335 -0.1550  0.4427 -0.4535
   34MOL   H35912305   1.948   7.036   0.133 -0.1990 -0.9393 -0.8330
   34MOL   H36012306   1.990   6.900   0.229 -0.4176 -1.4990 -2.1342
   34MOL   H36112307   1.902   7.045   0.292  0.7544 -1.1010  0.7363
   34MOL   H36212308   1.563   7.112   0.014 -1.3140  1.1862  5.0108
   35MOL     C112309   0.612   4.330   2.977  0.2077 -1.0335  0.3256
   35MOL     C212310   0.539   4.361   3.120  0.5884  0.5813  0.2095
   35MOL     C312311   0.419   4.264   3.150  0.1471 -0.4080  0.1262
   35MOL     C412312   0.401   4.223   3.296  0.6581  0.0687 -0.3454
   35MOL     C512313   0.500   4.112   3.338 -0.2877  0.1848  0.5128
   35MOL     C612314   0.254   4.177   3.328 -0.0130 -0.3779 -0.0371
   35MOL     H712315   0.686   4.408   2.958 -0.9274  0.7620  3.0020
   35MOL     H812316   0.660   4.233   2.966  1.6817 -0.3374  0.5715
   35MOL     H912317   0.613   4.344   3.198  0.2300  1.3941  0.7410
   35MOL    H1012318   0.325   4.299   3.105  0.3641  0.9425  0.6987
   35MOL    H1112319   0.436   4.172   3.094  1.9630  0.1045 -0.1995
   35MOL    H1212320   0.423   4.305   3.365  0.2771 -2.3888  2.8357
   35MOL    H1312321   0.520   4.110   3.445 -2.3428  1.0210  0.9210
   35MOL    H1412322   0.452   4.024   3.297 -1.2185  0.4434  1.0461
   35MOL    H1512323   0.596   4.129   3.289  0.9208 -0.0329  2.7509
   35MOL    H1612324   0.247   4.148   3.433 -2.4670  0.0419 -0.0723
   35MOL    H1712325   0.232   4.081   3.282 -0.3025  0.0069 -0.7058
   35MOL    H1812326   0.194   4.267   3.314 -1.4049 -0.9831  1.8717
   35MOL    H1912327   0.541   4.334   2.894  0.0794  0.9682  0.4954
   35MOL    C2012328   0.478   4.508   3.122  0.3604  0.2018 -0.1898
   35MOL    C2112329   0.561   4.617   3.190  0.2027  0.0004  0.2765
   35MOL    C2212330   0.485   4.749   3.161  0.9704 -0.1698 -0.3598
   35MOL    C2312331   0.568   4.879   3.183  0.3673 -0.6079  1.3013
   35MOL    C2412332   0.674   4.894   3.076 -0.3159  0.2256 -0.0273
   35MOL    C2512333   0.481   4.999   3.165 -0.1594 -0.1106  0.4725
   35MOL    H2612334   0.471   4.535   3.016  1.7289  0.1334 -0.3124
   35MOL    H2712335   0.376   4.507   3.160  1.2443 -1.3226  2.2497
   35MOL    H2812336   0.657   4.615   3.139 -0.0597 -1.7020 -0.1878
   35MOL    H2912337   0.393   4.749   3.219 -0.0529 -1.7142 -1.9106
   35MOL    H3012338   0.442   4.751   3.060 -1.8957 -0.8372  0.7898
   35MOL    H3112339   0.613   4.896   3.281 -0.5710  1.0193  1.4752
   35MOL    H3212340   0.640   4.889   2.973  0.9723 -0.8861 -0.4105
   35MOL    H3312341   0.759   4.827   3.086  0.6750  1.6783  1.6173
   35MOL    H3412342   0.722   4.992   3.075  0.3997 -0.0899  1.5344
   35MOL    H3512343   0.434   5.000   3.067 -1.5865 -2.4380  1.1005
   35MOL    H3612344   0.393   5.010   3.230  0.0692  0.0751  0.7535
   35MOL    H3712345   0.545   5.086   3.179  0.3851 -0.5412  0.6475
   35MOL    C3812346   0.576   4.596   3.340  0.0262 -0.0351 -0.3006
   35MOL    C3912347   0.694   4.660   3.413 -0.7116  0.3605  0.0226
   35MOL    C4012348   0.815   4.551   3.433 -0.1556 -0.0983  0.3121
   35MOL    C4112349   0.887   4.504   3.306  0.0140  0.5116  0.4408
   35MOL    C4212350   0.976   4.382   3.340  0.6746 -0.1165  0.8270
   35MOL    C4312351   0.966   4.612   3.224  1.8154 -0.1695  0.1087
   35MOL    H4412352   0.589   4.489   3.356 -3.2064 -0.4143 -0.0354
   35MOL    H4512353   0.483   4.626   3.388  0.7927 -0.3585  1.4462
   35MOL    H4612354   0.725   4.738   3.345  2.0189  0.4328  1.3160
   35MOL    H4712355   0.772   4.471   3.494  0.0118  0.3521  1.0145
   35MOL    H4812356   0.887   4.605   3.493 -1.0531  1.0381  0.3804
   35MOL    H4912357   0.811   4.469   3.236  0.7904  0.3773 -0.3557
   35MOL    H5012358   0.920   4.304   3.391 -2.6875 -0.0087 -2.4941
   35MOL    H5112359   1.014   4.340   3.247  0.6607  2.7855 -0.5578
   35MOL    H5212360   1.051   4.412   3.413  1.0356  0.4647  0.2218
   35MOL    H5312361   1.043   4.639   3.297  2.2214 -0.8702 -0.0593
   35MOL    H5412362   0.905   4.689   3.176 -0.0331 -1.6043  0.0986
   35MOL    H5512363   1.013   4.559   3.141  1.3936  1.2297 -1.0711
   35MOL    C5612364   0.652   4.735   3.541 -0.8566  0.0660 -0.1724
   35MOL    C5712365   0.752   4.829   3.608  0.1124 -0.4037 -0.6579
   35MOL    C5812366   0.716   4.849   3.759 -0.0555 -0.1984 -0.1132
   35MOL    C5912367   0.751   4.728   3.854  0.6300  0.0854 -0.3681
   35MOL    C6012368   0.676   4.737   3.990 -0.2057  0.4612 -0.1288
   35MOL    C6112369   0.899   4.713   3.874 -0.2421  0.9376  0.1038
   35MOL    H6212370   0.643   4.653   3.612  3.5068 -1.8135 -1.6108
   35MOL    H6312371   0.557   4.789   3.537 -0.4239  0.7346 -1.6982
   35MOL    H6412372   0.852   4.788   3.621  0.9018  1.6246 -0.1078
   35MOL    H6512373   0.757   4.939   3.807 -1.8166  0.3292  0.4482
   35MOL    H6612374   0.610   4.871   3.775  0.3016  1.2228  0.4055
   35MOL    H6712375   0.698   4.643   3.811 -1.0829  0.4139  0.9996
   35MOL    H6812376   0.576   4.709   3.959  0.7881 -1.1280 -2.0594
   35MOL    H6912377   0.679   4.836   4.034 -2.4496  0.7858 -0.6640
   35MOL    H7012378   0.719   4.662   4.057  1.0701 -0.2402 -1.6844
   35MOL    H7112379   0.931   4.668   3.968  2.6049  1.8817 -0.3526
   35MOL    H7212380   0.958   4.804   3.880  1.1817  0.0187  0.5449
   35MOL    H7312381   0.953   4.672   3.788 -0.7035 -0.0596  0.2770
   35MOL    C7412382   0.770   4.960   3.536 -0.1545 -0.2429  0.1939
   35MOL    C7512383   0.908   5.019   3.561 -0.4086 -0.2883 -0.2146
   35MOL    C7612384   0.913   5.173   3.554  0.6676  0.3336  0.0754
   35MOL    C7712385   0.869   5.242   3.691 -0.0172 -0.1922  0.4295
   35MOL    C7812386   0.837   5.394   3.667 -0.1555 -0.3845  0.3688
   35MOL    C7912387   0.978   5.222   3.799  0.3656 -0.1584  0.3338
   35MOL    H8012388   0.702   5.038   3.570 -0.1999  0.8697 -2.3681
   35MOL    H8112389   0.754   4.950   3.429 -1.4366  0.8731  0.2655
   35MOL    H8212390   0.939   4.984   3.660  0.4660 -0.2368 -0.4627
   35MOL    H8312391   1.009   5.214   3.523  0.2845  1.8895  0.8978
   35MOL    H8412392   0.844   5.195   3.473 -0.2133 -0.9149  0.4700
   35MOL    H8512393   0.780   5.194   3.730 -0.1413  0.0448  0.4366
   35MOL    H8612394   0.811   5.445   3.759 -1.0657 -0.7023  0.2979
   35MOL    H8712395   0.754   5.406   3.596  0.2259 -3.1899 -0.6207
   35MOL    H8812396   0.923   5.440   3.619  0.5086 -0.3126  1.6263
   35MOL    H8912397   0.992   5.118   3.829 -0.2714 -0.3018  0.1411
   35MOL    H9012398   1.077   5.254   3.767  0.5510 -0.7591  0.2859
   35MOL    H9112399   0.946   5.276   3.888  0.6581  1.4324 -0.5106
   35MOL    C9212400   1.017   4.954   3.469 -0.3094  0.2188 -0.2809
   35MOL    C9312401   1.172   4.963   3.507 -0.2830 -0.1852 -0.4951
   35MOL    C9412402   1.201   4.935   3.655  0.0752  0.2331 -0.6777
   35MOL    C9512403   1.343   4.959   3.708 -0.0091 -0.5688 -0.0421
   35MOL    C9612404   1.394   5.102   3.700 -0.2178 -0.3867 -0.2037
   35MOL    C9712405   1.362   4.903   3.847  1.0684 -0.2487  0.7040
   35MOL    H9812406   0.993   4.848   3.472 -1.3211  0.4545 -0.0873
   35MOL    H9912407   1.000   4.984   3.366 -1.7322 -1.4640 -0.5478
   35MOL   H10012408   1.196   5.067   3.486 -3.0502  0.9339  1.5417
   35MOL   H10112409   1.163   4.836   3.681 -1.8252  1.4976  1.6078
   35MOL   H10212410   1.142   5.006   3.713 -0.8131  0.0914 -1.3988
   35MOL   H10312411   1.409   4.901   3.644 -1.8068 -2.0498 -0.5848
   35MOL   H10412412   1.335   5.183   3.744 -0.8872 -0.0445 -1.7114
   35MOL   H10512413   1.392   5.140   3.598 -2.2411  2.3976  0.8174
   35MOL   H10612414   1.492   5.108   3.748 -0.8895  1.4038  0.9845
   35MOL   H10712415   1.332   4.798   3.855  4.8307 -1.4069  0.5994
   35MOL   H10812416   1.312   4.971   3.916 -1.0831 -2.4101  1.3624
   35MOL   H10912417   1.465   4.882   3.877  1.3305  1.4362  1.0091
   35MOL   C11012418   1.263   4.872   3.416  0.4215 -0.0380  0.6555
   35MOL   C11112419   1.262   4.905   3.269 -0.3375  0.6520  0.0224
   35MOL   C11212420   1.342   5.039   3.230  0.0441  0.0878  0.5319
   35MOL   C11312421   1.337   5.081   3.084  0.3502 -0.2021 -0.1979
   35MOL   C11412422   1.410   5.216   3.054 -0.7132 -0.2294 -0.2804
   35MOL   C11512423   1.199   5.073   3.021 -0.1003 -0.0938  0.2715
   35MOL   H11612424   1.231   4.768   3.419 -0.7906  0.3597  3.8131
   35MOL   H11712425   1.361   4.876   3.462  1.1423 -0.0923 -0.8569
   35MOL   H11812426   1.159   4.926   3.238 -1.3542 -1.2197  2.0126
   35MOL   H11912427   1.446   5.013   3.253 -0.4238 -4.8206 -1.9871
   35MOL   H12012428   1.304   5.115   3.297 -0.8221  0.4989 -0.4205
   35MOL   H12112429   1.410   5.010   3.045 -0.8870 -1.0113 -1.0628
   35MOL   H12212430   1.501   5.211   3.113 -0.2666 -1.9801 -1.0879
   35MOL   H12312431   1.354   5.304   3.087 -1.4344 -1.0135  0.6228
   35MOL   H12412432   1.428   5.213   2.947  1.2095  0.2621  0.0220
   35MOL   H12512433   1.156   4.973   3.031  1.1700 -0.5723  1.1384
   35MOL   H12612434   1.211   5.085   2.914  2.1928 -0.1354  0.5016
   35MOL   H12712435   1.129   5.151   3.050 -1.0698 -0.6930 -0.4497
   35MOL   C12812436   1.308   4.782   3.185  0.1971 -0.0275  0.0004
   35MOL   C12912437   1.454   4.725   3.198 -0.5951 -0.2180 -0.0217
   35MOL   C13012438   1.519   4.711   3.053 -0.0779 -0.8958  0.2795
   35MOL   C13112439   1.666   4.712   3.034  0.3523  0.1709 -0.4033
   35MOL   C13212440   1.704   4.656   2.894 -0.0151  0.8057  0.3154
   35MOL   C13312441   1.722   4.850   3.058 -0.3324 -0.1822 -0.1634
   35MOL   H13412442   1.295   4.816   3.082 -1.2855 -2.8173 -0.7961
   35MOL   H13512443   1.244   4.694   3.195  0.0295 -0.5580 -4.7630
   35MOL   H13612444   1.514   4.798   3.252  0.5169 -1.2846  0.1997
   35MOL   H13712445   1.472   4.636   2.990  1.0585 -1.4472  0.0688
   35MOL   H13812446   1.490   4.802   3.001  3.1970  0.1115  0.0921
   35MOL   H13912447   1.705   4.636   3.102 -1.1279  2.2439  2.8793
   35MOL   H14012448   1.641   4.690   2.812  1.3748  1.5209 -0.4785
   35MOL   H14112449   1.680   4.551   2.878 -0.3031  1.1909 -1.9002
   35MOL   H14212450   1.808   4.679   2.871  0.4157 -1.1373  0.2335
   35MOL   H14312451   1.830   4.849   3.040  0.2262 -0.5614  2.9009
   35MOL   H14412452   1.682   4.933   3.001 -0.1778  0.9224  1.3121
   35MOL   H14512453   1.702   4.881   3.161 -0.5846 -1.2928  0.1356
   35MOL   C14612454   1.478   4.596   3.281 -0.8180  0.0538 -0.5977
   35MOL   C14712455   1.462   4.462   3.204  0.1193 -0.3071 -0.1417
   35MOL   C14812456   1.325   4.447   3.128 -0.4017  0.6517 -0.1500
   35MOL   C14912457   1.317   4.326   3.029  0.9501  0.3817 -0.8456
   35MOL   C15012458   1.180   4.300   2.963 -0.6730  0.5414  0.9332
   35MOL   C15112459   1.420   4.337   2.921 -0.5712  0.6947  0.8868
   35MOL   H15212460   1.416   4.600   3.371  0.3141  2.0427  0.1067
   35MOL   H15312461   1.585   4.606   3.297 -1.0168  2.0770 -0.3915
   35MOL   H15412462   1.532   4.441   3.123 -2.1795  0.4018 -2.3925
   35MOL   H15512463   1.258   4.428   3.212 -1.3136  0.8887 -0.8209
   35MOL   H15612464   1.280   4.534   3.081 -3.9538 -0.4890  0.9695
   35MOL   H15712465   1.344   4.234   3.082  1.2024 -0.1040 -1.8080
   35MOL   H15812466   1.139   4.396   2.932 -1.5612  0.2064  1.0627
   35MOL   H15912467   1.116   4.255   3.039  1.2608 -0.9705  1.7198
   35MOL   H16012468   1.198   4.226   2.886  1.8748  0.2921  1.7195
   35MOL   H16112469   1.408   4.268   2.838  2.2543  0.7095  0.4025
   35MOL   H16212470   1.522   4.328   2.958 -1.5192 -1.5862  3.0852
   35MOL   H16312471   1.403   4.432   2.871  1.8094 -0.0411 -1.4344
   35MOL   C16412472   1.482   4.350   3.312  0.4343 -0.7292 -0.7964
   35MOL   C16512473   1.622   4.324   3.372  0.5387  0.2955  0.0813
   35MOL   C16612474   1.733   4.297   3.264 -0.1910 -0.1996 -0.7663
   35MOL   C16712475   1.729   4.172   3.185  0.0784 -0.3516 -0.3225
   35MOL   C16812476   1.837   4.177   3.070  0.1395  0.0396  0.1595
   35MOL   C16912477   1.766   4.049   3.274  0.3692 -0.2642 -0.1895
   35MOL   H17012478   1.410   4.359   3.394 -0.2814 -2.0858 -1.2646
   35MOL   H17112479   1.449   4.251   3.281 -3.5171  0.0225  0.6839
   35MOL   H17212480   1.606   4.231   3.427 -3.1489  0.5382 -0.4483
   35MOL   H17312481   1.728   4.389   3.206 -1.0362  0.8020  0.8659
   35MOL   H17412482   1.833   4.303   3.306 -0.7106 -2.0834  0.8149
   35MOL   H17512483   1.631   4.162   3.139  0.8197  0.3413 -2.1079
   35MOL   H17612484   1.832   4.086   3.011 -0.0668  1.1870 -1.6206
   35MOL   H17712485   1.939   4.178   3.108  0.0130 -0.3600  0.5169
   35MOL   H17812486   1.826   4.269   3.013  0.2483 -0.3377 -0.4773
   35MOL   H17912487   1.704   4.045   3.364  1.7154 -2.3663  0.7032
   35MOL   H18012488   1.871   4.020   3.287 -0.2391 -1.8658  1.3836
   35MOL   H18112489   1.737   3.955   3.226 -0.9892  0.0992 -0.1025
   35MOL   C18212490   1.670   4.429   3.484  0.3937 -0.2965 -0.3523
   35MOL   C18312491   1.755   4.369   3.598  0.2253 -0.1362 -0.5095
   35MOL   C18412492   1.788   4.487   3.691  0.1286  0.2121 -0.2412
   35MOL   C18512493   1.917   4.579   3.665 -0.4001 -0.0860 -0.0638
   35MOL   C18612494   1.887   4.701   3.576  0.2512  0.0834 -0.6147
   35MOL   C18712495   1.995   4.606   3.801 -0.1031  0.0158 -0.1771
   35MOL   H18812496   1.579   4.477   3.518 -0.5567 -1.9950 -0.4547
   35MOL   H18912497   1.733   4.502   3.432 -0.0112 -0.3347 -0.9045
   35MOL   H19012498   1.847   4.328   3.558  0.9075 -0.2519  1.1467
   35MOL   H19112499   1.801   4.449   3.792 -0.5423  0.8623  0.0897
   35MOL   H19212500   1.699   4.546   3.710  0.7718  1.0701  0.1469
   35MOL   H19312501   1.993   4.520   3.613 -1.2783 -1.9523  0.7296
   35MOL   H19412502   1.839   4.673   3.482 -1.0408  0.1267  0.0091
   35MOL   H19512503   1.978   4.759   3.566 -0.1386  0.7315 -0.4215
   35MOL   H19612504   1.830   4.776   3.631 -0.9553  0.3030 -2.1241
   35MOL   H19712505   2.012   4.516   3.860 -0.8674  1.2715  2.0221
   35MOL   H19812506   1.941   4.677   3.864 -0.5740 -1.1876  0.8026
   35MOL   H19912507   2.087   4.660   3.777  0.9050 -0.5002  2.3864
   35MOL   C20012508   1.680   4.259   3.677 -0.3584 -0.0938  0.0185
   35MOL   C20112509   1.772   4.159   3.741 -0.4301 -0.5283 -0.6088
   35MOL   C20212510   1.829   4.062   3.631 -0.2370  0.1779  0.2634
   35MOL   C20312511   1.933   3.967   3.681 -0.2123  0.0699 -0.1725
   35MOL   C20412512   1.968   3.871   3.566 -0.1022 -0.1376  0.6349
   35MOL   C20512513   2.052   4.048   3.737 -0.1116 -0.2286 -0.5989
   35MOL   H20612514   1.614   4.198   3.615 -2.6091  1.4798  0.7828
   35MOL   H20712515   1.607   4.297   3.749  0.1672  0.9512  0.0131
   35MOL   H20812516   1.858   4.217   3.776 -0.2337 -0.6034 -0.9577
   35MOL   H20912517   1.749   4.004   3.585  2.2395 -1.0995 -2.5853
   35MOL   H21012518   1.866   4.116   3.544  0.0226  0.6040  0.6371
   35MOL   H21112519   1.912   3.904   3.767  1.5140  1.9030  1.6367
   35MOL   H21212520   2.016   3.938   3.495  0.5853  0.0312  1.2569
   35MOL   H21312521   1.881   3.815   3.531 -0.8505  2.2530 -1.4775
   35MOL   H21412522   2.040   3.796   3.597  0.0717  0.2880  1.2902
   35MOL   H21512523   2.070   4.147   3.695  0.1661  0.9462  2.1218
   35MOL   H21612524   2.145   3.991   3.740  0.6761  0.8465 -3.0541
   35MOL   H21712525   2.036   4.074   3.842 -1.0235  2.5006 -1.3882
   35MOL   C21812526   1.710   4.089   3.863 -0.3107  0.3570  0.1584
   35MOL   C21912527   1.674   4.182   3.976  0.2938 -0.2266 -0.4200
   35MOL   C22012528   1.777   4.157   4.100 -0.4120 -0.1077 -0.3993
   35MOL   C22112529   1.795   4.278   4.197  0.7921  0.5977  0.0192
   35MOL   C22212530   1.908   4.238   4.303  0.2444  0.0556 -1.2282
   35MOL   C22312531   1.829   4.409   4.128  0.6160  0.1383 -1.2221
   35MOL   H22412532   1.622   4.038   3.823 -1.0291 -1.0506  3.3626
   35MOL   H22512533   1.777   4.011   3.899 -1.2286  0.3361  1.8422
   35MOL   H22612534   1.665   4.287   3.948  0.1847 -0.2064 -0.3092
   35MOL   H22712535   1.770   4.058   4.145 -0.1756  0.0636  0.0168
   35MOL   H22812536   1.876   4.149   4.056 -0.0281 -1.5548  0.7032
   35MOL   H22912537   1.700   4.288   4.250  0.2048  0.3259 -0.9728
   35MOL   H23012538   1.922   4.306   4.387 -0.7239 -0.1859 -0.8647
   35MOL   H23112539   1.872   4.144   4.345  0.8957  0.3030 -0.0994
   35MOL   H23212540   2.003   4.215   4.254  0.1351  0.0549 -1.4406
   35MOL   H23312541   1.835   4.390   4.021 -0.8342  0.3489 -1.3613
   35MOL   H23412542   1.764   4.489   4.163  3.1113  1.7872 -0.2128
   35MOL   H23512543   1.929   4.438   4.159  0.8584 -2.3671  0.5421
   35MOL   C23612544   1.534   4.151   4.038 -0.4785 -0.2445 -0.0925
   35MOL   C23712545   1.417   4.165   3.936  0.3862  0.5179 -0.0246
   35MOL   C23812546   1.357   4.315   3.930  0.1712 -0.2040 -0.3890
   35MOL   C23912547   1.253   4.343   3.822  0.3045  0.6483  0.3033
   35MOL   C24012548   1.176   4.465   3.861 -0.5636  0.9737 -0.1208
   35MOL   C24112549   1.305   4.359   3.682 -0.2595  0.4064 -0.7861
   35MOL   H24212550   1.521   4.212   4.127  0.4003  0.7519 -0.6458
   35MOL   H24312551   1.540   4.050   4.079 -4.3159 -0.8511 -0.8093
   35MOL   H24412552   1.453   4.138   3.837  1.0663 -0.3793  0.4604
   35MOL   H24512553   1.439   4.385   3.918 -0.2922  0.2228 -1.1043
   35MOL   H24612554   1.320   4.337   4.030  1.6617 -0.4445  0.2365
   35MOL   H24712555   1.175   4.267   3.818  1.4638 -0.6481  1.8815
   35MOL   H24812556   1.099   4.488   3.787  0.3209  1.6315 -0.8449
   35MOL   H24912557   1.235   4.555   3.874  0.0580  0.8184 -1.7634
   35MOL   H25012558   1.129   4.460   3.959  0.4587 -1.4781  0.2935
   35MOL   H25112559   1.370   4.446   3.687  2.2468 -1.4159 -0.4132
   35MOL   H25212560   1.224   4.369   3.610  0.0785  0.1454 -1.2045
   35MOL   H25312561   1.358   4.265   3.661  0.8874  1.7181 -4.0489
   35MOL   C25412562   1.309   4.055   3.965 -0.1436  0.0232  0.6562
   35MOL   C25512563   1.328   3.919   3.885 -0.3670  0.2440 -0.2981
   35MOL   C25612564   1.388   3.809   3.977  0.1306  0.2036 -0.0695
   35MOL   C25712565   1.464   3.691   3.894  0.6935  0.4586  0.1534
   35MOL   C25812566   1.483   3.562   3.979 -0.1348 -0.1977  0.3200
   35MOL   C25912567   1.600   3.738   3.840 -0.3978  0.3180  0.2909
   35MOL   H26012568   1.305   4.035   4.072  1.9457  0.4231  0.8399
   35MOL   H26112569   1.213   4.100   3.939  0.2046  1.4824  1.7867
   35MOL   H26212570   1.403   3.933   3.808 -0.8807  0.9118 -0.6779
   35MOL   H26312571   1.317   3.761   4.044  0.4636 -0.7965 -0.4104
   35MOL   H26412572   1.466   3.842   4.046  1.0429  0.7643 -1.3489
   35MOL   H26512573   1.389   3.670   3.818  2.3929  0.9523 -1.6726
   35MOL   H26612574   1.384   3.533   4.015  0.9183 -0.3343  3.1952
   35MOL   H26712575   1.555   3.581   4.058  1.8865  1.7708 -1.9260
   35MOL   H26812576   1.508   3.475   3.919  0.8412  0.2882  0.0175
   35MOL   H26912577   1.591   3.829   3.780  0.9331  0.5321  0.3923
   35MOL   H27012578   1.668   3.752   3.924 -0.9634 -2.4028  1.2321
   35MOL   H27112579   1.643   3.660   3.777 -1.1544  0.7061 -0.7376
   35MOL   C27212580   1.198   3.873   3.828  0.2714 -0.3061 -0.4198
   35MOL   C27312581   1.151   3.942   3.696  0.0992  0.3453  0.1406
   35MOL   C27412582   1.228   3.887   3.569 -0.5043 -0.7335  0.6141
   35MOL   C27512583   1.280   3.991   3.466  0.1329  0.3775  0.2703
   35MOL   C27612584   1.178   4.076   3.376 -0.3726 -0.0035  0.5621
   35MOL   C27712585   1.384   3.926   3.369  0.1693  0.1429  0.1283
   35MOL   H27812586   1.198   3.770   3.793  0.6337 -0.7760  0.9093
   35MOL   H27912587   1.128   3.867   3.912  0.8089 -4.3462 -0.1390
   35MOL   H28012588   1.164   4.050   3.708 -0.6949  0.6644 -1.6956
   35MOL   H28112589   1.173   3.808   3.519 -2.7448 -0.2304  2.1850
   35MOL   H28212590   1.322   3.845   3.605  0.7042  0.4432 -1.0723
   35MOL   H28312591   1.336   4.065   3.524  3.8578 -0.1538 -2.4329
   35MOL   H28412592   1.229   4.135   3.301 -1.7954  1.1888  0.5168
   35MOL   H28512593   1.101   4.017   3.327  1.4349  0.0710 -2.4778
   35MOL   H28612594   1.120   4.143   3.439  1.9975  3.6937 -1.0333
   35MOL   H28712595   1.465   3.884   3.427  3.0790  1.8333 -2.5235
   35MOL   H28812596   1.335   3.849   3.309 -0.2596  0.8111 -0.3968
   35MOL   H28912597   1.421   4.002   3.300 -1.2223  2.7258  2.1151
   35MOL   C29012598   0.999   3.926   3.660  0.0113  0.1977 -0.5026
   35MOL   C29112599   0.890   3.984   3.761  0.7264  0.5657 -0.2044
   35MOL   C29212600   0.864   4.135   3.744 -0.3276 -0.1309  0.2504
   35MOL   C29312601   0.784   4.217   3.839 -1.0819 -0.0397  0.0865
   35MOL   C29412602   0.871   4.268   3.953  0.2775  0.4407  0.0903
   35MOL   C29512603   0.720   4.340   3.768  0.4979 -0.0397  0.1074
   35MOL   H29612604   0.986   3.965   3.559 -1.0799 -0.7170 -0.7102
   35MOL   H29712605   0.973   3.821   3.651 -0.7839  0.2987  0.4986
   35MOL   H29812606   0.923   3.981   3.865  0.5748 -1.6383 -0.1835
   35MOL   H29912607   0.816   4.139   3.647 -2.2658 -1.2566  1.1296
   35MOL   H30012608   0.954   4.193   3.722 -2.4128  3.0239 -0.2775
   35MOL   H30112609   0.696   4.167   3.881 -0.7174 -0.8710 -0.1355
   35MOL   H30212610   0.969   4.306   3.924  0.8998 -0.4409  0.9904
   35MOL   H30312611   0.896   4.185   4.020 -0.7299  0.1498  0.1069
   35MOL   H30412612   0.824   4.339   4.020 -1.1686 -1.8197  1.5463
   35MOL   H30512613   0.633   4.305   3.713  0.1277 -0.3029  0.8638
   35MOL   H30612614   0.797   4.376   3.699 -3.2401  0.1247 -4.2649
   35MOL   H30712615   0.697   4.425   3.832  2.1492  0.5869 -0.0869
   35MOL   C30812616   0.750   3.904   3.738 -0.3656  0.0880  0.0733
   35MOL   C30912617   0.730   3.776   3.809  0.0525  0.7811  0.3378
   35MOL   C31012618   0.703   3.799   3.962  0.3467 -0.4055 -0.1731
   35MOL   C31112619   0.767   3.710   4.065 -0.4780 -0.0334 -0.1900
   35MOL   C31212620   0.756   3.766   4.209 -0.0886 -0.6330  0.4947
   35MOL   C31312621   0.713   3.573   4.068 -0.0202 -0.2703  0.3035
   35MOL   H31412622   0.669   3.968   3.772 -1.3580 -0.5887 -1.0045
   35MOL   H31512623   0.739   3.886   3.631  2.2211  0.2076 -0.2585
   35MOL   H31612624   0.829   3.731   3.796  0.7704  2.7775 -1.3258
   35MOL   H31712625   0.595   3.799   3.974  0.4029 -1.3284  0.3592
   35MOL   H31812626   0.745   3.896   3.991 -1.2389  0.5088 -0.8755
   35MOL   H31912627   0.872   3.713   4.034 -0.0539  0.5943  1.2928
   35MOL   H32012628   0.653   3.789   4.234 -0.0797  0.2168 -0.2228
   35MOL   H32112629   0.807   3.861   4.226 -0.7839 -0.4419  1.6222
   35MOL   H32212630   0.794   3.699   4.287 -2.4838 -2.2499  0.3109
   35MOL   H32312631   0.777   3.511   4.132  1.5730  1.3984  0.3764
   35MOL   H32412632   0.608   3.562   4.094 -0.5141 -2.0417 -2.2770
   35MOL   H32512633   0.710   3.516   3.975 -2.3136 -1.3434  0.9976
   35MOL   C32612634   0.630   3.682   3.734 -0.1428  0.0592 -0.1217
   35MOL   C32712635   0.674   3.591   3.611  0.1264  0.0175 -0.4978
   35MOL   C32812636   0.568   3.578   3.496 -0.4625  0.2057 -0.3715
   35MOL   C32912637   0.554   3.708   3.411  0.3357 -0.4431  0.2559
   35MOL   C33012638   0.689   3.750   3.343 -0.3319 -0.5311  0.4766
   35MOL   C33112639   0.451   3.709   3.295  0.5922 -0.4006 -0.8357
   35MOL   H33212640   0.554   3.753   3.699 -0.8732  1.3066  3.7897
   35MOL   H33312641   0.573   3.616   3.800  0.9441 -1.7401 -0.9230
   35MOL   H33412642   0.762   3.640   3.570  0.5024 -1.6114 -1.6708
   35MOL   H33512643   0.598   3.494   3.434  2.2876  0.4284  0.5925
   35MOL   H33612644   0.474   3.541   3.536  1.2539 -3.6688  0.2415
   35MOL   H33712645   0.529   3.791   3.477  2.8076 -0.0135  0.7067
   35MOL   H33812646   0.672   3.851   3.305  1.5321 -0.7424 -0.9622
   35MOL   H33912647   0.716   3.681   3.262 -0.6137  0.0319 -0.1023
   35MOL   H34012648   0.773   3.754   3.411 -1.1765  0.8758  1.4657
   35MOL   H34112649   0.351   3.703   3.337  0.9094  0.7179  0.1209
   35MOL   H34212650   0.452   3.808   3.249 -2.9557 -0.3500 -0.9109
   35MOL   H34312651   0.471   3.626   3.227  2.2559 -0.1257 -0.7076
   35MOL   C34412652   0.722   3.455   3.661  1.3233  0.2594 -0.3011
   35MOL   C34512653   0.855   3.410   3.601 -0.1765 -0.6516  0.6732
   35MOL   C34612654   0.978   3.485   3.648 -0.1625  0.2039 -0.7158
   35MOL   C34712655   1.107   3.411   3.606 -0.4742  0.0751  0.1998
   35MOL   C34812656   1.128   3.285   3.697  0.3201 -0.4465 -0.9558
   35MOL   C34912657   1.225   3.510   3.615 -0.7832 -0.2409  0.5080
   35MOL   H35012658   0.645   3.383   3.633  1.0369  0.2683  0.4515
   35MOL   H35112659   0.721   3.453   3.770 -0.3487  0.6644 -0.2975
   35MOL   H35212660   0.848   3.426   3.493  2.8315 -0.3341  0.4863
   35MOL   H35312661   0.970   3.579   3.593  0.0188 -0.3140 -1.6311
   35MOL   H35412662   0.968   3.511   3.753 -0.7736  0.2211 -0.7776
   35MOL   H35512663   1.092   3.386   3.501 -0.7047  0.1319  0.2182
   35MOL   H35612664   1.212   3.231   3.653  0.9244  0.0151 -0.3774
   35MOL   H35712665   1.161   3.313   3.797  1.2372 -1.5040 -0.9498
   35MOL   H35812666   1.048   3.210   3.696  1.0143 -1.2208 -0.1766
   35MOL   H35912667   1.194   3.609   3.581  0.5930 -0.6140 -1.9853
   35MOL   H36012668   1.312   3.473   3.561  1.7526  1.8960  2.9749
   35MOL   H36112669   1.269   3.515   3.715  2.9810  0.3746 -1.0916
   35MOL   H36212670   0.870   3.304   3.622  1.1147 -0.2819  1.6403
   36MOL     C112671   1.507   4.690   4.260 -0.5086  0.3348  0.1485
   36MOL     C212672   1.441   4.597   4.356  0.1748 -0.0801 -0.3616
   36MOL     C312673   1.305   4.550   4.299 -0.2178  0.6111  0.1164
   36MOL     C412674   1.240   4.423   4.368  0.2016 -0.7454  0.1156
   36MOL     C512675   1.327   4.303   4.346 -0.0981 -0.2898 -0.5246
   36MOL     C612676   1.101   4.412   4.304  0.4272  0.0885  1.0127
   36MOL     H712677   1.583   4.751   4.309 -0.0944 -0.3693  0.4100
   36MOL     H812678   1.564   4.627   4.191 -2.7948 -0.7839 -0.7529
   36MOL     H912679   1.508   4.511   4.363  0.1423  0.0449  2.1666
   36MOL    H1012680   1.241   4.637   4.310  0.9218  1.4937 -0.0350
   36MOL    H1112681   1.312   4.533   4.192  1.4632  2.2207 -0.0711
   36MOL    H1212682   1.238   4.445   4.475 -1.1403 -0.0003 -0.0595
   36MOL    H1312683   1.374   4.295   4.248  0.2653  0.8251 -0.4534
   36MOL    H1412684   1.405   4.295   4.422 -0.5275 -0.4231 -0.0933
   36MOL    H1512685   1.268   4.213   4.362 -3.0724  1.9212  1.6126
   36MOL    H1612686   1.059   4.312   4.315 -2.5937  0.8913 -2.1634
   36MOL    H1712687   1.103   4.436   4.197  2.7601  0.6137  1.1509
   36MOL    H1812688   1.024   4.468   4.357  0.4980  1.4792 -0.2958
   36MOL    H1912689   1.440   4.749   4.198  2.6840  1.8214 -2.0253
   36MOL    C2012690   1.425   4.659   4.501 -0.2888 -0.2419  0.2928
   36MOL    C2112691   1.467   4.579   4.621 -0.5746 -0.0278  0.1672
   36MOL    C2212692   1.624   4.575   4.638  0.4691  1.0759 -0.3552
   36MOL    C2312693   1.677   4.455   4.723 -0.6848  0.3752  0.3070
   36MOL    C2412694   1.631   4.325   4.671 -0.2489  0.1719 -0.0864
   36MOL    C2512695   1.830   4.466   4.745  0.7497  0.3283 -0.4303
   36MOL    H2612696   1.471   4.758   4.503  0.0532 -0.3746 -0.5182
   36MOL    H2712697   1.324   4.700   4.513  0.9965  3.2390 -0.0065
   36MOL    H2812698   1.422   4.480   4.611 -2.5396  1.1728 -3.9730
   36MOL    H2912699   1.670   4.669   4.667  1.1231  0.0296  2.2574
   36MOL    H3012700   1.674   4.548   4.545 -0.2834 -1.1674 -0.1524
   36MOL    H3112701   1.628   4.457   4.821 -0.9402  0.5212  0.1776
   36MOL    H3212702   1.664   4.303   4.569  0.3660 -0.7420  0.3037
   36MOL    H3312703   1.523   4.315   4.663 -0.1250 -0.4854 -1.2098
   36MOL    H3412704   1.673   4.238   4.722  0.6801 -1.0500 -2.8278
   36MOL    H3512705   1.900   4.450   4.663  2.5934  1.5063  0.8604
   36MOL    H3612706   1.847   4.565   4.786  2.2138 -1.2817  3.0864
   36MOL    H3712707   1.855   4.406   4.833 -2.5608  1.6651  1.4757
   36MOL    C3812708   1.404   4.633   4.759 -0.3938  0.7173 -0.1292
   36MOL    C3912709   1.267   4.579   4.803 -0.3742 -0.2493 -0.2306
   36MOL    C4012710   1.189   4.690   4.883 -0.9068 -0.5919 -0.2420
   36MOL    C4112711   1.262   4.743   5.010 -0.3318  0.0217 -0.2324
   36MOL    C4212712   1.189   4.688   5.136  0.0200  0.3974  0.2010
   36MOL    C4312713   1.277   4.894   5.008 -0.4043  0.0597  0.7677
   36MOL    H4412714   1.429   4.739   4.762  0.9034  0.3924  0.9159
   36MOL    H4512715   1.470   4.596   4.838  1.6640 -0.1861 -2.2255
   36MOL    H4612716   1.217   4.572   4.707  0.2955 -0.2504 -0.5810
   36MOL    H4712717   1.088   4.657   4.906 -1.4568 -0.0607 -1.8427
   36MOL    H4812718   1.182   4.774   4.814 -1.8386 -0.8232 -0.4363
   36MOL    H4912719   1.366   4.711   5.005 -0.8905 -1.7117 -1.0537
   36MOL    H5012720   1.216   4.747   5.224 -0.9637  1.1696 -0.0060
   36MOL    H5112721   1.081   4.699   5.131  0.1783  2.4302  0.6075
   36MOL    H5212722   1.218   4.584   5.153  0.8448  0.4898 -0.5938
   36MOL    H5312723   1.323   4.930   4.916 -0.8698  0.0780  0.5453
   36MOL    H5412724   1.347   4.915   5.089  1.4921 -2.7608 -0.0421
   36MOL    H5512725   1.182   4.943   5.032 -0.7871  0.2360 -1.0651
   36MOL    C5612726   1.279   4.447   4.873 -0.0808  0.2222  0.2114
   36MOL    C5712727   1.152   4.354   4.868 -0.0595 -0.2945  0.5204
   36MOL    C5812728   1.176   4.238   4.979 -0.1779  0.6045  0.1508
   36MOL    C5912729   1.146   4.277   5.123  0.0844  0.2645 -0.7727
   36MOL    C6012730   1.169   4.154   5.212  0.5191  0.1121  0.2682
   36MOL    C6112731   1.002   4.326   5.150 -0.4639 -0.2430  0.2977
   36MOL    H6212732   1.308   4.466   4.976  1.1277 -0.4537  0.0071
   36MOL    H6312733   1.361   4.394   4.825 -1.1341  0.3083 -1.7577
   36MOL    H6412734   1.066   4.417   4.892 -0.7077 -0.3563 -1.5914
   36MOL    H6512735   1.112   4.151   4.963  2.6548 -1.1122 -2.3089
   36MOL    H6612736   1.278   4.207   4.955 -0.5303  0.5989 -1.4231
   36MOL    H6712737   1.211   4.355   5.163 -1.0746  0.4049  0.8806
   36MOL    H6812738   1.174   4.186   5.316 -0.6332  0.2268  0.2925
   36MOL    H6912739   1.267   4.108   5.194  1.2132  1.9150 -0.6160
   36MOL    H7012740   1.086   4.083   5.206 -0.3917  1.1846  0.0549
   36MOL    H7112741   0.938   4.247   5.113  0.4009  0.2359 -2.3000
   36MOL    H7212742   0.986   4.422   5.100 -2.1467 -0.8358 -0.3267
   36MOL    H7312743   0.971   4.334   5.255 -0.3678  1.0145  0.2357
   36MOL    C7412744   1.120   4.304   4.722 -0.5889  0.0859 -0.2916
   36MOL    C7512745   0.984   4.233   4.704 -0.6822 -0.0212 -0.5707
   36MOL    C7612746   0.985   4.151   4.574  0.4821  0.2226 -0.1767
   36MOL    C7712747   1.096   4.045   4.556  0.1768  0.9752 -0.3274
   36MOL    C7812748   1.071   3.961   4.428  0.4611 -0.0080 -0.5183
   36MOL    C7912749   1.104   3.942   4.667 -0.5641  0.0722 -0.3715
   36MOL    H8012750   1.201   4.233   4.708 -0.9489 -0.3782 -0.0222
   36MOL    H8112751   1.143   4.387   4.655 -0.7599 -1.1884 -1.9707
   36MOL    H8212752   0.974   4.165   4.788  0.0770 -0.4990 -0.8539
   36MOL    H8312753   0.887   4.113   4.545 -0.3800  1.9740  0.4186
   36MOL    H8412754   1.005   4.233   4.504  1.2712 -0.6106 -0.9454
   36MOL    H8512755   1.193   4.093   4.549  1.2847 -1.1699  0.0134
   36MOL    H8612756   1.162   3.907   4.404  0.2319 -0.4382 -0.4242
   36MOL    H8712757   1.066   4.020   4.336  0.9881 -3.7906 -3.0599
   36MOL    H8812758   0.989   3.890   4.420  1.2834 -0.9707 -0.3953
   36MOL    H8912759   1.195   3.883   4.653 -0.5242 -0.5078  2.2010
   36MOL    H9012760   1.106   3.991   4.764  3.0648 -1.9080  0.6592
   36MOL    H9112761   1.018   3.874   4.669 -0.7387  0.3009 -0.0120
   36MOL    C9212762   0.874   4.335   4.711 -0.2522  0.3084  0.1755
   36MOL    C9312763   0.741   4.268   4.721  0.7187 -0.6137  0.1794
   36MOL    C9412764   0.705   4.239   4.867  0.2784  0.7110 -0.1051
   36MOL    C9512765   0.597   4.128   4.877  0.6486  0.3645 -0.4572
   36MOL    C9612766   0.637   3.990   4.825  0.1002  0.0189 -0.2463
   36MOL    C9712767   0.539   4.121   5.014  0.3847  0.2603 -0.7817
   36MOL    H9812768   0.881   4.404   4.795 -1.3604 -0.2160  0.6985
   36MOL    H9912769   0.875   4.402   4.625 -0.7760  1.9635  1.4453
   36MOL   H10012770   0.743   4.179   4.659 -2.0302 -0.0662 -0.8048
   36MOL   H10112771   0.669   4.324   4.925 -3.3170 -0.4400 -0.5480
   36MOL   H10212772   0.789   4.205   4.928 -0.0417  1.8934  1.0267
   36MOL   H10312773   0.512   4.162   4.817  0.3319  2.1656  0.9723
   36MOL   H10412774   0.735   3.951   4.855  0.7596  0.2485 -1.9966
   36MOL   H10512775   0.646   3.998   4.716 -0.5122  3.0064 -0.1171
   36MOL   H10612776   0.555   3.925   4.855 -1.5197  1.8366 -0.6832
   36MOL   H10712777   0.495   4.218   5.039 -0.1857 -0.5435  1.4935
   36MOL   H10812778   0.607   4.106   5.097  0.4385 -1.6794 -1.1686
   36MOL   H10912779   0.454   4.053   5.017  1.1367 -0.6696 -0.4066
   36MOL   C11012780   0.622   4.355   4.660  0.1683  0.5529 -0.0981
   36MOL   C11112781   0.628   4.362   4.504 -0.3298  0.2440  0.2069
   36MOL   C11212782   0.563   4.225   4.446 -0.2172 -0.0282  0.1023
   36MOL   C11312783   0.596   4.188   4.303  0.6988  0.4724 -0.0055
   36MOL   C11412784   0.487   4.096   4.242  0.0046  0.5581  0.0828
   36MOL   C11512785   0.734   4.114   4.288  0.0624  0.9854 -0.1449
   36MOL   H11612786   0.638   4.448   4.715  1.3454  0.6363 -0.5632
   36MOL   H11712787   0.524   4.316   4.685 -0.1936  0.6999 -1.2773
   36MOL   H11812788   0.731   4.367   4.467 -1.1084  3.6764 -1.7553
   36MOL   H11912789   0.454   4.231   4.445 -0.4316 -3.0848  0.3447
   36MOL   H12012790   0.573   4.139   4.513 -3.3360 -0.3051  0.2519
   36MOL   H12112791   0.605   4.277   4.241 -0.3827  0.0568 -0.7732
   36MOL   H12212792   0.512   4.068   4.139  0.0679  0.8254  0.0272
   36MOL   H12312793   0.388   4.140   4.230  1.1049  2.8452 -0.7984
   36MOL   H12412794   0.471   4.000   4.291 -0.5624 -1.3860 -3.6591
   36MOL   H12512795   0.762   4.074   4.191 -0.6601 -0.4463  0.2307
   36MOL   H12612796   0.734   4.035   4.362  0.2262 -1.2318 -2.4408
   36MOL   H12712797   0.816   4.179   4.318 -0.4663  1.5858  0.0347
   36MOL   C12812798   0.547   4.487   4.443  0.1532  0.2321 -0.2496
   36MOL   C12912799   0.604   4.622   4.479  0.2715 -0.7561 -0.5862
   36MOL   C13012800   0.501   4.729   4.440 -0.4719  0.3556 -0.2570
   36MOL   C13112801   0.364   4.733   4.503  0.1537  0.1850  0.5257
   36MOL   C13212802   0.369   4.764   4.659 -0.5333  0.1183  0.2361
   36MOL   C13312803   0.282   4.844   4.440  0.0551 -0.1129 -0.1590
   36MOL   H13412804   0.445   4.487   4.480  0.3709  0.8819  0.3547
   36MOL   H13512805   0.524   4.475   4.337  1.5174  3.3134 -0.9540
   36MOL   H13612806   0.613   4.619   4.588 -2.0679  1.0115 -0.3133
   36MOL   H13712807   0.537   4.830   4.459  0.4831 -0.6549  3.6942
   36MOL   H13812808   0.499   4.723   4.331  1.2756 -1.3980 -0.2256
   36MOL   H13912809   0.308   4.640   4.500 -0.4742  0.5967 -3.2097
   36MOL   H14012810   0.420   4.859   4.673 -1.5596  0.7864 -0.4568
   36MOL   H14112811   0.418   4.681   4.709 -1.5760  0.9013  2.6386
   36MOL   H14212812   0.272   4.757   4.709 -1.3964 -1.9079 -1.6332
   36MOL   H14312813   0.332   4.941   4.439  1.1371 -0.6588  0.4067
   36MOL   H14412814   0.264   4.828   4.334 -0.7088  3.8954 -0.7089
   36MOL   H14512815   0.182   4.857   4.480 -0.5485 -2.0570 -0.9721
   36MOL   C14612816   0.741   4.657   4.408 -0.0909  0.3435  0.3528
   36MOL   C14712817   0.830   4.763   4.466  0.4785  0.5803 -0.8096
   36MOL   C14812818   0.968   4.789   4.401 -0.0433  0.0242 -0.0699
   36MOL   C14912819   0.958   4.823   4.252 -0.8115 -0.4864  0.0063
   36MOL   C15012820   0.898   4.962   4.232  0.8002  0.0853 -0.2504
   36MOL   C15112821   1.095   4.811   4.182  0.2928 -0.1822 -0.0444
   36MOL   H15212822   0.724   4.670   4.301 -0.5614 -0.7408  0.2979
   36MOL   H15312823   0.811   4.574   4.405 -1.1353 -0.5958  1.6283
   36MOL   H15412824   0.781   4.860   4.472  0.4557  0.3618  3.9701
   36MOL   H15512825   1.023   4.866   4.456  1.4921 -0.0020 -1.5431
   36MOL   H15612826   1.031   4.701   4.401 -0.8126 -0.5494 -1.5817
   36MOL   H15712827   0.907   4.748   4.193  0.5952 -0.0808 -1.7517
   36MOL   H15812828   0.921   5.014   4.139  4.6777 -0.8701  0.0855
   36MOL   H15912829   0.939   5.023   4.312  1.2912  0.7474 -0.9977
   36MOL   H16012830   0.789   4.960   4.236  0.7144  3.1237  0.2167
   36MOL   H16112831   1.177   4.860   4.236 -0.5524  1.3333 -0.1257
   36MOL   H16212832   1.093   4.874   4.093 -0.6373  1.6801  1.2707
   36MOL   H16312833   1.132   4.715   4.143 -0.0410  0.8220 -2.9570
   36MOL   C16412834   0.870   4.720   4.608 -0.1180 -0.2617 -0.0003
   36MOL   C16512835   0.802   4.798   4.721 -0.1360  0.9083 -0.5972
   36MOL   C16612836   0.787   4.707   4.847 -0.2990 -0.0459 -0.4565
   36MOL   C16712837   0.713   4.751   4.977  0.3310 -0.3851 -0.4601
   36MOL   C16812838   0.566   4.790   4.946 -0.2411  0.6392  0.2265
   36MOL   C16912839   0.718   4.636   5.078  0.5742 -0.1654 -0.7920
   36MOL   H17012840   0.867   4.612   4.623 -2.5692  0.0850  2.4254
   36MOL   H17112841   0.975   4.745   4.620  0.2192 -1.7580  0.2221
   36MOL   H17212842   0.700   4.818   4.687  0.0789 -0.5467 -2.1618
   36MOL   H17312843   0.748   4.609   4.820 -1.7157 -0.0675  1.5230
   36MOL   H17412844   0.891   4.678   4.862  0.0209  0.6930 -1.2467
   36MOL   H17512845   0.757   4.844   5.012  0.3831 -0.9751  1.0809
   36MOL   H17612846   0.554   4.880   4.886 -0.1583  0.1959 -0.4581
   36MOL   H17712847   0.515   4.818   5.038 -0.5239 -1.6692  0.8011
   36MOL   H17812848   0.509   4.705   4.908  1.5550  0.0593 -1.2433
   36MOL   H17912849   0.805   4.654   5.142 -1.2309 -1.8710  2.2804
   36MOL   H18012850   0.722   4.535   5.038  1.0354  0.4811 -2.4468
   36MOL   H18112851   0.641   4.647   5.154  0.2201  0.7949 -1.2802
   36MOL   C18212852   0.878   4.926   4.759  0.1213  0.4497  0.6706
   36MOL   C18312853   0.834   5.053   4.682  0.1821 -0.9005  1.4346
   36MOL   C18412854   0.685   5.084   4.668 -0.5960  0.4756 -0.6174
   36MOL   C18512855   0.646   5.201   4.574  0.5845 -0.3216  0.0355
   36MOL   C18612856   0.716   5.189   4.438 -0.1916 -0.2769 -0.1367
   36MOL   C18712857   0.497   5.202   4.552  0.1313 -0.2582  0.9085
   36MOL   H18812858   0.986   4.920   4.745 -0.1959  1.6003 -2.6394
   36MOL   H18912859   0.850   4.949   4.862 -1.9568  1.0237 -0.0042
   36MOL   H19012860   0.861   5.040   4.577  1.0013 -1.2097  1.6737
   36MOL   H19112861   0.645   5.103   4.767 -0.9308 -1.6050 -0.3203
   36MOL   H19212862   0.627   4.998   4.632 -1.3373  0.8108 -0.2283
   36MOL   H19312863   0.667   5.300   4.615 -1.4587  0.8434 -1.6524
   36MOL   H19412864   0.823   5.206   4.439 -0.3186  0.4817  0.6417
   36MOL   H19512865   0.691   5.273   4.374 -0.1015  0.1494  0.3906
   36MOL   H19612866   0.687   5.109   4.369  0.7731 -2.0959  1.5263
   36MOL   H19712867   0.478   5.265   4.464  0.6402  0.0538  1.0165
   36MOL   H19812868   0.443   5.249   4.634 -0.5893  0.3960  0.0788
   36MOL   H19912869   0.451   5.110   4.517  1.1780  0.0213 -1.3026
   36MOL   C20012870   0.913   5.175   4.733 -0.3320 -0.1241 -0.6191
   36MOL   C20112871   1.027   5.235   4.647  0.2139 -0.1890  0.8317
   36MOL   C20212872   1.143   5.131   4.649  0.1117 -0.1159 -0.1974
   36MOL   C20312873   1.267   5.170   4.566  0.2520 -0.2040  0.0532
   36MOL   C20412874   1.386   5.078   4.599 -0.9706 -0.3116  1.0370
   36MOL   C20512875   1.247   5.179   4.415  0.1220 -0.2456 -0.0719
   36MOL   H20612876   0.948   5.155   4.834 -0.8890 -0.3542 -0.4703
   36MOL   H20712877   0.841   5.252   4.759  1.0396  0.7123  0.8519
   36MOL   H20812878   0.993   5.248   4.544  1.2187 -0.8980  0.4028
   36MOL   H20912879   1.163   5.096   4.750 -0.6621 -0.8720 -0.3047
   36MOL   H21012880   1.094   5.048   4.598  0.6704  0.8093 -2.3416
   36MOL   H21112881   1.306   5.268   4.590 -1.6200  0.1771  1.6735
   36MOL   H21212882   1.475   5.123   4.553  0.0078 -3.2120 -0.0343
   36MOL   H21312883   1.365   4.974   4.576 -0.1958 -0.5450  1.3604
   36MOL   H21412884   1.399   5.070   4.707 -1.2194 -0.2460  1.0711
   36MOL   H21512885   1.340   5.220   4.375  1.0913 -0.3166  2.0814
   36MOL   H21612886   1.154   5.232   4.394  0.7185  1.0664  0.5624
   36MOL   H21712887   1.233   5.076   4.381  1.0490 -0.6266  0.6861
   36MOL   C21812888   1.077   5.370   4.701 -0.0230  0.5074  0.5612
   36MOL   C21912889   0.978   5.485   4.678  0.1085 -0.1246 -0.5444
   36MOL   C22012890   1.040   5.592   4.582 -0.1518  0.5823  0.4182
   36MOL   C22112891   1.087   5.547   4.446 -0.4078  0.0567 -0.3754
   36MOL   C22212892   0.970   5.497   4.350 -0.1120  0.1066  1.0729
   36MOL   C22312893   1.165   5.659   4.374  0.0674  0.1128 -0.1419
   36MOL   H22412894   1.105   5.349   4.804  2.0516 -1.0644 -0.2951
   36MOL   H22512895   1.175   5.404   4.667 -0.2907  2.0154  1.2237
   36MOL   H22612896   0.891   5.442   4.629 -1.8146  0.4405  2.2797
   36MOL   H22712897   0.961   5.666   4.567 -1.8726 -1.4337 -0.7765
   36MOL   H22812898   1.114   5.654   4.632 -0.7359  2.0094 -0.4624
   36MOL   H22912899   1.165   5.475   4.472 -2.1939 -1.9395 -0.3902
   36MOL   H23012900   0.902   5.576   4.321  0.6288 -0.5655 -2.6988
   36MOL   H23112901   1.003   5.462   4.252 -1.4521 -1.4697  1.1492
   36MOL   H23212902   0.918   5.407   4.383 -2.5235  0.8298 -0.6786
   36MOL   H23312903   1.193   5.624   4.275 -0.7060  0.3302 -0.4395
   36MOL   H23412904   1.104   5.750   4.372 -0.7231 -0.3995  0.2622
   36MOL   H23512905   1.262   5.673   4.422 -0.4285 -1.0535  1.2497
   36MOL   C23612906   0.935   5.536   4.817 -0.1284  0.6320 -0.2499
   36MOL   C23712907   0.811   5.629   4.819  0.0398  0.2278  0.0952
   36MOL   C23812908   0.803   5.690   4.959  0.0435  0.6729 -0.1881
   36MOL   C23912909   0.898   5.800   4.985  0.3195 -0.1463 -0.0107
   36MOL   C24012910   0.881   5.930   4.906  0.3301 -0.5144 -0.1291
   36MOL   C24112911   0.918   5.819   5.141 -0.4887 -0.2600  0.4421
   36MOL   H24212912   1.029   5.585   4.842  1.4523 -1.6552 -1.4926
   36MOL   H24312913   0.929   5.457   4.892 -1.7379  0.5633 -0.4315
   36MOL   H24412914   0.827   5.701   4.739 -0.1761 -0.0951 -0.2432
   36MOL   H24512915   0.820   5.612   5.033 -0.9840  2.5426  2.0851
   36MOL   H24612916   0.703   5.720   4.989 -0.3037 -0.7231  0.0913
   36MOL   H24712917   0.995   5.764   4.950  1.3442  3.0213 -0.5728
   36MOL   H24812918   0.861   5.903   4.803 -0.4383 -1.0457  0.1516
   36MOL   H24912919   0.970   5.992   4.913 -1.8102  2.5153  1.2137
   36MOL   H25012920   0.793   5.983   4.942  0.7909 -0.7919  1.4862
   36MOL   H25112921   0.837   5.888   5.167 -0.8543 -1.2486  1.9122
   36MOL   H25212922   1.012   5.873   5.153 -0.3602 -0.4457  0.2736
   36MOL   H25312923   0.924   5.738   5.212  1.6781 -0.0669  0.5184
   36MOL   C25412924   0.686   5.539   4.789  0.1975 -0.3700 -0.4290
   36MOL   C25512925   0.553   5.618   4.786 -0.2333  0.3714  0.3405
   36MOL   C25612926   0.492   5.622   4.644 -0.3048  0.2661  0.8336
   36MOL   C25712927   0.590   5.678   4.532  0.1112  0.3919  0.2013
   36MOL   C25812928   0.582   5.832   4.533  0.0525 -0.5394 -0.0763
   36MOL   C25912929   0.569   5.609   4.386 -0.1888 -0.3799 -0.1181
   36MOL   H26012930   0.705   5.486   4.696 -0.5182 -0.4594 -0.5195
   36MOL   H26112931   0.679   5.461   4.865  0.1313 -1.4209 -1.4981
   36MOL   H26212932   0.575   5.725   4.789  4.7607 -0.5076  0.6605
   36MOL   H26312933   0.400   5.680   4.639  1.8671  3.6756 -1.6264
   36MOL   H26412934   0.464   5.523   4.609  1.2077  0.6061 -1.4489
   36MOL   H26512935   0.693   5.653   4.554 -0.5502 -0.3657  2.5818
   36MOL   H26612936   0.497   5.867   4.593  2.3271  0.7335  2.5326
   36MOL   H26712937   0.573   5.885   4.438  1.1558 -1.3779 -0.6474
   36MOL   H26812938   0.673   5.875   4.574  1.1588 -0.9272 -2.0827
   36MOL   H26912939   0.493   5.662   4.328 -0.6086 -0.7029  0.1301
   36MOL   H27012940   0.660   5.617   4.326  0.0261  0.7986  0.3424
   36MOL   H27112941   0.553   5.502   4.400 -0.8768 -0.0423  1.7243
   36MOL   C27212942   0.459   5.590   4.906  0.0743 -0.4785  0.8731
   36MOL   C27312943   0.345   5.697   4.942 -0.5098 -0.2429 -0.3238
   36MOL   C27412944   0.214   5.630   4.984 -0.4129 -1.1819 -0.1539
   36MOL   C27512945   0.127   5.559   4.879  0.3507  0.2936  0.1031
   36MOL   C27612946   0.050   5.657   4.791 -0.8548  0.1823 -0.1171
   36MOL   C27712947   0.024   5.451   4.935 -0.0408 -0.3830  0.0988
   36MOL   H27812948   0.410   5.493   4.905  1.8108 -1.3513  0.0846
   36MOL   H27912949   0.522   5.589   4.995  0.2738 -0.1761  0.7382
   36MOL   H28012950   0.329   5.753   4.850  2.5182 -1.6182 -1.7516
   36MOL   H28112951   0.141   5.696   5.030  0.7619  0.0951 -0.1058
   36MOL   H28212952   0.225   5.563   5.069 -1.0624 -0.8420  0.2015
   36MOL   H28312953   0.190   5.502   4.810  0.1107 -0.2955  0.3648
   36MOL   H28412954   7.746   5.727   4.853  0.0770  0.2285  0.7037
   36MOL   H28512955   0.117   5.718   4.730  0.5723 -1.3065 -0.0884
   36MOL   H28612956   7.731   5.601   4.730 -1.4364  0.0358  0.6895
   36MOL   H28712957   0.077   5.374   4.992  0.5773 -1.1593 -1.4777
   36MOL   H28812958   7.697   5.501   4.991  0.4773 -0.8119  1.2475
   36MOL   H28912959   7.725   5.391   4.860  0.3079 -0.4248 -0.1058
   36MOL   C29012960   0.390   5.803   5.047  0.5402  0.7472 -0.0281
   36MOL   C29112961   0.351   5.946   5.012 -0.9210 -0.4187  0.3355
   36MOL   C29212962   0.341   6.036   5.139  1.0716 -0.0404  0.1392
   36MOL   C29312963   0.210   6.015   5.226 -0.4994 -0.2962  0.5644
   36MOL   C29412964   0.203   6.110   5.346 -0.5533  0.3160 -0.1085
   36MOL   C29512965   0.080   6.015   5.144 -0.5482  0.4637 -0.1189
   36MOL   H29612966   0.349   5.758   5.138  0.3099 -0.2486 -0.6224
   36MOL   H29712967   0.497   5.811   5.069  0.0063  0.4123  2.9219
   36MOL   H29812968   0.250   5.927   4.974 -1.7534 -1.1639  2.8005
   36MOL   H29912969   0.343   6.140   5.107 -0.3673  0.0918  0.4183
   36MOL   H30012970   0.431   6.014   5.196  1.2295 -0.8138 -0.3952
   36MOL   H30112971   0.224   5.915   5.268  0.7612 -1.4787 -2.5415
   36MOL   H30212972   0.299   6.121   5.397  0.6685  0.6992 -2.4341
   36MOL   H30312973   0.132   6.071   5.419 -1.1307  0.5891 -0.5296
   36MOL   H30412974   0.169   6.211   5.328  0.8201  0.9055  0.4688
   36MOL   H30512975   7.745   6.007   5.208 -0.1677 -1.5084  0.1619
   36MOL   H30612976   0.071   5.924   5.085 -0.4740 -0.3694  1.1415
   36MOL   H30712977   0.063   6.103   5.081 -1.1961  0.1212 -0.4222
   36MOL   C30812978   0.440   6.010   4.899  0.1646 -0.1945  0.2976
   36MOL   C30912979   0.366   6.136   4.827  0.0339 -0.2284 -0.1552
   36MOL   C31012980   0.473   6.231   4.764 -0.2392  0.7067 -0.3778
   36MOL   C31112981   0.531   6.333   4.870 -0.4280  0.0833 -0.9767
   36MOL   C31212982   0.688   6.341   4.855  0.4545 -0.0385  0.8049
   36MOL   C31312983   0.462   6.469   4.847 -0.4872  0.0747  0.8715
   36MOL   H31412984   0.538   6.036   4.937  0.8307 -2.3989  0.2047
   36MOL   H31512985   0.472   5.934   4.827  3.0111  0.0402  1.2665
   36MOL   H31612986   0.316   6.193   4.905 -0.0427  0.3614 -0.6373
   36MOL   H31712987   0.426   6.285   4.682 -1.3843  1.8320  0.9727
   36MOL   H31812988   0.549   6.158   4.736  1.7260  2.1295  1.1321
   36MOL   H31912989   0.519   6.297   4.972 -0.0588  0.9607 -0.6229
   36MOL   H32012990   0.735   6.243   4.846 -1.2792 -0.8208 -0.1624
   36MOL   H32112991   0.725   6.387   4.947 -1.4117  2.0921  0.5239
   36MOL   H32212992   0.720   6.407   4.775  0.0497  0.3270  0.9425
   36MOL   H32312993   0.496   6.549   4.913  0.6429 -1.7552  2.5652
   36MOL   H32412994   0.485   6.485   4.742  0.2635 -3.0434  0.5239
   36MOL   H32512995   0.357   6.446   4.864 -0.9255  1.2536 -0.2038
   36MOL   C32612996   0.272   6.084   4.721 -0.5720 -0.3782  0.3267
   36MOL   C32712997   0.152   6.175   4.687  0.8191  0.2435  0.5416
   36MOL   C32812998   0.055   6.181   4.809  0.7951  0.0155 -0.1404
   36MOL   C32912999   7.685   6.279   4.791 -0.4184 -0.0735  0.1556
   36MOL   C33013000   7.577   6.250   4.887  0.2517 -0.4518 -0.7505
   36MOL   C33113001   7.727   6.427   4.798  0.1212  0.3664  0.8987
   36MOL   H33213002   0.235   5.987   4.754 -1.3775 -0.0357  0.4397
   36MOL   H33313003   0.335   6.066   4.634  0.8335  0.2165  1.1924
   36MOL   H33413004   0.193   6.275   4.675  0.9420  0.0495 -0.6971
   36MOL   H33513005   0.034   6.084   4.854  3.6114 -0.2608  0.6720
   36MOL   H33613006   0.108   6.234   4.888 -0.5079 -0.8229  1.3268
   36MOL   H33713007   7.646   6.260   4.691  2.1658  0.8837 -1.0794
   36MOL   H33813008   7.572   6.147   4.920 -0.1787 -0.6848 -1.5198
   36MOL   H33913009   7.476   6.284   4.862 -1.4310 -2.8076  2.5421
   36MOL   H34013010   7.623   6.291   4.976  0.9025  0.4266 -1.4766
   36MOL   H34113011   0.044   6.444   4.880  1.7389  1.9367 -0.7513
   36MOL   H34213012   0.041   6.453   4.716 -1.3593  0.7769 -0.1940
   36MOL   H34313013   7.644   6.497   4.807  1.3918  1.6730  2.6179
   36MOL   C34413014   0.091   6.139   4.550 -0.0567 -0.1700 -0.1850
   36MOL   C34513015   7.751   6.015   4.540  0.5880  0.5739 -1.0014
   36MOL   C34613016   7.680   5.993   4.405 -0.4836  0.6123 -0.2535
   36MOL   C34713017   7.566   5.882   4.396 -0.8494 -0.2930  0.4301
   36MOL   C34813018   7.439   5.929   4.456 -0.1819 -0.2462  0.2920
   36MOL   C34913019   7.614   5.751   4.458 -0.3779 -0.4250 -0.7502
   36MOL   H35013020   0.173   6.119   4.480  0.8678 -0.4298  0.9513
   36MOL   H35113021   0.026   6.218   4.513 -0.4686 -1.1107 -1.5007
   36MOL   H35213022   7.674   6.020   4.617  0.1937  5.0026 -1.5403
   36MOL   H35313023   7.663   6.090   4.359 -3.3086  0.0366 -0.5019
   36MOL   H35413024   0.007   5.953   4.342  0.2141 -0.4582  1.2762
   36MOL   H35513025   7.550   5.863   4.290  0.6073  1.0779 -0.0497
   36MOL   H35613026   7.364   5.850   4.442  0.6517 -0.7857 -1.1814
   36MOL   H35713027   7.446   5.958   4.560  1.2042  1.4958 -0.2813
   36MOL   H35813028   7.399   6.016   4.404  1.2117 -0.2640 -0.8433
   36MOL   H35913029   7.547   5.666   4.442 -0.7569 -0.7289  2.1602
   36MOL   H36013030   7.606   5.752   4.567 -0.4783 -0.3186 -0.7579
   36MOL   H36113031   7.715   5.727   4.427  0.0804 -1.3607  1.3452
   36MOL   H36213032   0.047   5.922   4.571  0.2501  0.4712 -0.7884
   37MOL     C113033   3.297   3.464   5.585 -0.0618 -0.3301 -0.5638
   37MOL     C213034   3.283   3.322   5.533 -0.3292 -0.1048 -0.5406
   37MOL     C313035   3.171   3.323   5.424 -0.0160  0.5871  0.5345
   37MOL     C413036   3.201   3.391   5.286  0.0152  0.0539 -1.1653
   37MOL     C513037   3.087   3.346   5.193  0.2517 -0.1460 -0.4791
   37MOL     C613038   3.341   3.370   5.228 -0.2663 -0.2324  0.2629
   37MOL     H713039   3.397   3.490   5.619 -0.5069  2.2791 -1.1423
   37MOL     H813040   3.269   3.543   5.515 -0.5088 -0.7407 -0.8476
   37MOL     H913041   3.377   3.297   5.483  2.1766  0.8865  3.4752
   37MOL    H1013042   3.154   3.219   5.396  0.1992  0.1231  2.0866
   37MOL    H1113043   3.078   3.356   5.471 -0.4279  0.4845 -0.2118
   37MOL    H1213044   3.186   3.498   5.294 -1.1793 -0.2546  1.1170
   37MOL    H1313045   3.101   3.241   5.171 -0.0522 -0.4957  0.9352
   37MOL    H1413046   2.982   3.341   5.221  0.0622 -1.8731 -1.4999
   37MOL    H1513047   3.100   3.402   5.100 -1.4667 -1.5452 -1.5747
   37MOL    H1613048   3.350   3.438   5.143  0.6874  0.1968  0.6956
   37MOL    H1713049   3.352   3.271   5.184 -0.8725 -0.8375  1.4460
   37MOL    H1813050   3.416   3.397   5.302  1.0171 -2.7097 -0.0989
   37MOL    H1913051   3.236   3.462   5.676  2.9360  1.7641  1.6123
   37MOL    C2013052   3.255   3.217   5.642  1.4591  0.4951  0.8366
   37MOL    C2113053   3.379   3.187   5.728  0.4112 -0.4202 -0.2268
   37MOL    C2213054   3.345   3.109   5.861 -0.2287 -0.3349 -0.1535
   37MOL    C2313055   3.290   3.193   5.981 -0.2185 -0.1826  0.1657
   37MOL    C2413056   3.213   3.096   6.075 -0.1219  0.3662  0.3559
   37MOL    C2513057   3.406   3.276   6.048 -0.3013  0.8519 -0.0912
   37MOL    H2613058   3.178   3.254   5.709 -0.1603 -0.2825 -0.5513
   37MOL    H2713059   3.202   3.129   5.604 -1.6716  2.3470  0.7037
   37MOL    H2813060   3.409   3.282   5.773  0.8372 -1.8428  2.6527
   37MOL    H2913061   3.435   3.066   5.904  0.7126  2.2827  0.6017
   37MOL    H3013062   3.271   3.035   5.830 -1.3906  1.4841 -1.8575
   37MOL    H3113063   3.227   3.269   5.934  0.0025  0.2863  0.6180
   37MOL    H3213064   3.121   3.060   6.031 -0.4218  0.3577  0.9833
   37MOL    H3313065   3.184   3.144   6.169  3.3168 -1.2221  2.3746
   37MOL    H3413066   3.272   3.009   6.105 -0.8493 -0.4505 -0.5900
   37MOL    H3513067   3.474   3.209   6.101 -2.3737 -1.5930 -0.4185
   37MOL    H3613068   3.471   3.333   5.982  0.6777 -0.7343 -0.5174
   37MOL    H3713069   3.370   3.348   6.122  0.2850  1.5140 -0.4528
   37MOL    C3813070   3.494   3.111   5.652  0.0132  0.1804  0.4481
   37MOL    C3913071   3.643   3.164   5.674  0.5364 -0.2195 -0.3258
   37MOL    C4013072   3.663   3.294   5.585 -0.2543 -0.4411  0.2732
   37MOL    C4113073   3.779   3.386   5.623 -0.0712 -0.1976 -0.1976
   37MOL    C4213074   3.729   3.519   5.679 -0.2373  0.7335  0.5014
   37MOL    C4313075   3.884   3.399   5.518  0.1802 -0.3278  0.2739
   37MOL    H4413076   3.465   3.111   5.547 -0.2020  1.2286  0.5007
   37MOL    H4513077   3.486   3.007   5.682  1.8712 -0.2792 -0.5440
   37MOL    H4613078   3.661   3.191   5.778  1.1160 -1.8488 -0.0006
   37MOL    H4713079   3.570   3.350   5.581 -0.0732 -0.1927 -0.6206
   37MOL    H4813080   3.684   3.253   5.486  3.0685  0.0449  0.7257
   37MOL    H4913081   3.825   3.352   5.716  1.0615  2.5789  0.3075
   37MOL    H5013082   3.712   3.590   5.598  1.1561  1.6987  1.0390
   37MOL    H5113083   3.631   3.515   5.726 -2.0282 -0.1729 -3.1159
   37MOL    H5213084   3.799   3.568   5.746  1.4281  1.1815 -1.5134
   37MOL    H5313085   3.841   3.430   5.423 -0.4293 -2.3468 -0.1457
   37MOL    H5413086   3.915   3.297   5.495 -0.8929 -0.8962  1.2402
   37MOL    H5513087   3.972   3.457   5.545  1.2936 -1.0124 -1.7398
   37MOL    C5613088   3.752   3.058   5.641 -0.1740 -0.2729 -0.9143
   37MOL    C5713089   3.780   2.965   5.758 -0.3601 -0.4665 -0.0786
   37MOL    C5813090   3.872   3.037   5.860 -0.2031 -0.3449 -0.7948
   37MOL    C5913091   3.866   2.974   5.996 -0.4922 -0.2425  0.0291
   37MOL    C6013092   3.726   2.978   6.066  0.0209  0.8653  1.2808
   37MOL    C6113093   3.982   3.028   6.080  0.2797 -0.3371  0.1453
   37MOL    H6213094   3.844   3.113   5.624 -0.0399  0.5800  2.2576
   37MOL    H6313095   3.717   2.996   5.558  0.2876 -0.3522 -1.0552
   37MOL    H6413096   3.679   2.940   5.789 -0.1834  0.5848  1.4140
   37MOL    H6513097   3.970   3.072   5.827  0.3910  0.3059  1.5234
   37MOL    H6613098   3.836   3.139   5.876  2.0711  0.3585  0.0737
   37MOL    H6713099   3.904   2.875   5.973  1.7418  0.6124 -0.1754
   37MOL    H6813100   3.739   2.980   6.174  0.1077 -0.6928  1.3096
   37MOL    H6913101   3.662   2.898   6.030  0.5176  1.4662 -0.9953
   37MOL    H7013102   3.674   3.072   6.044 -0.2899  0.7672  1.5919
   37MOL    H7113103   4.074   2.985   6.043  0.3021 -1.0531  0.9975
   37MOL    H7213104   3.953   3.006   6.183 -2.0817  0.3471 -0.3278
   37MOL    H7313105   3.980   3.137   6.085  1.4279 -0.2701 -0.8976
   37MOL    C7413106   3.848   2.834   5.709  0.8855  0.2075 -0.5624
   37MOL    C7513107   3.764   2.709   5.749 -0.1641  0.9614  0.1360
   37MOL    C7613108   3.853   2.576   5.734 -0.0137 -0.3761 -0.1314
   37MOL    C7713109   3.964   2.542   5.843  0.7896  0.5433  1.4519
   37MOL    C7813110   4.055   2.440   5.784 -0.5580  0.5498  0.2144
   37MOL    C7913111   3.894   2.493   5.977 -0.6318  0.0910 -0.0193
   37MOL    H8013112   3.948   2.836   5.752 -0.0015  1.7339  1.5699
   37MOL    H8113113   3.866   2.828   5.602  2.0572  2.2046 -0.4799
   37MOL    H8213114   3.739   2.712   5.855 -1.2744  0.5256 -0.0993
   37MOL    H8313115   3.791   2.487   5.721  1.2047 -1.9240  3.6690
   37MOL    H8413116   3.906   2.589   5.640 -3.0386  1.2273 -1.6874
   37MOL    H8513117   4.011   2.639   5.858  2.2807  0.3971 -1.8514
   37MOL    H8613118   4.028   2.334   5.779  2.1732 -0.1789 -0.5735
   37MOL    H8713119   4.145   2.444   5.846 -1.1887  1.6619  1.0631
   37MOL    H8813120   4.087   2.469   5.683  2.5658 -0.6386  0.8034
   37MOL    H8913121   3.834   2.573   6.020  0.6125 -0.0235  1.9964
   37MOL    H9013122   3.836   2.403   5.954 -0.8064  1.1386 -3.9124
   37MOL    H9113123   3.956   2.446   6.054 -1.0485  0.0971  0.3201
   37MOL    C9213124   3.637   2.691   5.664 -0.2438  0.5002  0.4340
   37MOL    C9313125   3.532   2.616   5.742  0.5614  0.5017  0.0820
   37MOL    C9413126   3.468   2.704   5.853 -0.2558 -0.3197 -0.5729
   37MOL    C9513127   3.401   2.629   5.971  0.4878 -0.1464 -0.4064
   37MOL    C9613128   3.497   2.553   6.064  0.2719 -0.5971  0.3152
   37MOL    C9713129   3.311   2.716   6.053 -0.2758 -0.3941 -0.3265
   37MOL    H9813130   3.602   2.791   5.640 -1.0594  0.0071 -0.4420
   37MOL    H9913131   3.663   2.644   5.569 -2.5022 -0.5874  0.3148
   37MOL   H10013132   3.579   2.538   5.801 -0.8177  0.4597  1.1652
   37MOL   H10113133   3.386   2.760   5.807 -0.3043  1.1904  1.2836
   37MOL   H10213134   3.542   2.774   5.891 -0.2520 -0.1147 -0.9585
   37MOL   H10313135   3.331   2.560   5.922 -0.0531 -0.0974  0.2887
   37MOL   H10413136   3.586   2.609   6.092  1.1407 -0.5276 -2.4875
   37MOL   H10513137   3.539   2.465   6.016  0.7445  1.1421 -2.6099
   37MOL   H10613138   3.445   2.515   6.152 -2.5944  2.6692  0.1766
   37MOL   H10713139   3.259   2.666   6.135  0.1589  1.3420  1.0521
   37MOL   H10813140   3.236   2.767   5.992  0.8784  1.9739  0.1555
   37MOL   H10913141   3.377   2.795   6.090 -0.1427 -0.7956  0.2907
   37MOL   C11013142   3.428   2.532   5.655 -0.5143 -0.1870  0.7103
   37MOL   C11113143   3.303   2.601   5.592  0.4274 -0.0061  0.1240
   37MOL   C11213144   3.346   2.701   5.480  0.7646 -0.0971 -0.0033
   37MOL   C11313145   3.229   2.793   5.441  0.1459  0.3901  0.4423
   37MOL   C11413146   3.276   2.888   5.334 -0.9611 -0.7737  0.1672
   37MOL   C11513147   3.162   2.871   5.563 -0.4676 -0.2465  0.1353
   37MOL   H11613148   3.383   2.459   5.722 -1.1844  1.0838  1.6634
   37MOL   H11713149   3.487   2.480   5.579  3.1084 -0.3384  3.4993
   37MOL   H11813150   3.258   2.657   5.673  0.4632  2.8796 -1.7797
   37MOL   H11913151   3.367   2.635   5.396 -1.0204 -0.5747 -0.1016
   37MOL   H12013152   3.437   2.755   5.506 -0.4275  3.3030 -2.6092
   37MOL   H12113153   3.143   2.740   5.399  1.0048  0.3054 -1.2068
   37MOL   H12213154   3.202   2.965   5.315 -0.3377 -0.1004  0.4479
   37MOL   H12313155   3.288   2.831   5.242 -0.6476  0.6941 -0.7173
   37MOL   H12413156   3.373   2.935   5.350 -1.4170  0.7145 -1.2733
   37MOL   H12513157   3.095   2.809   5.624  1.1961 -0.9629  1.2626
   37MOL   H12613158   3.115   2.965   5.534  2.4362  1.0776 -0.3874
   37MOL   H12713159   3.232   2.911   5.636 -0.5332 -2.5441  1.5382
   37MOL   C12813160   3.199   2.500   5.528 -0.3419  0.4406 -0.4822
   37MOL   C12913161   3.059   2.499   5.591 -0.0227  0.1175 -0.1572
   37MOL   C13013162   3.065   2.452   5.739  0.2633 -0.4967  0.2189
   37MOL   C13113163   2.954   2.496   5.840 -0.3226 -0.0071 -0.1230
   37MOL   C13213164   2.965   2.426   5.975 -0.4609 -0.1812 -0.4060
   37MOL   C13313165   2.955   2.646   5.858  0.7581 -0.5084  0.5384
   37MOL   H13413166   3.242   2.400   5.533  0.6956  0.8652 -0.6956
   37MOL   H13513167   3.187   2.522   5.422  0.2047  1.0701 -0.4184
   37MOL   H13613168   3.004   2.592   5.578 -1.4440 -0.6531  0.2340
   37MOL   H13713169   3.087   2.346   5.749  0.2101 -0.4661  0.6997
   37MOL   H13813170   3.160   2.487   5.780  0.9590 -0.7330 -1.1518
   37MOL   H13913171   2.852   2.464   5.818 -0.6644 -0.1490  1.6135
   37MOL   H14013172   3.062   2.402   6.018 -0.8105  2.6895  2.1804
   37MOL   H14113173   2.921   2.326   5.976  0.6192 -0.6618  0.5209
   37MOL   H14213174   2.916   2.473   6.060  1.5747  1.7382 -0.2318
   37MOL   H14313175   2.869   2.675   5.917 -0.4595  1.3913 -2.0665
   37MOL   H14413176   3.045   2.698   5.888  2.2792 -2.7314 -0.0307
   37MOL   H14513177   2.909   2.683   5.766 -1.7237 -0.3490  1.7957
   37MOL   C14613178   2.967   2.406   5.509 -1.0447 -0.5228 -0.0018
   37MOL   C14713179   2.818   2.394   5.546 -0.4965 -0.5559 -0.2386
   37MOL   C14813180   2.759   2.286   5.455 -0.2069 -0.0083 -0.2874
   37MOL   C14913181   2.664   2.190   5.526  0.2035  0.2336  0.9875
   37MOL   C15013182   2.582   2.113   5.422  0.3988 -0.3824  0.1395
   37MOL   C15113183   2.720   2.094   5.634  0.4716  0.6282  0.0806
   37MOL   H15213184   3.008   2.305   5.518  1.9562  0.6805  0.4177
   37MOL   H15313185   2.973   2.445   5.408 -2.2750  4.0416  1.5799
   37MOL   H15413186   2.819   2.344   5.643 -2.1228  1.1600  0.6922
   37MOL   H15513187   2.701   2.330   5.373  0.7400 -3.9611 -3.2739
   37MOL   H15613188   2.837   2.233   5.400 -0.0983  0.2083 -0.3406
   37MOL   H15713189   2.591   2.254   5.575  0.1593  1.8363 -1.0865
   37MOL   H15813190   2.494   2.062   5.464  0.9492 -2.9011 -1.6706
   37MOL   H15913191   2.639   2.036   5.371 -1.6711 -1.8682  0.0089
   37MOL   H16013192   2.529   2.181   5.355 -1.1041 -0.6299  1.0472
   37MOL   H16113193   2.815   2.053   5.598 -0.0236 -0.1633 -0.3205
   37MOL   H16213194   2.654   2.011   5.661  0.6353  0.4453 -0.0789
   37MOL   H16313195   2.731   2.141   5.732 -1.1061 -1.6959  1.4330
   37MOL   C16413196   2.745   2.527   5.545  0.2644  0.1493 -0.6874
   37MOL   C16513197   2.595   2.527   5.581  0.9230 -0.1217  0.6333
   37MOL   C16613198   2.572   2.491   5.728 -0.0844  0.3269 -0.6827
   37MOL   C16713199   2.435   2.450   5.775 -0.3872 -0.2734 -0.5330
   37MOL   C16813200   2.376   2.321   5.716  0.7129 -0.5964  0.1210
   37MOL   C16913201   2.421   2.436   5.932 -0.5164  0.4949 -0.3690
   37MOL   H17013202   2.802   2.590   5.613 -2.5298 -0.7202  2.5753
   37MOL   H17113203   2.751   2.569   5.445 -1.8775  0.6959 -0.6097
   37MOL   H17213204   2.538   2.454   5.525 -0.0283  1.9661 -1.1973
   37MOL   H17313205   2.638   2.406   5.749  0.0681  0.5180 -0.3837
   37MOL   H17413206   2.607   2.554   5.810  1.0112 -1.6142  0.3919
   37MOL   H17513207   2.366   2.523   5.733  0.2157 -0.7388 -2.3877
   37MOL   H17613208   2.267   2.321   5.724  0.5593 -1.3998 -1.7006
   37MOL   H17713209   2.410   2.230   5.767 -1.5187 -0.8990  1.1384
   37MOL   H17813210   2.381   2.299   5.610  0.8438 -3.0830  0.6073
   37MOL   H17913211   2.439   2.528   5.987 -0.7536  0.0433  0.4702
   37MOL   H18013212   2.501   2.374   5.973 -0.4682 -0.3333 -1.7029
   37MOL   H18113213   2.325   2.390   5.957  0.8764 -3.0355 -1.1176
   37MOL   C18213214   2.543   2.667   5.539  0.1523  0.0458 -0.2606
   37MOL   C18313215   2.516   2.688   5.388 -0.1600 -0.3078  0.2123
   37MOL   C18413216   2.368   2.632   5.358  0.7438 -0.1974  0.8345
   37MOL   C18513217   2.330   2.633   5.205 -0.2231 -0.1875 -0.1976
   37MOL   C18613218   2.418   2.517   5.145  0.2531 -0.2297 -0.5107
   37MOL   C18713219   2.181   2.609   5.185 -0.7125 -0.0838  0.3080
   37MOL   H18813220   2.608   2.743   5.581  0.8864 -1.3210  1.1258
   37MOL   H18913221   2.448   2.679   5.591  0.1304 -1.9388  0.2017
   37MOL   H19013222   2.593   2.631   5.336 -0.5823 -0.3582 -0.3552
   37MOL   H19113223   2.298   2.705   5.397 -0.1332  0.1221 -1.2957
   37MOL   H19213224   2.348   2.539   5.412 -1.3377  0.9535  2.1240
   37MOL   H19313225   2.365   2.728   5.165 -1.4721 -0.3322 -1.6692
   37MOL   H19413226   2.390   2.502   5.041 -2.2061 -0.3445  0.1542
   37MOL   H19513227   2.394   2.426   5.199  0.7763 -0.3311 -0.4484
   37MOL   H19613228   2.524   2.544   5.133  0.4132 -0.5441  0.1935
   37MOL   H19713229   2.127   2.688   5.238 -0.6069 -0.2940  0.7337
   37MOL   H19813230   2.144   2.516   5.230  1.3727 -0.6264  0.9402
   37MOL   H19913231   2.146   2.615   5.082 -1.5895  0.9418  0.6588
   37MOL   C20013232   2.538   2.836   5.340  0.0927  0.2375 -0.3694
   37MOL   C20113233   2.688   2.897   5.360 -0.1878  0.3287  0.2694
   37MOL   C20213234   2.685   3.014   5.462 -0.2326  0.3205 -0.2419
   37MOL   C20313235   2.824   3.029   5.534  0.4667  0.9748 -0.2123
   37MOL   C20413236   2.870   3.170   5.535  0.0921  1.1359  0.0317
   37MOL   C20513237   2.826   2.975   5.685  0.2542 -0.1778 -0.4455
   37MOL   H20613238   2.454   2.891   5.383 -0.6266 -0.1305 -1.2928
   37MOL   H20713239   2.510   2.842   5.235 -1.2749  1.3942  0.0330
   37MOL   H20813240   2.743   2.816   5.409 -0.8203  0.2255  0.8104
   37MOL   H20913241   2.652   3.110   5.420  1.8491  0.4182 -1.7373
   37MOL   H21013242   2.611   2.991   5.539 -0.8747 -1.1536 -1.2664
   37MOL   H21113243   2.900   2.971   5.481 -0.3724  0.5229 -0.9311
   37MOL   H21213244   2.794   3.227   5.588 -2.2973 -1.4688 -0.5171
   37MOL   H21313245   2.866   3.214   5.436 -0.8293 -1.8611 -1.3161
   37MOL   H21413246   2.969   3.190   5.578 -0.7742  2.4522  1.4982
   37MOL   H21513247   2.926   2.966   5.728  0.5997  2.1552 -0.6749
   37MOL   H21613248   2.772   2.881   5.691 -1.2618  0.7119  0.1171
   37MOL   H21713249   2.768   3.050   5.739  1.4183  0.0512  0.5213
   37MOL   C21813250   2.762   2.956   5.235  0.8215  0.0497  0.5537
   37MOL   C21913251   2.799   2.857   5.125 -0.1374 -0.4717  0.2597
   37MOL   C22013252   2.916   2.765   5.177 -0.4005  0.3646 -0.0558
   37MOL   C22113253   2.938   2.642   5.090  0.0212  0.1494  0.1480
   37MOL   C22213254   3.081   2.581   5.124 -0.3909 -0.4272 -0.5559
   37MOL   C22313255   2.828   2.532   5.112  0.0232  0.7014 -0.0996
   37MOL   H22413256   2.707   3.036   5.185  0.6562  0.5620  1.5342
   37MOL   H22513257   2.852   3.013   5.259  0.0843  0.9840  1.1461
   37MOL   H22613258   2.718   2.786   5.104  1.5413 -2.2040 -0.5998
   37MOL   H22713259   3.004   2.828   5.163 -1.4876  2.1337  0.9118
   37MOL   H22813260   2.905   2.742   5.282 -2.3044 -6.2184 -1.4889
   37MOL   H22913261   2.945   2.670   4.985 -0.1723 -0.4379 -0.0218
   37MOL   H23013262   3.168   2.640   5.096  0.5153 -1.9599 -1.0531
   37MOL   H23113263   3.070   2.564   5.232  0.7938  1.5070 -0.0967
   37MOL   H23213264   3.098   2.482   5.081 -1.3542  0.1513 -2.3018
   37MOL   H23313265   2.731   2.559   5.068 -1.0653 -1.0899  1.1431
   37MOL   H23413266   2.863   2.442   5.062 -1.9997 -0.4732  0.5419
   37MOL   H23513267   2.821   2.513   5.219  1.0316 -1.3080 -0.3769
   37MOL   C23613268   2.838   2.938   4.995 -0.3048 -0.0403  0.0913
   37MOL   C23713269   2.738   3.013   4.915  0.4426 -0.2365  0.0729
   37MOL   C23813270   2.634   2.919   4.851  0.2748 -0.2994  0.4082
   37MOL   C23913271   2.493   2.921   4.920 -0.6912  0.4917  0.6348
   37MOL   C24013272   2.399   3.036   4.881  0.1793  0.6439 -0.1720
   37MOL   C24113273   2.417   2.787   4.881  0.3634 -0.3503 -0.7880
   37MOL   H24213274   2.913   2.884   4.938 -0.0350  0.6781 -0.2485
   37MOL   H24313275   2.913   3.009   5.031 -0.6724 -0.4768  1.7652
   37MOL   H24413276   2.689   3.078   4.988 -0.6527 -1.6340  0.6055
   37MOL   H24513277   2.676   2.818   4.853 -1.2350 -0.9617 -0.2151
   37MOL   H24613278   2.614   2.946   4.748 -0.3297  2.1569  1.1347
   37MOL   H24713279   2.505   2.932   5.028 -4.6310  0.6879  1.1262
   37MOL   H24813280   2.425   3.138   4.909 -0.8852  0.2515  2.4165
   37MOL   H24913281   2.299   3.019   4.921  1.0883 -2.8911  0.7265
   37MOL   H25013282   2.386   3.036   4.773  0.4622 -0.9966 -0.2250
   37MOL   H25113283   2.480   2.698   4.881 -0.5630 -1.0633  2.6330
   37MOL   H25213284   2.391   2.791   4.775 -0.1449 -1.6048 -0.7193
   37MOL   H25313285   2.332   2.753   4.940  0.3518  1.3171  0.1923
   37MOL   C25413286   2.809   3.100   4.802  0.0120  0.9931 -0.4603
   37MOL   C25513287   2.727   3.221   4.753 -1.0617 -0.5090  0.3944
   37MOL   C25613288   2.746   3.330   4.865 -0.2009  0.5737  0.0479
   37MOL   C25713289   2.656   3.453   4.850 -0.3528  0.1812  1.2974
   37MOL   C25813290   2.679   3.555   4.959  0.0301 -0.1233 -0.3992
   37MOL   C25913291   2.512   3.420   4.810  0.0575  0.4386 -0.2349
   37MOL   H26013292   2.906   3.140   4.832 -0.0611  0.4628  0.4934
   37MOL   H26113293   2.827   3.026   4.724  3.9335  1.3249  0.0525
   37MOL   H26213294   2.622   3.191   4.759 -1.3431 -0.1720 -2.2348
   37MOL   H26313295   2.848   3.368   4.874 -1.5009  3.9694  1.7534
   37MOL   H26413296   2.718   3.292   4.963 -1.4310 -0.1683 -0.5832
   37MOL   H26513297   2.697   3.500   4.761 -1.2888 -1.1544  0.1388
   37MOL   H26613298   2.783   3.578   4.985 -0.5793 -0.6661  2.7591
   37MOL   H26713299   2.641   3.503   5.047  2.6816  0.4303  1.1327
   37MOL   H26813300   2.633   3.653   4.946 -1.4496 -0.4500  2.0821
   37MOL   H26913301   2.501   3.366   4.716  0.1898 -0.6115  0.3439
   37MOL   H27013302   2.465   3.350   4.878 -0.1852  1.4109  0.6146
   37MOL   H27113303   2.447   3.506   4.792  1.1461  1.3675  0.1685
   37MOL   C27213304   2.761   3.270   4.605 -0.5700  0.3172 -0.6614
   37MOL   C27313305   2.744   3.173   4.494  0.0988  0.5577  0.1901
   37MOL   C27413306   2.591   3.138   4.494  0.5405  0.2309 -0.2746
   37MOL   C27513307   2.536   3.034   4.390  0.0151  0.2118  0.1329
   37MOL   C27613308   2.389   3.045   4.374 -0.1773  0.3337 -0.1684
   37MOL   C27713309   2.581   2.889   4.414  0.4184  0.1998  0.1780
   37MOL   H27813310   2.697   3.356   4.585  0.2681  0.6842 -1.7464
   37MOL   H27913311   2.865   3.300   4.601 -0.5589  0.2200 -1.0498
   37MOL   H28013312   2.804   3.083   4.505  1.3338  1.3939  0.3945
   37MOL   H28113313   2.533   3.230   4.494 -0.4092 -0.3574 -0.5824
   37MOL   H28213314   2.558   3.095   4.589  0.1150  1.0913 -0.0245
   37MOL   H28313315   2.560   3.077   4.293  0.2970  0.1536  0.1742
   37MOL   H28413316   2.366   2.965   4.303 -1.3305  0.1384  0.4141
   37MOL   H28513317   2.340   3.023   4.469 -0.1360 -2.0823 -0.6801
   37MOL   H28613318   2.365   3.143   4.335 -0.7178  0.9217  1.5974
   37MOL   H28713319   2.680   2.876   4.456  1.0949  0.2880 -1.3764
   37MOL   H28813320   2.515   2.847   4.490  1.1068 -1.2419 -0.0166
   37MOL   H28913321   2.567   2.836   4.320  0.2429 -0.6661  0.6863
   37MOL   C29013322   2.785   3.235   4.359  0.7301 -0.0019 -0.0357
   37MOL   C29113323   2.930   3.272   4.328  0.0476 -0.1080  0.2133
   37MOL   C29213324   2.968   3.409   4.373 -0.1187  0.1778 -0.1495
   37MOL   C29313325   3.035   3.498   4.271 -0.3746 -0.2889  0.9052
   37MOL   C29413326   2.940   3.552   4.157  0.0277  0.2294 -0.1154
   37MOL   C29513327   3.120   3.604   4.337  0.2248  0.3318  0.2980
   37MOL   H29613328   2.756   3.165   4.281 -1.3278 -1.5962  2.0762
   37MOL   H29713329   2.723   3.322   4.341  1.9749  1.2308  1.4838
   37MOL   H29813330   2.921   3.279   4.220  0.8774 -1.7105  0.0211
   37MOL   H29913331   3.033   3.401   4.460 -1.5255 -1.1771  0.7827
   37MOL   H30013332   2.873   3.456   4.400  0.5444  1.0396  0.7444
   37MOL   H30113333   3.098   3.436   4.207 -0.1350  0.8249  0.0402
   37MOL   H30213334   3.001   3.589   4.075  0.9422 -1.0911 -0.0570
   37MOL   H30313335   2.877   3.630   4.200  1.6760  1.3030  0.4220
   37MOL   H30413336   2.884   3.473   4.107  1.4837 -0.4866 -0.6664
   37MOL   H30513337   3.107   3.684   4.264  0.1342 -0.9740 -1.1426
   37MOL   H30613338   3.223   3.576   4.359 -0.1722 -0.0013  1.7546
   37MOL   H30713339   3.077   3.645   4.428 -0.8692 -0.8734  0.3346
   37MOL   C30813340   3.033   3.166   4.372  0.7833 -0.4780 -0.5643
   37MOL   C30913341   3.011   3.028   4.305 -0.5797  0.0153  0.7190
   37MOL   C31013342   3.032   3.032   4.151  0.2597 -0.2263 -0.1895
   37MOL   C31113343   2.962   2.922   4.074  0.4342 -0.0580 -0.3946
   37MOL   C31213344   2.814   2.940   4.056 -0.1114 -0.0535 -0.1323
   37MOL   C31313345   3.033   2.883   3.944 -0.6558  0.7444  0.0454
   37MOL   H31413346   3.137   3.196   4.361  0.3468  0.7992 -1.4269
   37MOL   H31513347   3.018   3.156   4.479  1.1070 -1.3884 -0.6039
   37MOL   H31613348   2.907   3.000   4.325 -0.6849  0.8701  1.3927
   37MOL   H31713349   3.135   3.054   4.124  0.4448 -0.7773  0.0558
   37MOL   H31813350   2.990   3.123   4.109  0.3415 -0.6108 -1.1176
   37MOL   H31913351   2.974   2.827   4.127  0.6756 -0.2880 -0.8563
   37MOL   H32013352   2.778   2.953   4.158  5.1746 -1.2492  2.0865
   37MOL   H32113353   2.765   2.854   4.012  0.3397 -0.0561 -0.6394
   37MOL   H32213354   2.793   3.031   3.999  2.0892  1.9195  2.0700
   37MOL   H32313355   3.139   2.860   3.939 -0.8713 -0.1715 -0.4582
   37MOL   H32413356   2.982   2.792   3.913  2.4484 -1.4241  1.0601
   37MOL   H32513357   2.999   2.956   3.870 -0.5089  1.1721  0.3976
   37MOL   C32613358   3.108   2.914   4.359  0.0208  0.2694  0.0948
   37MOL   C32713359   3.074   2.843   4.489  0.9163  0.8247 -0.2930
   37MOL   C32813360   3.192   2.797   4.567 -0.4836 -0.2251  0.0555
   37MOL   C32913361   3.261   2.901   4.655  0.8893  0.7967 -0.9642
   37MOL   C33013362   3.177   2.939   4.776  0.2922  0.1968  0.1999
   37MOL   C33113363   3.403   2.851   4.697  0.3012  0.1507 -0.1543
   37MOL   H33213364   3.206   2.961   4.362  0.2751 -0.2523  0.0331
   37MOL   H33313365   3.109   2.832   4.288 -0.8595  0.0183  0.3671
   37MOL   H33413366   3.016   2.918   4.544 -0.9936  2.2438 -4.0639
   37MOL   H33513367   3.174   2.703   4.620 -2.3585  0.1902  0.2060
   37MOL   H33613368   3.263   2.766   4.491 -0.3155  1.9846 -0.7168
   37MOL   H33713369   3.277   2.996   4.604 -0.5478  2.2052  1.1036
   37MOL   H33813370   3.090   2.993   4.739  0.1722 -0.7634 -0.9472
   37MOL   H33913371   3.236   2.998   4.846  2.4038  0.3098 -1.6004
   37MOL   H34013372   3.146   2.843   4.818 -0.5102  0.5234  0.3561
   37MOL   H34113373   3.465   2.826   4.610  0.7912 -3.4891  1.1652
   37MOL   H34213374   3.459   2.932   4.743  2.9841 -1.5521 -0.3016
   37MOL   H34313375   3.404   2.770   4.769 -1.8998 -0.3573 -0.6680
   37MOL   C34413376   2.971   2.722   4.467 -0.2586 -0.8952  0.6143
   37MOL   C34513377   2.866   2.696   4.580 -0.3654  0.0670  0.6930
   37MOL   C34613378   2.761   2.589   4.538 -0.0682  0.2702  0.8072
   37MOL   C34713379   2.668   2.544   4.654  0.4614 -0.2781  0.8294
   37MOL   C34813380   2.735   2.446   4.750  0.5996 -0.3409  0.6729
   37MOL   C34913381   2.537   2.487   4.601  0.2631  0.2765  0.5974
   37MOL   H35013382   3.018   2.628   4.438 -1.4414 -0.7815 -1.7608
   37MOL   H35113383   2.904   2.741   4.384 -1.8434 -3.8990  1.1558
   37MOL   H35213384   2.825   2.790   4.615 -0.7250  0.5925 -1.0646
   37MOL   H35313385   2.705   2.634   4.456  1.5676  2.7117  0.9954
   37MOL   H35413386   2.809   2.503   4.491  0.8432  0.8624  0.6608
   37MOL   H35513387   2.638   2.634   4.708  1.6774  0.6191  0.0537
   37MOL   H35613388   2.802   2.496   4.820  0.1414 -1.5994  2.0494
   37MOL   H35713389   2.654   2.402   4.809 -0.0750 -0.9412 -0.6749
   37MOL   H35813390   2.799   2.373   4.701 -0.1511  0.2528 -1.2215
   37MOL   H35913391   2.476   2.554   4.540  0.6970  0.4977  0.4010
   37MOL   H36013392   2.481   2.447   4.685  1.3972 -1.5615  0.5142
   37MOL   H36113393   2.549   2.402   4.534 -0.6505 -1.1870  2.2760
   37MOL   H36213394   2.920   2.666   4.670 -0.1257  1.4812  1.0284
   38MOL     C113395   0.466   7.043   3.682 -0.2526  0.0413 -0.3959
   38MOL     C213396   0.459   7.164   3.776  0.8785 -0.7660 -0.5660
   38MOL     C313397   0.425   7.104   3.916 -0.0357 -0.1882 -0.0191
   38MOL     C413398   0.375   7.207   4.024 -0.6601  0.4295 -0.4257
   38MOL     C513399   0.489   7.299   4.057  0.6421 -0.7845  0.4046
   38MOL     C613400   0.317   7.137   4.149  0.1655 -0.3191  0.1988
   38MOL     H713401   0.513   7.064   3.586  0.2434 -1.4088 -0.4790
   38MOL     H813402   0.523   6.969   3.737 -1.9626  0.0586  1.4799
   38MOL     H913403   0.554   7.218   3.781 -0.7818  2.2448 -0.1940
   38MOL    H1013404   0.354   7.024   3.897  0.0699  0.1740 -2.0730
   38MOL    H1113405   0.517   7.059   3.955  0.7797  0.2945 -1.3712
   38MOL    H1213406   0.283   7.253   3.987 -1.0819 -0.6291 -0.7343
   38MOL    H1313407   0.536   7.365   3.984  0.7338 -0.4149  0.7974
   38MOL    H1413408   0.455   7.360   4.140 -1.6691  1.9671 -2.4634
   38MOL    H1513409   0.561   7.228   4.099  1.7056  1.4905  2.5401
   38MOL    H1613410   0.236   7.066   4.130 -0.6775  1.2340 -2.2121
   38MOL    H1713411   0.264   7.215   4.204 -0.1360  0.9562 -1.8391
   38MOL    H1813412   0.401   7.092   4.201  0.7907  1.8790  1.1215
   38MOL    H1913413   0.367   6.999   3.666 -0.4052  1.2081 -2.8933
   38MOL    C2013414   0.351   7.266   3.729  0.3427 -0.3869 -0.0102
   38MOL    C2113415   0.401   7.338   3.606 -0.5672 -0.3019  0.3172
   38MOL    C2213416   0.281   7.388   3.514 -0.1071 -0.3715  0.4444
   38MOL    C2313417   0.202   7.295   3.437 -0.0985  0.4789  0.2018
   38MOL    C2413418   0.062   7.355   3.393  0.0106 -0.5588  0.0695
   38MOL    C2513419   0.262   7.247   3.304  0.3981 -0.1855 -0.4743
   38MOL    H2613420   0.258   7.210   3.719  0.5808 -0.6838 -0.5815
   38MOL    H2713421   0.350   7.338   3.811 -1.0522 -1.6877  1.1614
   38MOL    H2813422   0.460   7.269   3.547  1.1302  1.8083 -0.4951
   38MOL    H2913423   0.322   7.465   3.449 -0.5124  1.4617  2.2986
   38MOL    H3013424   0.213   7.445   3.578  0.2963 -1.5173  1.9028
   38MOL    H3113425   0.179   7.210   3.501 -0.3394 -0.6350 -1.3266
   38MOL    H3213426   0.003   7.392   3.477 -0.9434  0.2142 -0.9245
   38MOL    H3313427   0.003   7.270   3.358  1.5699 -1.5727 -0.1598
   38MOL    H3413428   0.087   7.426   3.315 -0.4855  0.3538  0.7375
   38MOL    H3513429   0.199   7.180   3.245  2.2887 -1.1588 -1.4501
   38MOL    H3613430   0.290   7.328   3.238  0.3763 -0.3857 -0.7306
   38MOL    H3713431   0.353   7.186   3.303 -0.2335 -1.1414 -1.9271
   38MOL    C3813432   0.505   7.443   3.649  0.7706 -0.3206 -0.3230
   38MOL    C3913433   0.608   7.494   3.545  0.8470  0.6177 -0.5771
   38MOL    C4013434   0.725   7.389   3.535 -0.4053  0.2509  0.2309
   38MOL    C4113435   0.804   7.384   3.405 -0.5455  0.5135  0.2775
   38MOL    C4213436   0.726   7.332   3.274  0.2368 -0.0681 -0.2351
   38MOL    C4313437   0.939   7.315   3.420 -0.5042 -0.7433 -0.5133
   38MOL    H4413438   0.557   7.428   3.744  2.0410  0.7434 -0.8417
   38MOL    H4513439   0.453   7.535   3.677 -0.9238 -0.6091 -2.3939
   38MOL    H4613440   0.557   7.500   3.448 -1.1467  1.7758  0.4974
   38MOL    H4713441   0.681   7.289   3.530  2.4192 -1.2974  4.1328
   38MOL    H4813442   0.786   7.395   3.625  0.4588  1.0783 -0.4084
   38MOL    H4913443   0.832   7.488   3.390 -1.3981  0.8833  1.1749
   38MOL    H5013444   0.630   7.382   3.273  1.8662  3.1886 -1.6731
   38MOL    H5113445   0.785   7.348   3.183 -0.3236  1.0748 -0.4122
   38MOL    H5213446   0.691   7.229   3.271  1.0652 -0.3243 -1.3880
   38MOL    H5313447   0.990   7.355   3.508  0.9519 -1.0925 -1.1859
   38MOL    H5413448   0.989   7.340   3.327  2.1803 -1.0021  0.8212
   38MOL    H5513449   0.917   7.209   3.428  0.8054 -0.9217  0.8932
   38MOL    C5613450   0.674   7.627   3.582  0.5511 -0.1683 -0.4669
   38MOL    C5713451   0.591   0.002   3.551  0.2006 -0.2232 -0.2093
   38MOL    C5813452   0.586   0.028   3.399  0.5348 -0.0158 -0.3655
   38MOL    C5913453   0.487   0.135   3.344 -0.0796 -0.3986 -0.3697
   38MOL    C6013454   0.335   0.105   3.372  0.3616 -0.3359  0.4862
   38MOL    C6113455   0.510   0.164   3.200  0.0643 -0.7734 -0.5860
   38MOL    H6213456   0.766   7.635   3.524 -0.8881  1.6661 -2.5765
   38MOL    H6313457   0.716   7.619   3.682 -0.3761  1.4828  0.0697
   38MOL    H6413458   0.487   7.735   3.577 -0.4341  1.7717 -1.2573
   38MOL    H6513459   0.688   0.047   3.366  0.6515 -1.2119 -0.7393
   38MOL    H6613460   0.553   7.686   3.353 -1.6473 -0.2079  1.5232
   38MOL    H6713461   0.501   0.227   3.400  0.9530 -0.5165 -0.4231
   38MOL    H6813462   0.275   0.185   3.329  0.9328 -0.1778 -0.0112
   38MOL    H6913463   0.320   0.065   3.473 -1.0026 -2.0573 -0.3593
   38MOL    H7013464   0.311   0.024   3.303  2.1658  0.4995 -1.1365
   38MOL    H7113465   0.614   0.175   3.170  0.2151 -1.1808 -0.2158
   38MOL    H7213466   0.454   0.255   3.176 -1.1425 -1.0797  0.9682
   38MOL    H7313467   0.467   0.089   3.134 -0.8202  0.2076 -1.1485
   38MOL    C7413468   0.656   0.126   3.629  0.4817 -0.4606 -0.1203
   38MOL    C7513469   0.624   0.126   3.777  0.8599  0.5873  0.3261
   38MOL    C7613470   0.517   0.236   3.809  0.3675 -0.6806 -0.0676
   38MOL    C7713471   0.363   0.210   3.783 -0.4322  0.3200  0.2318
   38MOL    C7813472   0.291   0.336   3.821 -0.7884 -0.7648 -0.0379
   38MOL    C7913473   0.306   0.088   3.846 -0.0873 -0.6010 -0.0805
   38MOL    H8013474   0.638   0.221   3.579 -1.6341 -0.1832  1.1182
   38MOL    H8113475   0.764   0.116   3.617  0.8737  0.2008  2.4323
   38MOL    H8213476   0.588   0.029   3.811  0.3860  1.2177  1.6451
   38MOL    H8313477   0.528   0.264   3.914  2.1022 -2.2790  0.2108
   38MOL    H8413478   0.538   0.325   3.749  0.2768 -0.1168  0.7281
   38MOL    H8513479   0.360   0.186   3.677  1.3396 -1.0799  0.4656
   38MOL    H8613480   0.334   0.430   3.785 -2.9379  0.9276  1.6680
   38MOL    H8713481   0.283   0.346   3.929  1.3534  0.3565  0.0423
   38MOL    H8813482   0.183   0.342   3.807 -0.9301 -3.3137 -0.2085
   38MOL    H8913483   0.199   0.075   3.828 -0.2810 -0.3263  0.8650
   38MOL    H9013484   0.358   0.007   3.795  0.9816  1.2725 -2.0345
   38MOL    H9113485   0.330   0.075   3.952  0.2548 -0.5409 -0.1486
   38MOL    C9213486   0.752   0.154   3.862  0.5170  0.2070 -0.3460
   38MOL    C9313487   0.744   0.161   4.016 -0.3546  0.4553  1.1603
   38MOL    C9413488   0.677   0.035   4.076 -0.7201 -0.3262  0.1275
   38MOL    C9513489   0.634   0.060   4.223 -0.5530  0.1220  0.1788
   38MOL    C9613490   0.509   0.153   4.228  0.9106 -0.0369  0.5221
   38MOL    C9713491   0.613   7.687   4.308 -0.0986  0.3192 -0.3640
   38MOL    H9813492   0.824   0.077   3.837 -1.7033 -2.6745  1.8053
   38MOL    H9913493   0.793   0.248   3.823 -2.3207  2.1830  1.2690
   38MOL   H10013494   0.693   0.253   4.042 -3.3700 -0.2225 -1.9997
   38MOL   H10113495   0.753   7.709   4.075 -1.7235 -1.3280 -0.2238
   38MOL   H10213496   0.588   0.000   4.023  0.5563  0.7855 -2.8063
   38MOL   H10313497   0.707   0.123   4.273  0.6925 -0.8074 -0.4643
   38MOL   H10413498   0.523   0.242   4.166 -1.1189  0.3542  0.6023
   38MOL   H10513499   0.476   0.179   4.329 -1.2137 -1.4344  0.2128
   38MOL   H10613500   0.438   0.092   4.173  1.7165 -0.1869 -0.3625
   38MOL   H10713501   0.518   7.648   4.271 -0.7706  0.9095  0.7293
   38MOL   H10813502   0.595   7.712   4.412 -3.2810  1.3969 -1.1035
   38MOL   H10913503   0.689   7.612   4.288  0.5550  0.5191  1.2991
   38MOL   C11013504   0.896   0.174   4.073  0.6698 -0.2079  0.3222
   38MOL   C11113505   0.992   0.279   4.007 -0.7720  0.2088 -0.6605
   38MOL   C11213506   1.064   0.362   4.116 -0.2220  0.4224  0.8249
   38MOL   C11313507   0.977   0.487   4.167  0.1519 -0.4996  0.3352
   38MOL   C11413508   1.055   0.547   4.288  0.6208  0.5858 -0.0451
   38MOL   C11513509   0.836   0.452   4.209  0.0946 -0.1441  0.9200
   38MOL   H11613510   0.938   0.073   4.075 -1.1283 -1.0177 -0.8654
   38MOL   H11713511   0.883   0.187   4.180 -3.4598  0.2741 -0.1563
   38MOL   H11813512   0.929   0.349   3.952  1.3658  2.2889 -0.5488
   38MOL   H11913513   1.157   0.399   4.071 -0.7811 -0.4645 -1.0911
   38MOL   H12013514   1.103   0.304   4.200 -1.3256 -0.2370  0.8922
   38MOL   H12113515   0.980   0.566   4.091 -1.4152  0.5335  1.3220
   38MOL   H12213516   1.154   0.586   4.262  0.8163 -0.7807 -1.4178
   38MOL   H12313517   1.066   0.466   4.360  2.1153  1.3102  0.5740
   38MOL   H12413518   1.005   0.633   4.332 -0.8166  0.1676 -0.8476
   38MOL   H12513519   0.846   0.372   4.283 -3.3367 -2.1512 -0.7046
   38MOL   H12613520   0.773   0.430   4.123  1.2911  0.0991 -0.0372
   38MOL   H12713521   0.791   0.538   4.259  0.6586  1.5166 -1.3594
   38MOL   C12813522   1.101   0.203   3.935  0.0873 -0.2820  0.5208
   38MOL   C12913523   1.170   0.278   3.818  0.3145  0.2141  0.3318
   38MOL   C13013524   1.073   0.305   3.692  0.2007  0.2609 -0.0770
   38MOL   C13113525   1.010   0.451   3.684 -0.7343  0.7492  0.1044
   38MOL   C13213526   1.117   0.545   3.626  0.2234  0.1544 -0.3097
   38MOL   C13313527   0.884   0.438   3.594  0.1147  0.3312 -0.3130
   38MOL   H13413528   1.047   0.115   3.899  0.8754 -1.0931  1.2911
   38MOL   H13513529   1.171   0.151   4.001  1.0132 -1.1188 -1.0932
   38MOL   H13613530   1.214   0.369   3.859  1.7195 -1.3356  2.3824
   38MOL   H13713531   1.122   0.273   3.600  0.6733 -1.5309  0.7926
   38MOL   H13813532   0.985   0.243   3.705  1.3759 -1.5306 -0.5206
   38MOL   H13913533   0.974   0.490   3.779 -0.1782 -1.4319  1.2427
   38MOL   H14013534   1.094   0.650   3.641  1.6892  0.2814  1.2854
   38MOL   H14113535   1.118   0.528   3.519 -2.3280 -1.2075 -0.1639
   38MOL   H14213536   1.212   0.523   3.676 -0.6277 -0.4554  1.0729
   38MOL   H14313537   0.847   0.540   3.590  0.9348  0.6023 -1.2232
   38MOL   H14413538   0.911   0.398   3.496 -0.3145 -3.0295  0.8481
   38MOL   H14513539   0.807   0.373   3.636 -1.3041  1.4050 -1.2405
   38MOL   C14613540   1.289   0.198   3.758 -0.2261 -0.0527  0.2031
   38MOL   C14713541   1.387   0.275   3.657 -0.0352  0.0267 -0.2956
   38MOL   C14813542   1.452   0.175   3.564 -0.3997  0.0147  0.3155
   38MOL   C14913543   1.547   0.072   3.625 -0.8219 -0.2826  0.4806
   38MOL   C15013544   1.530   7.692   3.547  0.1334  0.1237 -0.1282
   38MOL   C15113545   1.692   0.111   3.596 -0.2102 -0.5117 -0.3461
   38MOL   H15213546   1.240   0.118   3.704 -0.3035  0.1528 -0.0318
   38MOL   H15313547   1.354   0.154   3.834 -1.2050 -0.0422  1.0511
   38MOL   H15413548   1.320   0.325   3.587  2.2547  0.2856 -2.3621
   38MOL   H15513549   1.370   0.119   3.518  0.4909 -1.3004  0.2875
   38MOL   H15613550   1.499   0.214   3.474  0.3321 -0.1393  0.6294
   38MOL   H15713551   1.532   0.061   3.732  0.7897 -0.5211  0.6982
   38MOL   H15813552   1.611   7.622   3.562 -3.2625 -3.6812  1.5231
   38MOL   H15913553   1.514   7.715   3.441  0.2032  1.7087  0.2001
   38MOL   H16013554   1.440   7.645   3.586 -0.6289  2.2572  0.7724
   38MOL   H16113555   1.705   0.131   3.489  1.0211 -0.7484 -0.2465
   38MOL   H16213556   1.774   0.047   3.628 -0.3863 -2.3120 -3.3198
   38MOL   H16313557   1.705   0.215   3.626  0.4400 -0.0085 -2.2631
   38MOL   C16413558   1.485   0.374   3.734  0.0143 -0.4897 -0.6568
   38MOL   C16513559   1.517   0.511   3.661  0.7926  0.4088  0.1088
   38MOL   C16613560   1.564   0.617   3.763  0.0933 -0.0849 -0.2239
   38MOL   C16713561   1.467   0.682   3.868  0.7383  0.2297 -0.6078
   38MOL   C16813562   1.530   0.763   3.986  0.2936 -0.6334  0.4476
   38MOL   C16913563   1.375   0.780   3.803 -0.2816  0.2191 -0.4707
   38MOL   H17013564   1.419   0.407   3.815  0.8770  0.4461 -0.3251
   38MOL   H17113565   1.573   0.320   3.768  0.5173 -0.5204 -2.0106
   38MOL   H17213566   1.421   0.540   3.619  1.3364  0.7317 -0.9104
   38MOL   H17313567   1.642   0.568   3.820 -0.3258  0.0765  0.4912
   38MOL   H17413568   1.615   0.699   3.711  1.7593 -1.5437 -0.9344
   38MOL   H17513569   1.403   0.609   3.918 -0.1569  0.6569 -1.1013
   38MOL   H17613570   1.603   0.703   4.040 -0.0680  0.1836  1.8569
   38MOL   H17713571   1.463   0.794   4.066  0.6367 -0.5156  0.6923
   38MOL   H17813572   1.581   0.855   3.956 -0.4251  0.0466  1.3003
   38MOL   H17913573   1.433   0.858   3.753  0.0595  0.5144  0.3841
   38MOL   H18013574   1.311   0.819   3.882  2.2033 -0.7790  2.1186
   38MOL   H18113575   1.304   0.731   3.736 -0.8717  0.0089  0.3104
   38MOL   C18213576   1.610   0.506   3.538 -0.6536 -0.1911 -0.4574
   38MOL   C18313577   1.562   0.573   3.407 -0.6599 -0.4745  0.1322
   38MOL   C18413578   1.685   0.618   3.328  0.0356 -0.7700 -0.7512
   38MOL   C18513579   1.749   0.517   3.234  0.0100  0.2250 -0.0112
   38MOL   C18613580   1.843   0.598   3.145  0.2168  0.2073 -0.2863
   38MOL   C18713581   1.806   0.384   3.295 -0.2421  0.6644 -0.2928
   38MOL   H18813582   1.641   0.402   3.529 -0.8525 -0.0216 -3.3123
   38MOL   H18913583   1.705   0.542   3.576 -0.5121 -0.5269 -0.4969
   38MOL   H19013584   1.518   0.662   3.452 -0.1557 -0.9813  1.6615
   38MOL   H19113585   1.761   0.659   3.394  0.2351 -0.1632 -1.3472
   38MOL   H19213586   1.657   0.708   3.272  0.2924  0.1930  0.6464
   38MOL   H19313587   1.675   0.474   3.166 -0.3810  0.0786  0.4993
   38MOL   H19413588   1.915   0.660   3.199 -1.3916  1.6027  0.3155
   38MOL   H19513589   1.785   0.672   3.089  0.3696  2.9633  2.9955
   38MOL   H19613590   1.895   0.539   3.070 -0.8998 -0.6693 -0.3723
   38MOL   H19713591   1.880   0.419   3.367  1.2956  2.2695 -2.5675
   38MOL   H19813592   1.854   0.320   3.221  1.4845  1.8243 -0.2139
   38MOL   H19913593   1.733   0.329   3.354 -3.1615  1.1703 -3.2981
   38MOL   C20013594   1.454   0.492   3.339 -0.5149  0.1246  0.1576
   38MOL   C20113595   1.394   0.564   3.217 -0.0001  0.0353 -0.1301
   38MOL   C20213596   1.341   0.708   3.257 -0.0580  0.0700 -0.5584
   38MOL   C20313597   1.260   0.777   3.146  0.6259 -0.7507  0.1286
   38MOL   C20413598   1.226   0.916   3.204 -0.5054 -0.2258  0.1683
   38MOL   C20513599   1.320   0.777   3.004 -0.4288  0.4761 -0.0195
   38MOL   H20613600   1.374   0.474   3.411 -0.0359 -1.2163  0.3730
   38MOL   H20713601   1.490   0.394   3.308 -0.7001  0.1326 -0.0924
   38MOL   H20813602   1.461   0.579   3.132  0.7689 -0.9688  0.2878
   38MOL   H20913603   1.278   0.698   3.345 -0.1944  2.5370 -0.3616
   38MOL   H21013604   1.433   0.764   3.273  1.4727 -2.4977 -0.0076
   38MOL   H21113605   1.165   0.723   3.149  0.5072 -0.5716 -0.2946
   38MOL   H21213606   1.154   0.968   3.141 -0.1440  1.6807  1.2625
   38MOL   H21313607   1.314   0.980   3.203 -1.7424  1.5120  0.2848
   38MOL   H21413608   1.184   0.914   3.305  1.5313 -2.8218  1.0345
   38MOL   H21513609   1.263   0.842   2.938 -1.9407 -1.6035 -0.8375
   38MOL   H21613610   1.313   0.676   2.964 -2.1859 -0.4571  2.5299
   38MOL   H21713611   1.425   0.807   3.007 -0.9009  2.0255  1.1596
   38MOL   C21813612   1.289   0.466   3.158  0.1425  0.0764  0.2968
   38MOL   C21913613   1.353   0.363   3.056  0.0424  0.4342 -0.3171
   38MOL   C22013614   1.381   0.409   2.909  0.0036  0.6070  0.0021
   38MOL   C22113615   1.465   0.327   2.811  0.4890  0.5204  0.2567
   38MOL   C22213616   1.477   0.406   2.672 -0.5487 -0.0054 -0.7056
   38MOL   C22313617   1.603   0.284   2.868 -0.3482 -0.6321  0.0729
   38MOL   H22413618   1.228   0.422   3.237 -0.4221  2.6159  1.3453
   38MOL   H22513619   1.217   0.517   3.094  0.6735  0.0795 -0.3053
   38MOL   H22613620   1.453   0.348   3.097  0.0159  0.5086 -0.2253
   38MOL   H22713621   1.289   0.419   2.852 -0.7816 -0.2209  1.1030
   38MOL   H22813622   1.428   0.507   2.909  0.7394  0.2719 -1.8819
   38MOL   H22913623   1.421   0.230   2.788  1.0574  0.1002  0.9452
   38MOL   H23013624   1.543   0.492   2.685  0.2657 -0.5576 -1.1212
   38MOL   H23113625   1.533   0.339   2.607 -0.0644 -1.1457  0.8567
   38MOL   H23213626   1.382   0.423   2.622 -0.2536 -0.4918 -1.4282
   38MOL   H23313627   1.584   0.208   2.943  0.0624  0.3669  1.2083
   38MOL   H23413628   1.664   0.239   2.789 -1.2155 -0.6618 -0.5821
   38MOL   H23513629   1.654   0.372   2.907 -1.4554  0.1473 -0.2378
   38MOL   C23613630   1.292   0.221   3.069  0.3525 -0.1162 -0.1058
   38MOL   C23713631   1.135   0.204   3.081  0.1635  0.3630  0.3808
   38MOL   C23813632   1.101   0.059   3.120 -0.0407  0.4139 -0.2115
   38MOL   C23913633   1.146   0.019   3.265  0.3126 -0.9039 -0.1328
   38MOL   C24013634   1.053   0.079   3.372  0.2196 -0.8389 -0.2812
   38MOL   C24113635   1.147   7.613   3.273  0.5226  0.1249  0.2487
   38MOL   H24213636   1.344   0.186   3.158  0.6175  1.7392  0.4862
   38MOL   H24313637   1.328   0.164   2.984  3.5304 -0.0046  1.1004
   38MOL   H24413638   1.083   0.269   3.151 -1.0481 -0.8538  0.6357
   38MOL   H24513639   1.143   0.003   3.037 -0.6190 -0.7189  0.2437
   38MOL   H24613640   0.993   0.047   3.111 -0.6203  0.7657  4.7442
   38MOL   H24713641   1.246   0.057   3.286  0.0620  0.0013 -0.5541
   38MOL   H24813642   1.079   0.049   3.474  1.7818 -0.1630 -0.4657
   38MOL   H24913643   0.954   0.040   3.351  0.1062 -0.8474  0.2543
   38MOL   H25013644   1.051   0.188   3.368 -3.4749 -0.8943 -1.8979
   38MOL   H25113645   1.193   7.588   3.369 -0.8370 -1.3125  0.5336
   38MOL   H25213646   1.196   7.571   3.185  1.6165  1.5831  0.1402
   38MOL   H25313647   1.047   7.570   3.277 -0.6853  2.9341  1.1456
   38MOL   C25413648   1.065   0.244   2.948  0.0361 -0.3588 -0.3070
   38MOL   C25513649   0.907   0.259   2.961 -0.2387  0.2586  0.2042
   38MOL   C25613650   0.869   0.411   2.982 -0.6085  0.3253  0.1164
   38MOL   C25713651   0.900   0.470   3.117  0.4944 -0.1865 -0.1472
   38MOL   C25813652   0.819   0.409   3.234  0.0427  0.0227 -0.6041
   38MOL   C25913653   0.887   0.625   3.111 -0.7967 -0.6238  0.7956
   38MOL   H26013654   1.108   0.340   2.919 -1.3147  0.1042 -0.8050
   38MOL   H26113655   1.092   0.175   2.869 -1.9720 -2.0412  0.4432
   38MOL   H26213656   0.877   0.208   3.052  0.1835  1.5878  1.1137
   38MOL   H26313657   0.762   0.423   2.966 -0.5433 -1.1104 -1.6658
   38MOL   H26413658   0.909   0.467   2.897 -1.0793 -1.1905 -1.1472
   38MOL   H26513659   1.004   0.452   3.143  0.5275 -0.7567 -0.6474
   38MOL   H26613660   0.833   0.475   3.319  0.5156 -0.8320 -0.0024
   38MOL   H26713661   0.844   0.307   3.266 -0.7810 -0.3586 -1.1574
   38MOL   H26813662   0.713   0.416   3.211  0.0813 -0.7682 -1.0642
   38MOL   H26913663   0.784   0.648   3.083 -0.6338 -2.3324 -1.2869
   38MOL   H27013664   0.905   0.675   3.207 -2.2256  3.5152 -0.9800
   38MOL   H27113665   0.953   0.666   3.035  0.6713 -1.6764  1.4913
   38MOL   C27213666   0.830   0.199   2.843  0.1057  0.4361  0.1765
   38MOL   C27313667   0.827   0.047   2.826 -0.1514  0.3717 -0.1544
   38MOL   C27413668   0.711   7.747   2.912 -0.1581 -0.8498 -0.4288
   38MOL   C27513669   0.704   7.600   2.930 -0.3491 -0.2797  0.0731
   38MOL   C27613670   0.598   7.564   3.029 -0.2615  0.0429  0.2596
   38MOL   C27713671   0.840   7.527   2.956  0.1570  0.2811  0.3228
   38MOL   H27813672   0.728   0.238   2.843  0.3365  1.1063  2.9749
   38MOL   H27913673   0.880   0.248   2.759  0.0557  1.3683  0.6823
   38MOL   H28013674   0.915   0.006   2.875 -0.0017 -0.5789 -1.1987
   38MOL   H28113675   0.610   0.024   2.885 -0.3358 -0.8310  0.2320
   38MOL   H28213676   0.736   0.044   3.006  0.0597  1.9197 -1.9086
   38MOL   H28313677   0.662   7.563   2.836 -0.2622  2.1035 -0.9421
   38MOL   H28413678   0.608   7.457   3.046  0.3492  0.0702  0.1127
   38MOL   H28513679   0.622   7.610   3.125  0.4792  1.8064 -0.7396
   38MOL   H28613680   0.497   7.591   2.998 -0.4571  0.0239  0.8685
   38MOL   H28713681   0.887   7.531   2.857 -0.0529  1.1003  0.2593
   38MOL   H28813682   0.916   7.580   3.012 -0.0564  0.6322  0.2792
   38MOL   H28913683   0.832   7.422   2.986 -2.5696  0.4111  0.1511
   38MOL   C29013684   0.820   0.006   2.676 -0.7093 -0.6211  0.3413
   38MOL   C29113685   0.961   0.029   2.599 -0.4102 -0.1031 -0.3742
   38MOL   C29213686   1.056   7.660   2.614  0.0866  0.5765  0.3942
   38MOL   C29313687   1.200   7.697   2.575 -0.0823 -0.3744  0.2820
   38MOL   C29413688   1.268   0.055   2.661 -0.0405 -0.2891  0.4268
   38MOL   C29513689   1.288   7.573   2.573  0.1556  0.0400  0.1037
   38MOL   H29613690   0.784   7.656   2.663 -0.5285 -0.9627  2.3635
   38MOL   H29713691   0.730   0.049   2.635 -0.0944  1.0918  0.7425
   38MOL   H29813692   1.015   0.108   2.650 -1.1303 -0.0409  0.3057
   38MOL   H29913693   1.011   7.583   2.552  0.9041 -0.0854  0.6255
   38MOL   H30013694   1.061   7.615   2.713  3.8984  0.5598  0.2727
   38MOL   H30113695   1.198   7.730   2.471  2.9850  1.3463  0.7004
   38MOL   H30213696   1.377   0.054   2.653 -0.1020  0.8101 -0.7048
   38MOL   H30313697   1.262   0.029   2.767  0.0079  0.6287  0.6530
   38MOL   H30413698   1.241   0.157   2.635  1.6024 -0.1752 -0.9199
   38MOL   H30513699   1.304   7.529   2.474  0.8235 -1.4417  0.8662
   38MOL   H30613700   1.252   7.502   2.646 -0.0633  1.3276  1.2649
   38MOL   H30713701   1.389   7.599   2.606 -0.5015 -0.1528  2.2885
   38MOL   C30813702   0.927   0.057   2.455 -0.7884  0.2394 -0.0497
   38MOL   C30913703   0.912   0.202   2.428 -0.6152 -0.7443  0.9652
   38MOL   C31013704   1.051   0.263   2.379 -0.1169 -0.2274 -0.6870
   38MOL   C31113705   1.052   0.415   2.396 -0.1222 -0.4261 -0.6287
   38MOL   C31213706   1.094   0.472   2.537  0.6550 -0.0807 -0.0425
   38MOL   C31313707   1.139   0.488   2.294 -0.0043 -0.1712 -0.1611
   38MOL   H31413708   0.992   0.005   2.384 -0.7258 -0.5811  0.6035
   38MOL   H31513709   0.836   0.002   2.432 -0.1961  0.3394 -2.8583
   38MOL   H31613710   0.895   0.255   2.523  1.7456 -1.1713  1.6596
   38MOL   H31713711   1.050   0.236   2.273 -0.0692  0.8875 -0.9830
   38MOL   H31813712   1.138   0.220   2.430  1.5079  1.2726 -2.0899
   38MOL   H31913713   0.952   0.458   2.388  0.6670  1.9616  1.8691
   38MOL   H32013714   1.152   0.565   2.539  1.9383 -0.8752  0.0677
   38MOL   H32113715   1.159   0.395   2.579  0.3633 -0.9211 -1.1276
   38MOL   H32213716   1.003   0.491   2.594  0.1067  1.8417 -1.5056
   38MOL   H32313717   1.123   0.592   2.267 -1.7808 -0.4502 -0.2904
   38MOL   H32413718   1.242   0.466   2.321  0.3645  1.3049 -0.3130
   38MOL   H32513719   1.143   0.428   2.203  0.5387 -3.0391  1.6899
   38MOL   C32613720   0.806   0.236   2.315  0.0733 -0.2203  0.1044
   38MOL   C32713721   0.662   0.230   2.366 -0.1156  0.4460 -0.1464
   38MOL   C32813722   0.552   0.229   2.252  0.2030  0.3253 -0.3469
   38MOL   C32913723   0.558   0.117   2.147  0.7824 -0.4583  0.3523
   38MOL   C33013724   0.526   7.729   2.200  0.5902  0.2006  0.2160
   38MOL   C33113725   0.461   0.150   2.036 -0.0623 -0.5011  0.3216
   38MOL   H33213726   0.813   0.165   2.233  1.9476 -0.1895  0.2125
   38MOL   H33313727   0.831   0.328   2.262 -1.0490 -1.0664 -1.9586
   38MOL   H33413728   0.629   0.146   2.427  0.3390 -1.0029 -1.8663
   38MOL   H33513729   0.457   0.223   2.305  0.4321  1.7700  0.2636
   38MOL   H33613730   0.536   0.329   2.211  1.3854 -0.1510 -2.0148
   38MOL   H33713731   0.662   0.120   2.113  1.3554  2.5260  2.0927
   38MOL   H33813732   0.526   7.648   2.127 -1.7948 -0.3185  0.7395
   38MOL   H33913733   0.428   7.730   2.249  0.8803 -0.7534  0.8278
   38MOL   H34013734   0.603   7.711   2.274  0.4624 -3.0261 -0.3571
   38MOL   H34113735   0.485   0.095   1.946  3.0522  0.1080  0.7380
   38MOL   H34213736   0.366   0.106   2.066 -1.1481  1.2265 -0.4782
   38MOL   H34313737   0.461   0.255   2.005  0.0999 -1.1471 -1.9026
   38MOL   C34413738   0.639   0.347   2.465  0.5397  0.1747  0.8820
   38MOL   C34513739   0.506   0.337   2.551  0.0228  0.0029 -0.1768
   38MOL   C34613740   0.514   0.421   2.679 -0.2202  0.3386 -0.0001
   38MOL   C34713741   0.407   0.392   2.784  0.0692  0.5578 -0.0470
   38MOL   C34813742   0.411   0.246   2.828  0.0149 -0.2686  0.0942
   38MOL   C34913743   0.268   0.420   2.749 -0.5633  0.1119  0.4587
   38MOL   H35013744   0.647   0.443   2.414 -0.3015 -0.6925 -0.8936
   38MOL   H35113745   0.716   0.353   2.541 -0.5198 -1.9755  2.1661
   38MOL   H35213746   0.480   0.233   2.568  0.4516 -0.0681  0.0650
   38MOL   H35313747   0.610   0.402   2.727 -0.6354  0.8266  1.0250
   38MOL   H35413748   0.519   0.528   2.657 -0.9389  0.9022  2.4876
   38MOL   H35513749   0.426   0.456   2.870  0.8798  0.4732 -0.1616
   38MOL   H35613750   0.356   0.190   2.752  0.5961 -0.4886 -0.1695
   38MOL   H35713751   0.514   0.209   2.819  0.0836 -0.0974  0.1879
   38MOL   H35813752   0.374   0.223   2.928  2.3834  1.4603  1.4331
   38MOL   H35913753   0.251   0.523   2.717 -2.8777  0.2669  2.0825
   38MOL   H36013754   0.206   0.403   2.837 -1.2541 -2.6303 -0.5190
   38MOL   H36113755   0.220   0.365   2.668 -1.6936 -0.6207  1.6172
   38MOL   H36213756   0.421   0.390   2.508  0.3263  0.2673 -0.4511
   39MOL     C113757   4.949   6.204   5.058  0.2704 -0.6757  0.5693
   39MOL     C213758   5.092   6.250   5.080  0.1487 -0.4219  0.0604
   39MOL     C313759   5.163   6.161   5.179  0.6120 -0.1896 -0.2986
   39MOL     C413760   5.208   6.017   5.137  0.0155 -0.6216  0.1211
   39MOL     C513761   5.208   5.909   5.254 -0.2095 -0.2330  0.2156
   39MOL     C613762   5.319   6.017   5.037  0.0563 -0.5914 -0.5024
   39MOL     H713763   4.889   6.286   5.019  2.4294  0.1314 -1.1101
   39MOL     H813764   4.953   6.127   4.981 -3.9003  0.6378 -1.1054
   39MOL     H913765   5.160   6.243   4.996  2.2788 -0.4556  1.7431
   39MOL    H1013766   5.258   6.207   5.207  1.3298 -0.2972 -2.4464
   39MOL    H1113767   5.106   6.161   5.271  2.0632  2.6288  0.6464
   39MOL    H1213768   5.122   5.988   5.077 -0.6101 -0.4940  0.9634
   39MOL    H1313769   5.128   5.933   5.324  1.6069  0.4907  2.1335
   39MOL    H1413770   5.213   5.804   5.227 -1.2327  0.1309 -1.4332
   39MOL    H1513771   5.300   5.928   5.310 -0.8727  2.1466  0.5668
   39MOL    H1613772   5.334   5.919   4.994 -0.3869  0.0571 -2.1619
   39MOL    H1713773   5.412   6.045   5.088  0.3472 -1.6211 -0.4668
   39MOL    H1813774   5.310   6.086   4.953  2.2546  0.0826 -0.2369
   39MOL    H1913775   4.898   6.160   5.145 -1.3807  2.0649  1.0523
   39MOL    C2013776   5.100   6.394   5.140  0.6983  0.4659  0.3211
   39MOL    C2113777   5.041   6.513   5.067  0.1291  0.1484  0.2707
   39MOL    C2213778   5.055   6.648   5.145 -0.0660 -0.5018  0.2934
   39MOL    C2313779   4.955   6.668   5.257 -0.1375  0.7827 -0.4810
   39MOL    C2413780   4.989   6.789   5.336 -0.1725 -0.0752  0.6319
   39MOL    C2513781   4.815   6.674   5.202  0.2878 -0.8912 -0.3940
   39MOL    H2613782   5.044   6.389   5.233  0.2252  0.9429  0.0626
   39MOL    H2713783   5.203   6.418   5.166  0.1054  1.4378  1.8595
   39MOL    H2813784   4.934   6.496   5.059 -0.0734  1.8883 -1.0087
   39MOL    H2913785   5.040   6.731   5.077 -0.6951 -1.5079 -0.8125
   39MOL    H3013786   5.154   6.659   5.189  0.3400  2.3877 -1.2216
   39MOL    H3113787   4.961   6.588   5.332 -0.8553  0.8506 -0.3504
   39MOL    H3213788   5.083   6.767   5.386 -0.5907 -0.2547  1.3509
   39MOL    H3313789   4.919   6.814   5.417 -2.4939 -0.7831 -1.0968
   39MOL    H3413790   5.007   6.871   5.266 -2.1004 -0.0364  0.1481
   39MOL    H3513791   4.773   6.582   5.161 -0.3756 -1.6413  1.8680
   39MOL    H3613792   4.740   6.688   5.280 -0.2737  0.8468 -1.2132
   39MOL    H3713793   4.803   6.746   5.121 -0.6749 -0.7930 -0.1617
   39MOL    C3813794   5.106   6.516   4.930  0.1448 -0.0118  0.3127
   39MOL    C3913795   5.036   6.596   4.823 -0.3075  0.2439 -0.7820
   39MOL    C4013796   4.919   6.517   4.767  0.2159 -0.1126 -0.0860
   39MOL    C4113797   4.819   6.597   4.684  0.9461 -0.2336  0.0989
   39MOL    C4213798   4.749   6.715   4.759  0.0469  0.1939 -0.1118
   39MOL    C4313799   4.707   6.511   4.625  0.5806 -0.1504 -0.4503
   39MOL    H4413800   5.110   6.418   4.882 -0.1946 -0.5696  1.4293
   39MOL    H4513801   5.211   6.546   4.932 -0.2428  1.6755 -2.0105
   39MOL    H4613802   4.992   6.686   4.866  0.8665  0.6115 -0.3447
   39MOL    H4713803   4.864   6.470   4.849  0.6102  4.3221  2.9247
   39MOL    H4813804   4.957   6.439   4.702 -0.1978  0.2806 -0.8119
   39MOL    H4913805   4.878   6.636   4.602  0.5504  1.8382  0.7815
   39MOL    H5013806   4.688   6.769   4.686  0.1023 -0.7495 -0.8637
   39MOL    H5113807   4.683   6.678   4.838 -0.9080  1.1431 -0.4533
   39MOL    H5213808   4.822   6.784   4.802  0.1394 -0.3214  0.5640
   39MOL    H5313809   4.635   6.479   4.700  0.7680  2.9252  1.1275
   39MOL    H5413810   4.749   6.431   4.563 -0.3553 -0.9357 -0.0814
   39MOL    H5513811   4.651   6.584   4.566  1.7875 -0.8774 -2.5897
   39MOL    C5613812   5.132   6.653   4.716  0.1243  0.0672  0.4579
   39MOL    C5713813   5.207   6.781   4.754  0.2916 -0.5831 -0.2616
   39MOL    C5813814   5.124   6.907   4.733  0.5883  0.2624 -0.4313
   39MOL    C5913815   5.181   7.034   4.816 -0.5669 -0.3266 -0.4301
   39MOL    C6013816   5.138   7.026   4.965 -0.2412  0.1661 -0.0421
   39MOL    C6113817   5.116   7.163   4.756  0.2508  0.7375 -0.3224
   39MOL    H6213818   5.073   6.673   4.626  1.3233  1.2728 -0.0620
   39MOL    H6313819   5.191   6.572   4.673 -2.1081 -1.7044  0.6163
   39MOL    H6413820   5.244   6.767   4.856 -0.4237 -0.3438  0.0367
   39MOL    H6513821   5.132   6.937   4.629  3.0770 -0.1425 -0.3899
   39MOL    H6613822   5.018   6.888   4.748  1.3498 -1.9991  2.8313
   39MOL    H6713823   5.290   7.042   4.807 -0.4296 -1.8835 -0.3839
   39MOL    H6813824   5.038   7.062   4.987  0.2200  1.3482  0.1676
   39MOL    H6913825   5.192   7.097   5.029 -2.3174  0.2895  1.6021
   39MOL    H7013826   5.147   6.929   5.014 -0.1694 -0.0123 -0.4123
   39MOL    H7113827   5.008   7.165   4.767  0.4174  1.3404  1.3960
   39MOL    H7213828   5.139   7.176   4.650  3.6701 -0.0998  0.2567
   39MOL    H7313829   5.158   7.254   4.799  0.5256  1.9055 -2.9518
   39MOL    C7413830   5.342   6.794   4.683 -0.1864  0.0794  0.0697
   39MOL    C7513831   5.461   6.711   4.743  0.4161  0.2393 -0.0473
   39MOL    C7613832   5.517   6.766   4.880  0.2366  0.0147 -0.9177
   39MOL    C7713833   5.596   6.670   4.962 -0.0244 -0.5796  0.0844
   39MOL    C7813834   5.506   6.566   5.027 -0.4074  0.0616  0.2868
   39MOL    C7913835   5.687   6.744   5.068 -0.3916  0.0822  0.0788
   39MOL    H8013836   5.365   6.900   4.669  2.9142 -0.5411  0.0916
   39MOL    H8113837   5.325   6.755   4.583  1.2467  0.7889 -0.4766
   39MOL    H8213838   5.424   6.610   4.757 -2.1457  1.2718  1.0611
   39MOL    H8313839   5.581   6.852   4.866 -0.0180  0.3122 -0.2653
   39MOL    H8413840   5.431   6.789   4.942  0.5440 -0.4281 -0.3152
   39MOL    H8513841   5.667   6.624   4.894 -1.1374 -0.3558 -1.2576
   39MOL    H8613842   5.457   6.507   4.949  3.5543 -1.9986 -0.8020
   39MOL    H8713843   5.414   6.603   5.072 -1.2794 -1.6113 -0.0872
   39MOL    H8813844   5.561   6.507   5.100  1.7036 -1.0096 -2.0794
   39MOL    H8913845   5.748   6.674   5.126 -1.1335 -0.4888  0.1725
   39MOL    H9013846   5.746   6.822   5.020 -0.0588 -1.1033 -1.4809
   39MOL    H9113847   5.628   6.803   5.138  0.9166  1.8567 -0.2595
   39MOL    C9213848   5.571   6.716   4.639  0.0376 -0.2760 -0.2051
   39MOL    C9313849   5.589   6.590   4.558 -0.3460  0.8394 -0.3425
   39MOL    C9413850   5.660   6.612   4.415 -0.2530  0.4159 -0.1831
   39MOL    C9513851   5.584   6.708   4.321  0.0979  0.3341 -1.0714
   39MOL    C9613852   5.675   6.752   4.209  0.2183 -0.1397  0.4166
   39MOL    C9713853   5.444   6.656   4.273 -0.1703  0.2378 -0.5944
   39MOL    H9813854   5.563   6.803   4.574  2.8430  1.3820  1.5814
   39MOL    H9913855   5.667   6.733   4.688  0.7977 -1.2979 -1.3452
   39MOL   H10013856   5.495   6.541   4.533  0.4527  0.0395 -1.8439
   39MOL   H10113857   5.666   6.518   4.360 -1.0776  0.5690 -0.5530
   39MOL   H10213858   5.757   6.650   4.446 -1.1505 -0.0146  3.4869
   39MOL   H10313859   5.564   6.801   4.375 -1.7607  0.1955 -1.4780
   39MOL   H10413860   5.766   6.791   4.253  1.3018 -1.9404 -0.1495
   39MOL   H10513861   5.649   6.837   4.145 -0.4787 -0.2220  0.5876
   39MOL   H10613862   5.696   6.658   4.157 -0.5101  0.2488 -0.5969
   39MOL   H10713863   5.392   6.721   4.202  0.4524 -1.6163 -2.8051
   39MOL   H10813864   5.389   6.623   4.361  1.2226  0.1040  0.2470
   39MOL   H10913865   5.458   6.569   4.208  0.4557  1.1677 -1.7277
   39MOL   C11013866   5.665   6.486   4.645  0.4159 -0.0475  0.4906
   39MOL   C11113867   5.665   6.336   4.590 -0.5098 -0.3850  0.3375
   39MOL   C11213868   5.790   6.264   4.657  0.0834  0.4995 -0.0332
   39MOL   C11313869   5.837   6.119   4.603  0.7319 -0.0486  0.2378
   39MOL   C11413870   5.934   6.068   4.713 -0.2613 -0.4353 -0.3072
   39MOL   C11513871   5.914   6.125   4.465  0.4061 -0.3328 -0.1124
   39MOL   H11613872   5.653   6.487   4.754 -3.9082  1.5356  0.1168
   39MOL   H11713873   5.768   6.520   4.651  0.2863  0.3593  0.4110
   39MOL   H11813874   5.696   6.343   4.486 -0.6347 -0.7691  0.2747
   39MOL   H11913875   5.764   6.262   4.763 -0.4358  2.6024 -0.1029
   39MOL   H12013876   5.878   6.328   4.662  0.6403 -0.3399  0.9819
   39MOL   H12113877   5.755   6.047   4.597 -0.3482  0.7091  4.3011
   39MOL   H12213878   5.889   6.069   4.812  1.5363 -0.0870  0.5155
   39MOL   H12313879   6.026   6.125   4.718  0.1120 -1.0603  0.0094
   39MOL   H12413880   5.969   5.970   4.679  1.5584  0.1520 -0.1351
   39MOL   H12513881   5.919   6.020   4.433  1.1321 -0.0867 -0.8269
   39MOL   H12613882   6.008   6.180   4.462  1.4051 -1.8257  2.4451
   39MOL   H12713883   5.859   6.170   4.382  2.6971 -0.0840 -1.5341
   39MOL   C12813884   5.525   6.276   4.625 -0.1801 -0.0533 -0.1396
   39MOL   C12913885   5.455   6.221   4.504  0.0024 -0.2079  0.6931
   39MOL   C13013886   5.316   6.166   4.542 -0.2264  0.1461  0.6429
   39MOL   C13113887   5.209   6.268   4.576  0.1849 -0.3167 -0.0825
   39MOL   C13213888   5.213   6.385   4.481 -0.7325 -0.0010 -0.4148
   39MOL   C13313889   5.065   6.204   4.561 -0.0167  0.1696  0.1595
   39MOL   H13413890   5.466   6.349   4.680 -0.3575 -0.1011 -0.2666
   39MOL   H13513891   5.535   6.196   4.699 -1.0910 -0.6499 -0.6433
   39MOL   H13613892   5.451   6.298   4.427 -0.6157 -1.6456 -0.7472
   39MOL   H13713893   5.285   6.126   4.445  1.0657  0.4491  0.0950
   39MOL   H13813894   5.316   6.087   4.616  1.2357  0.6669  1.2265
   39MOL   H13913895   5.215   6.312   4.676  0.0803 -0.6539  0.0731
   39MOL   H14013896   5.127   6.449   4.498 -2.1502 -1.9565 -0.0174
   39MOL   H14113897   5.196   6.361   4.376  0.5747 -0.7295 -0.4777
   39MOL   H14213898   5.300   6.446   4.508  0.8398 -3.0860  1.8851
   39MOL   H14313899   5.065   6.113   4.500 -1.4578 -0.7361  1.4713
   39MOL   H14413900   5.032   6.177   4.661 -1.8621 -0.8041 -0.6867
   39MOL   H14513901   4.990   6.277   4.532 -1.7918 -1.4311  0.6354
   39MOL   C14613902   5.543   6.105   4.441 -0.2294 -0.6114  0.3191
   39MOL   C14713903   5.529   6.064   4.291  0.6418 -0.8649 -0.4637
   39MOL   C14813904   5.634   5.952   4.251 -0.5710  0.4474 -0.1241
   39MOL   C14913905   5.609   5.813   4.311  0.3666  0.0688  1.2005
   39MOL   C15013906   5.513   5.737   4.221  0.6915 -0.9240  0.5534
   39MOL   C15113907   5.737   5.733   4.324  0.2957  0.3255 -0.2975
   39MOL   H15213908   5.566   6.026   4.512 -0.0715  0.5452  1.5759
   39MOL   H15313909   5.642   6.149   4.431  0.2438 -1.3319  1.6825
   39MOL   H15413910   5.434   6.013   4.273 -0.6655  0.8821  1.2243
   39MOL   H15513911   5.629   5.948   4.142 -0.0073  1.1555 -0.1782
   39MOL   H15613912   5.727   6.002   4.276 -0.5823 -0.1571  1.1624
   39MOL   H15713913   5.566   5.825   4.410  0.5005 -1.4177  1.4494
   39MOL   H15813914   5.471   5.641   4.252  0.1704 -0.7480  0.4142
   39MOL   H15913915   5.562   5.730   4.124 -4.4219  2.1370 -2.4786
   39MOL   H16013916   5.421   5.793   4.206  0.3432 -1.5679  0.2268
   39MOL   H16113917   5.787   5.700   4.233 -1.6504  0.3799 -1.4245
   39MOL   H16213918   5.705   5.642   4.373  0.2797  0.7883  0.5647
   39MOL   H16313919   5.811   5.784   4.385  1.2569 -0.2229 -0.9896
   39MOL   C16413920   5.533   6.190   4.191 -0.0432  0.0061  0.2803
   39MOL   C16513921   5.488   6.164   4.042  0.4032 -0.5465 -0.9586
   39MOL   C16613922   5.332   6.173   4.048  0.1206  0.4800 -0.0683
   39MOL   C16713923   5.258   6.090   3.933  0.7646 -0.7691  0.5550
   39MOL   C16813924   5.284   6.131   3.788 -0.8883  0.0729  0.3165
   39MOL   C16913925   5.246   5.937   3.954 -0.5476 -0.5632  0.6746
   39MOL   H17013926   5.472   6.275   4.220 -0.9840  0.3823 -2.6604
   39MOL   H17113927   5.638   6.219   4.191 -0.1021  0.2186  0.6776
   39MOL   H17213928   5.524   6.066   4.010 -0.5014 -1.0923 -0.3545
   39MOL   H17313929   5.299   6.130   4.143  1.2167  0.6404  0.3893
   39MOL   H17413930   5.302   6.278   4.048 -0.0476  0.4581 -2.2164
   39MOL   H17513931   5.154   6.118   3.946  0.9643  1.5728 -2.3006
   39MOL   H17613932   5.285   6.238   3.770 -1.9033 -0.3451 -2.5900
   39MOL   H17713933   5.204   6.092   3.724  0.0292 -1.9804  0.3721
   39MOL   H17813934   5.375   6.100   3.737 -1.5681  0.6050 -1.2708
   39MOL   H17913935   5.339   5.884   3.973 -0.8836 -0.3355  3.0164
   39MOL   H18013936   5.206   5.883   3.868  0.3132  0.2647 -0.2733
   39MOL   H18113937   5.188   5.907   4.041  2.1781  0.0266  2.7610
   39MOL   C18213938   5.553   6.272   3.951  0.3668  0.0878 -0.5721
   39MOL   C18313939   5.701   6.252   3.929 -0.2139  0.2072 -0.2272
   39MOL   C18413940   5.729   6.192   3.788  0.5760  0.5081 -0.2110
   39MOL   C18513941   5.717   6.037   3.781  0.8943 -0.5517  0.3859
   39MOL   C18613942   5.722   5.985   3.636 -0.0244  0.5490 -0.2545
   39MOL   C18713943   5.822   5.971   3.870  0.0438 -0.6244  0.1667
   39MOL   H18813944   5.530   6.372   3.988  0.0901 -0.6555  1.3498
   39MOL   H18913945   5.506   6.269   3.853 -0.3350  0.8369 -0.2660
   39MOL   H19013946   5.739   6.186   4.008  1.1658 -0.1990 -1.2086
   39MOL   H19113947   5.831   6.207   3.752 -0.1262  0.2350 -2.4322
   39MOL   H19213948   5.674   6.246   3.711  1.2274  1.5240  0.0277
   39MOL   H19313949   5.615   6.010   3.806 -0.2246  0.7287 -2.6300
   39MOL   H19413950   5.680   5.885   3.628  0.6364  0.0228  2.4576
   39MOL   H19513951   5.822   5.977   3.594 -0.6994  0.3634 -1.8764
   39MOL   H19613952   5.672   6.045   3.560 -1.0072  1.5591  1.1633
   39MOL   H19713953   5.800   5.977   3.977  1.4202 -0.6287  0.4687
   39MOL   H19813954   5.921   6.016   3.867  0.2262 -0.9098  1.3448
   39MOL   H19913955   5.831   5.869   3.832 -0.3177 -0.7947  0.5264
   39MOL   C20013956   5.772   6.386   3.942 -0.0447  0.8492 -0.5322
   39MOL   C20113957   5.933   6.375   3.933  0.3912  0.5093  0.3055
   39MOL   C20213958   5.993   6.296   4.052  0.4503 -0.2414  0.0553
   39MOL   C20313959   6.150   6.269   4.054  0.3738  0.0777  0.5825
   39MOL   C20413960   6.188   6.163   4.168  0.2101  0.0298 -0.5586
   39MOL   C20513961   6.198   6.212   3.919  1.1589 -0.4096  0.0842
   39MOL   H20613962   5.743   6.450   4.025 -0.9818  0.4266 -0.5278
   39MOL   H20713963   5.740   6.439   3.852 -2.5387  1.1547  0.4837
   39MOL   H20813964   5.966   6.316   3.847 -1.6557 -0.8343  0.3896
   39MOL   H20913965   5.962   6.350   4.142  1.0702 -0.1578  0.2223
   39MOL   H21013966   5.953   6.195   4.056 -2.2881  0.8579  3.2827
   39MOL   H21113967   6.216   6.354   4.071  1.2343 -0.5848  0.5896
   39MOL   H21213968   6.288   6.121   4.160  0.4579  0.6707 -0.9199
   39MOL   H21313969   6.117   6.082   4.154 -0.7121  0.5743  0.8628
   39MOL   H21413970   6.174   6.209   4.266  0.5810  0.8830 -0.8983
   39MOL   H21513971   6.162   6.264   3.830  1.6177 -3.4510 -2.0011
   39MOL   H21613972   6.165   6.108   3.908  1.1302 -0.0566 -4.1598
   39MOL   H21713973   6.306   6.198   3.918  1.1012 -0.9448  0.7633
   39MOL   C21813974   5.991   6.515   3.921 -0.2020  0.3262  0.3046
   39MOL   C21913975   5.956   6.589   3.789 -0.2007  0.1847  0.1454
   39MOL   C22013976   5.998   6.527   3.652  0.0822 -0.3200 -0.7131
   39MOL   C22113977   5.882   6.480   3.559 -0.2217 -0.6879  0.1011
   39MOL   C22213978   5.816   6.604   3.495 -0.5978  0.9856  0.1358
   39MOL   C22313979   5.923   6.382   3.447  0.3622  0.6186  0.2669
   39MOL   H22413980   5.963   6.575   4.007 -1.3762  1.8519 -1.1035
   39MOL   H22513981   6.097   6.494   3.927 -0.1911  0.5437  0.9082
   39MOL   H22613982   5.848   6.604   3.792 -0.8410 -3.3810 -2.5298
   39MOL   H22713983   6.074   6.591   3.607 -0.7965 -0.0851 -1.8884
   39MOL   H22813984   6.066   6.446   3.676  1.4036  0.7602 -0.7684
   39MOL   H22913985   5.807   6.434   3.624  0.2573 -2.9776 -0.9246
   39MOL   H23013986   5.857   6.631   3.397 -0.0879  2.6750  0.7948
   39MOL   H23113987   5.711   6.579   3.480 -0.6794  2.2111 -1.4639
   39MOL   H23213988   5.823   6.691   3.561 -0.4120  1.7170 -0.8395
   39MOL   H23313989   5.960   6.295   3.500  0.0835 -0.2003 -0.8569
   39MOL   H23413990   5.842   6.342   3.386  0.6014  0.6794 -0.0959
   39MOL   H23513991   6.002   6.418   3.381  1.1948  0.1669  1.0057
   39MOL   C23613992   6.010   6.738   3.788 -0.2295 -0.7403 -0.3908
   39MOL   C23713993   6.162   6.765   3.796 -0.8988 -0.7147 -0.2233
   39MOL   C23813994   6.213   6.785   3.942 -0.5394  0.0171 -0.0189
   39MOL   C23913995   6.353   6.857   3.974  0.1928 -0.2585  0.2034
   39MOL   C24013996   6.350   6.917   4.115  0.3517 -0.2103  0.1565
   39MOL   C24113997   6.458   6.749   3.963 -0.0235  0.6557 -0.3977
   39MOL   H24213998   5.961   6.801   3.862  0.0232  0.7128 -1.4410
   39MOL   H24313999   5.966   6.791   3.704 -2.9826  0.0289  1.4659
   39MOL   H24414000   6.222   6.683   3.757 -0.9538 -0.2680 -1.2772
   39MOL   H24514001   6.206   6.692   3.999  0.5423 -1.4800 -2.2430
   39MOL   H24614002   6.142   6.853   3.989 -0.6226 -1.0261  1.3815
   39MOL   H24714003   6.380   6.938   3.906  1.6801 -0.3638  0.6667
   39MOL   H24814004   6.260   6.977   4.128  0.1452 -0.9659  2.4535
   39MOL   H24914005   6.431   6.988   4.131  0.4814 -0.4587  0.6317
   39MOL   H25014006   6.350   6.838   4.190  1.6185  0.7001  1.1335
   39MOL   H25114007   6.456   6.681   4.048  1.9959  1.2983  0.1855
   39MOL   H25214008   6.558   6.791   3.969  0.7997 -1.4204  1.0442
   39MOL   H25314009   6.454   6.688   3.873 -0.4493 -1.3653  0.9600
   39MOL   C25414010   6.202   6.879   3.695  0.0863  0.7062 -0.6614
   39MOL   C25514011   6.189   6.849   3.543 -0.4556  0.6887  1.2517
   39MOL   C25614012   6.133   6.975   3.465  0.3068 -0.7160  0.0060
   39MOL   C25714013   5.993   7.022   3.517  0.4572  0.6148 -0.4340
   39MOL   C25814014   5.902   7.005   3.398 -0.4434  0.2809  0.7542
   39MOL   C25914015   5.983   7.160   3.584  0.0024  0.1905  0.0166
   39MOL   H26014016   6.151   6.967   3.735 -1.0524 -1.5418  2.9963
   39MOL   H26114017   6.305   6.910   3.712 -0.3443  1.3571  0.8034
   39MOL   H26214018   6.115   6.771   3.522  0.5262 -0.5581  2.3126
   39MOL   H26314019   6.135   6.952   3.358 -0.8488 -0.9925  0.0426
   39MOL   H26414020   6.202   7.059   3.474  0.4443 -0.9009  0.6729
   39MOL   H26514021   5.963   6.951   3.594 -2.9372  2.0532 -0.3417
   39MOL   H26614022   5.886   6.899   3.379 -3.2087  0.4798  1.6711
   39MOL   H26714023   5.936   7.057   3.309 -3.4876  1.7286  0.3771
   39MOL   H26814024   5.800   7.038   3.420 -0.9671 -0.0435 -1.0575
   39MOL   H26914025   6.015   7.238   3.516  1.1005  0.6966  1.0868
   39MOL   H27014026   5.899   7.179   3.652 -1.5709 -5.2641 -0.1286
   39MOL   H27114027   6.064   7.167   3.657 -0.3720 -3.2143  0.8741
   39MOL   C27214028   6.322   6.802   3.492 -0.1625  0.6387  0.2182
   39MOL   C27314029   6.341   6.774   3.342 -0.2050 -0.0319  0.0434
   39MOL   C27414030   6.490   6.741   3.302  0.7610  0.1277 -0.3353
   39MOL   C27514031   6.598   6.842   3.340  0.7874  0.3361  0.0375
   39MOL   C27614032   6.582   6.969   3.258  0.0255  0.3321 -0.8367
   39MOL   C27714033   6.746   6.784   3.319 -0.1961  0.0069  0.0100
   39MOL   H27814034   6.383   6.886   3.523 -0.2795  0.3932  1.1261
   39MOL   H27914035   6.346   6.718   3.557  0.5262  2.5563  2.5081
   39MOL   H28014036   6.324   6.866   3.284  1.1561  0.6817  0.7621
   39MOL   H28114037   6.497   6.723   3.195  0.0483  0.5031 -0.4474
   39MOL   H28214038   6.514   6.643   3.345 -0.6948 -0.2622 -0.3685
   39MOL   H28314039   6.587   6.868   3.446 -0.6224 -3.1853  0.8195
   39MOL   H28414040   6.651   7.041   3.301 -1.4159 -0.0839  2.3526
   39MOL   H28514041   6.608   6.940   3.156 -3.9270 -3.2873 -0.9581
   39MOL   H28614042   6.487   7.020   3.268  0.1991  0.2032  1.8442
   39MOL   H28714043   6.753   6.685   3.364  0.0036  0.0355  0.0421
   39MOL   H28814044   6.777   6.783   3.214  2.3486 -0.5263  0.7420
   39MOL   H28914045   6.817   6.854   3.363 -0.4945  0.0599  0.4089
   39MOL   C29014046   6.258   6.650   3.289  0.2608 -0.0329 -0.6608
   39MOL   C29114047   6.192   6.660   3.148 -0.9792 -0.4868  0.0511
   39MOL   C29214048   6.216   6.537   3.068 -0.4732 -0.4361 -0.5256
   39MOL   C29314049   6.360   6.526   3.000 -0.4550  1.5555 -0.2724
   39MOL   C29414050   6.383   6.375   2.975 -0.7903  0.1921  0.5368
   39MOL   C29514051   6.372   6.610   2.876  0.7099  0.5200  0.2597
   39MOL   H29614052   6.312   6.556   3.302  1.5130  0.8139  0.3513
   39MOL   H29714053   6.181   6.637   3.364  0.1632  0.3706 -0.6898
   39MOL   H29814054   6.244   6.744   3.102 -0.0625 -2.1318 -1.9352
   39MOL   H29914055   6.141   6.528   2.989  1.2589 -1.9399 -2.0421
   39MOL   H30014056   6.192   6.454   3.136  0.7472 -0.2870  0.0965
   39MOL   H30114057   6.442   6.558   3.065 -0.2280  2.5632 -1.0517
   39MOL   H30214058   6.387   6.333   3.075  4.9683 -1.0170 -0.0715
   39MOL   H30314059   6.475   6.346   2.925 -1.9552 -2.7189  0.0293
   39MOL   H30414060   6.294   6.325   2.937 -0.9050  0.0920  0.9310
   39MOL   H30514061   6.415   6.705   2.908  0.8861 -0.0815  1.8944
   39MOL   H30614062   6.273   6.625   2.832 -0.0371 -1.1041  1.3527
   39MOL   H30714063   6.441   6.569   2.803  0.1507  2.0562 -1.1493
   39MOL   C30814064   6.045   6.706   3.151 -0.0802 -0.6236 -0.4944
   39MOL   C30914065   5.979   6.746   3.013  0.5093 -0.5720  0.0133
   39MOL   C31014066   5.829   6.696   3.010  0.2705 -0.3363 -0.7433
   39MOL   C31114067   5.814   6.539   2.985 -1.0452  0.5992  0.7904
   39MOL   C31214068   5.666   6.506   2.987 -0.4214  0.3752  0.0347
   39MOL   C31314069   5.875   6.492   2.855  0.5795 -0.9122 -0.7829
   39MOL   H31414070   5.993   6.614   3.180  2.3774 -1.4966  1.2572
   39MOL   H31514071   6.035   6.781   3.229  0.3227  1.0661 -2.0348
   39MOL   H31614072   6.027   6.689   2.934 -4.2257 -2.3540 -1.7251
   39MOL   H31714073   5.782   6.746   2.925 -1.8759 -1.1023 -0.0461
   39MOL   H31814074   5.769   6.731   3.094 -0.7260  0.7288 -1.8797
   39MOL   H31914075   5.859   6.477   3.063  0.7021  0.2520 -0.4651
   39MOL   H32014076   5.609   6.522   3.079 -0.3856  1.2395 -0.0928
   39MOL   H32114077   5.664   6.397   2.977  3.9797  0.2798 -0.6170
   39MOL   H32214078   5.608   6.551   2.907  1.1510  2.7734  0.2143
   39MOL   H32314079   5.845   6.559   2.774 -0.5678 -0.2864  0.1470
   39MOL   H32414080   5.984   6.494   2.856  0.5802 -1.2642 -0.3615
   39MOL   H32514081   5.844   6.393   2.818 -1.9471 -0.3243 -0.3699
   39MOL   C32614082   5.996   6.897   2.968  0.5199 -0.2319 -0.3295
   39MOL   C32714083   5.985   6.924   2.815 -0.1896 -0.2058 -0.1165
   39MOL   C32814084   6.123   6.928   2.746  0.4223 -0.3252  0.2073
   39MOL   C32914085   6.121   6.845   2.612 -1.0856 -0.1323  0.4278
   39MOL   C33014086   6.031   6.900   2.496 -0.9802  0.4917  0.1951
   39MOL   C33114087   6.268   6.842   2.562  0.7068 -0.2852  0.0993
   39MOL   H33214088   6.097   6.924   2.999  0.7909 -0.6348 -0.8484
   39MOL   H33314089   5.922   6.958   3.019 -0.9580  0.3272 -3.0646
   39MOL   H33414090   5.927   6.843   2.771  0.8589 -0.0147 -1.8839
   39MOL   H33514091   6.146   7.034   2.739 -3.0271  0.4625 -0.0625
   39MOL   H33614092   6.191   6.882   2.818 -0.9184 -3.6109 -0.5222
   39MOL   H33714093   6.097   6.741   2.636 -2.0817  0.1436  0.6504
   39MOL   H33814094   6.048   6.852   2.399 -1.8138 -1.6852  1.0857
   39MOL   H33914095   6.026   7.006   2.473 -0.9740  0.6246  0.7942
   39MOL   H34014096   5.928   6.866   2.510 -1.0633  0.4104 -0.5781
   39MOL   H34114097   6.295   6.940   2.522  1.0871 -1.1695 -1.8483
   39MOL   H34214098   6.340   6.818   2.641  1.0445  1.2621  0.2797
   39MOL   H34314099   6.280   6.760   2.491 -0.2749 -0.3395 -0.0078
   39MOL   C34414100   5.905   7.044   2.779  0.2664 -0.1351 -0.3273
   39MOL   C34514101   5.752   7.015   2.798 -0.1766  0.1589  0.8361
   39MOL   C34614102   5.673   7.142   2.808 -0.2296 -0.2684  0.7301
   39MOL   C34714103   5.516   7.122   2.806  0.3414 -0.0591 -0.3677
   39MOL   C34814104   5.453   7.066   2.678 -0.1832 -0.1418  0.5582
   39MOL   C34914105   5.439   7.257   2.838 -0.5037  0.2413  0.6139
   39MOL   H35014106   5.913   7.078   2.675 -5.1358  0.8372 -0.6108
   39MOL   H35114107   5.933   7.127   2.843  2.5766  0.3434 -1.9337
   39MOL   H35214108   5.739   6.959   2.891 -0.9251  1.7309  1.6910
   39MOL   H35314109   5.707   7.205   2.890 -2.4040  1.6991  0.1870
   39MOL   H35414110   5.706   7.197   2.719  1.9263  0.2489  1.8165
   39MOL   H35514111   5.503   7.055   2.891 -1.0979 -0.5220 -0.9348
   39MOL   H35614112   5.356   7.016   2.691 -0.0626 -0.1947  1.2629
   39MOL   H35714113   5.431   7.141   2.602 -1.7946  1.1043  2.2258
   39MOL   H35814114   5.514   6.984   2.640  1.1105  1.3281 -0.6044
   39MOL   H35914115   5.440   7.319   2.749 -0.6021 -0.5875  0.0274
   39MOL   H36014116   5.489   7.307   2.921 -0.9800 -0.8433  1.5827
   39MOL   H36114117   5.339   7.239   2.878 -0.4474 -0.3811  0.4878
   39MOL   H36214118   5.701   6.953   2.724 -0.2096 -0.8101  1.6558
   40MOL     C114119   1.981   4.232   0.372 -0.2243  0.1523 -0.7615
   40MOL     C214120   2.008   4.277   0.522  0.4998 -0.0748  0.5567
   40MOL     C314121   1.934   4.410   0.556  0.4493  0.2487 -0.4404
   40MOL     C414122   1.800   4.388   0.623  0.2334 -0.5047  0.0509
   40MOL     C514123   1.700   4.307   0.548 -0.2718  0.3166 -0.5515
   40MOL     C614124   1.732   4.524   0.662 -0.8751  0.8376 -0.0132
   40MOL     H714125   2.013   4.131   0.349 -1.3136 -0.6232  1.0057
   40MOL     H814126   1.877   4.237   0.338  0.0434 -1.3431 -1.8214
   40MOL     H914127   1.966   4.201   0.589 -0.7271 -0.4914 -0.6461
   40MOL    H1014128   1.996   4.470   0.623 -0.1063 -1.7246  1.8646
   40MOL    H1114129   1.911   4.459   0.461  1.1117 -0.4726 -0.9784
   40MOL    H1214130   1.827   4.342   0.719  1.4431 -0.7923 -0.4157
   40MOL    H1314131   1.736   4.207   0.522 -0.2267  0.8206 -2.5375
   40MOL    H1414132   1.612   4.283   0.607 -0.7072  0.3484 -1.1794
   40MOL    H1514133   1.652   4.349   0.459 -0.6682  0.0030 -0.4841
   40MOL    H1614134   1.670   4.503   0.749  1.5443 -1.8713  1.1424
   40MOL    H1714135   1.670   4.577   0.589 -1.5873 -0.5515 -0.4351
   40MOL    H1814136   1.802   4.598   0.700  0.6224 -0.3403 -0.4172
   40MOL    H1914137   2.034   4.298   0.303 -1.2496 -0.9792 -2.6619
   40MOL    C2014138   2.156   4.289   0.546 -0.1690 -0.1099  0.2589
   40MOL    C2114139   2.206   4.273   0.703 -0.2428 -0.4941 -0.6430
   40MOL    C2214140   2.218   4.124   0.750  0.1116  0.0501 -0.2413
   40MOL    C2314141   2.328   4.033   0.702 -0.1158  0.2207  0.2977
   40MOL    C2414142   2.388   3.938   0.814  0.1015  0.3713 -0.3720
   40MOL    C2514143   2.296   3.950   0.583  0.5434 -0.7787  0.5722
   40MOL    H2614144   2.202   4.222   0.473 -1.1094  0.8061 -1.1995
   40MOL    H2714145   2.190   4.385   0.507  0.6008 -2.6285 -5.9224
   40MOL    H2814146   2.140   4.328   0.769 -0.2945  0.4253 -1.4408
   40MOL    H2914147   2.125   4.070   0.730  0.1360 -0.2936  0.5612
   40MOL    H3014148   2.219   4.130   0.859  0.3970  2.7404 -0.3617
   40MOL    H3114149   2.415   4.096   0.681  0.1273  0.3533  1.6221
   40MOL    H3214150   2.311   3.881   0.865  0.2828 -0.4775 -1.0296
   40MOL    H3314151   2.435   4.005   0.886 -0.7572 -0.5708  1.0881
   40MOL    H3414152   2.472   3.872   0.794  1.0277  0.8149  1.8490
   40MOL    H3514153   2.393   3.917   0.546  1.0048  0.1977  0.8999
   40MOL    H3614154   2.235   3.864   0.611 -0.2937 -0.3710  0.0316
   40MOL    H3714155   2.255   4.014   0.505  1.6189 -0.0385  0.6082
   40MOL    C3814156   2.345   4.337   0.718  0.9143  0.0908 -0.1106
   40MOL    C3914157   2.351   4.493   0.728  0.8559 -0.3266 -0.1926
   40MOL    C4014158   2.463   4.548   0.640 -0.4346  0.2442 -0.0200
   40MOL    C4114159   2.444   4.693   0.604 -0.5833 -0.8987  0.2553
   40MOL    C4214160   2.378   4.687   0.470 -0.4530 -0.0017  0.1616
   40MOL    C4314161   2.576   4.771   0.613  0.0676  0.3238 -0.1449
   40MOL    H4414162   2.416   4.288   0.652  1.7948 -2.3617  2.5596
   40MOL    H4514163   2.392   4.309   0.812 -1.5485 -2.2247  0.5126
   40MOL    H4614164   2.257   4.537   0.695  1.1397  1.7175  1.5976
   40MOL    H4714165   2.469   4.479   0.555  0.5006  0.1662  0.1045
   40MOL    H4814166   2.557   4.533   0.694  0.6136 -0.4070 -1.9769
   40MOL    H4914167   2.368   4.737   0.669 -0.3991  0.3353 -0.3590
   40MOL    H5014168   2.324   4.779   0.444  0.9165  1.2201  1.5825
   40MOL    H5114169   2.445   4.682   0.384 -3.2797 -2.3399 -2.0087
   40MOL    H5214170   2.300   4.614   0.450 -0.4900  0.0878 -0.0277
   40MOL    H5314171   2.575   4.873   0.577  1.4346 -0.1168 -1.4810
   40MOL    H5414172   2.657   4.720   0.560 -0.4795  1.4713 -2.1278
   40MOL    H5514173   2.617   4.773   0.714  0.5551 -0.8550 -0.3083
   40MOL    C5614174   2.372   4.536   0.879 -0.0005  0.1313  0.8481
   40MOL    C5714175   2.249   4.516   0.971 -0.4811 -0.7836  0.0043
   40MOL    C5814176   2.133   4.612   0.933 -0.4687  0.6193 -0.0862
   40MOL    C5914177   2.005   4.571   1.012  0.1630 -0.1264  0.2676
   40MOL    C6014178   1.943   4.435   0.968 -1.1222  0.1583  0.2382
   40MOL    C6114179   1.899   4.674   1.011  0.6752  0.7203  0.8364
   40MOL    H6214180   2.408   4.636   0.903 -0.9090  0.2184  1.8923
   40MOL    H6314181   2.457   4.476   0.911 -0.3848 -0.8168  0.1214
   40MOL    H6414182   2.214   4.413   0.967 -3.2032  0.1596 -1.5165
   40MOL    H6514183   2.153   4.716   0.958 -0.8713  0.9748 -1.2348
   40MOL    H6614184   2.111   4.612   0.827  0.7882  1.1414 -0.3549
   40MOL    H6714185   2.040   4.561   1.115 -1.2555 -1.1690  0.6481
   40MOL    H6814186   1.835   4.432   0.978 -1.3722 -1.4621 -2.5902
   40MOL    H6914187   1.997   4.361   1.026 -0.2879  0.1629 -0.5116
   40MOL    H7014188   1.969   4.425   0.862  0.9891  1.2378  0.6311
   40MOL    H7114189   1.849   4.686   0.915  1.9709 -2.3516 -0.2908
   40MOL    H7214190   1.939   4.774   1.025  0.9240  0.5706  1.2083
   40MOL    H7314191   1.828   4.657   1.092 -0.7081  1.9502 -0.0910
   40MOL    C7414192   2.297   4.540   1.117  0.0133 -0.2224 -0.0680
   40MOL    C7514193   2.276   4.417   1.207 -0.0045  0.0598 -0.0403
   40MOL    C7614194   2.302   4.462   1.351 -0.4530  0.0654 -0.5596
   40MOL    C7714195   2.185   4.543   1.412  0.2023 -0.3803  0.3732
   40MOL    C7814196   2.220   4.615   1.541 -0.4164 -0.2882 -0.2562
   40MOL    C7914197   2.068   4.445   1.433  0.3264 -0.1465 -0.6582
   40MOL    H8014198   2.244   4.629   1.151  1.7074  0.6119  0.4013
   40MOL    H8114199   2.399   4.578   1.121 -0.5864  1.4384 -0.0401
   40MOL    H8214200   2.172   4.386   1.193 -0.2548  1.1654 -0.7534
   40MOL    H8314201   2.330   4.379   1.416  1.3268  0.6993 -0.4840
   40MOL    H8414202   2.390   4.525   1.347 -0.7881  0.5049 -0.9884
   40MOL    H8514203   2.162   4.625   1.344  0.5059 -0.2017  0.4839
   40MOL    H8614204   2.270   4.708   1.513 -1.0536 -0.5801 -2.4393
   40MOL    H8714205   2.270   4.552   1.614 -0.9405 -2.3206 -1.6132
   40MOL    H8814206   2.129   4.654   1.586 -0.3847 -0.8920  0.3417
   40MOL    H8914207   2.094   4.340   1.443 -0.7350 -0.2163  1.6612
   40MOL    H9014208   2.007   4.486   1.513  0.5146  1.1471 -1.1485
   40MOL    H9114209   2.002   4.460   1.348 -0.5544 -0.1244  0.0282
   40MOL    C9214210   2.379   4.310   1.167 -0.2077  0.7267 -0.1660
   40MOL    C9314211   2.356   4.169   1.227  0.1340 -0.0736 -0.5229
   40MOL    C9414212   2.253   4.078   1.147  0.3370 -0.0668  0.6976
   40MOL    C9514213   2.178   3.971   1.222  0.3431 -0.7312  0.2304
   40MOL    C9614214   2.092   4.030   1.334 -0.5094 -0.0630 -0.3363
   40MOL    C9714215   2.098   3.877   1.128  0.0015  0.1932 -0.7189
   40MOL    H9814216   2.376   4.304   1.058 -0.0051  1.1033 -0.1951
   40MOL    H9914217   2.476   4.353   1.192 -0.7088  1.4628  0.5079
   40MOL   H10014218   2.320   4.175   1.329 -1.5838  0.1185 -1.1256
   40MOL   H10114219   2.320   4.034   1.074  2.3260  2.5549  0.8568
   40MOL   H10214220   2.189   4.139   1.083  0.4957 -2.1083 -1.4372
   40MOL   H10314221   2.249   3.910   1.279 -1.1324 -2.3910  0.3289
   40MOL   H10414222   2.011   4.092   1.297  0.2556  0.8039 -0.5806
   40MOL   H10514223   2.145   4.096   1.404 -2.7904  0.8881  0.5220
   40MOL   H10614224   2.045   3.944   1.381  1.3930 -1.1392 -0.3435
   40MOL   H10714225   2.017   3.937   1.085 -0.4739 -0.2022 -0.3668
   40MOL   H10814226   2.044   3.790   1.164  0.9178  0.2007  0.7006
   40MOL   H10914227   2.153   3.852   1.037 -1.0963 -1.2048 -1.0174
   40MOL   C11014228   2.492   4.087   1.244  0.5490 -0.1934 -0.7594
   40MOL   C11114229   2.560   4.106   1.390  0.0262  0.2415  0.4975
   40MOL   C11214230   2.653   3.986   1.412  0.2502 -0.4369  0.4810
   40MOL   C11314231   2.596   3.851   1.428 -0.2192  0.3743  0.2352
   40MOL   C11414232   2.530   3.834   1.563 -0.3666  0.0202 -0.1608
   40MOL   C11514233   2.710   3.750   1.413 -0.4749 -0.8365  1.1151
   40MOL   H11614234   2.574   4.113   1.177 -1.1207  0.1750 -2.7096
   40MOL   H11714235   2.474   3.982   1.222  0.9325 -0.2177 -0.9606
   40MOL   H11814236   2.485   4.104   1.469  0.3340  1.4016  0.8316
   40MOL   H11914237   2.708   4.020   1.500 -1.3260 -2.4556  2.2994
   40MOL   H12014238   2.731   3.988   1.335 -1.6008  1.3997 -1.4067
   40MOL   H12114239   2.527   3.831   1.346  0.0902 -2.7063  0.6466
   40MOL   H12214240   2.586   3.880   1.644  0.4305 -2.3351  0.6680
   40MOL   H12314241   2.499   3.734   1.593 -0.5050 -0.2036 -1.0431
   40MOL   H12414242   2.434   3.884   1.566  0.1810  1.3909 -3.2740
   40MOL   H12514243   2.672   3.650   1.436 -2.2516 -0.1654  1.1769
   40MOL   H12614244   2.796   3.784   1.470  1.5676 -0.9378 -1.8083
   40MOL   H12714245   2.740   3.750   1.308  0.8999 -0.4177  1.5040
   40MOL   C12814246   2.629   4.242   1.415  0.2731 -0.1497  0.4675
   40MOL   C12914247   2.693   4.280   1.551 -0.7684  0.6310  0.7428
   40MOL   C13014248   2.581   4.339   1.637  0.5261  0.0562 -0.0851
   40MOL   C13114249   2.616   4.363   1.785 -0.0793 -0.2991 -0.2578
   40MOL   C13214250   2.514   4.459   1.850  0.3833 -0.2016 -0.2501
   40MOL   C13314251   2.650   4.232   1.851 -0.2789  0.4027  0.2985
   40MOL   H13414252   2.557   4.321   1.396  0.4739 -0.1214 -0.1582
   40MOL   H13514253   2.698   4.261   1.333  0.9488 -0.4504  0.9579
   40MOL   H13614254   2.728   4.192   1.605 -0.2247 -0.1789 -0.8795
   40MOL   H13714255   2.536   4.427   1.591  0.2466 -0.1969 -0.3049
   40MOL   H13814256   2.491   4.277   1.643 -1.3459  2.6972  0.2230
   40MOL   H13914257   2.703   4.429   1.788 -0.1779 -0.1737 -0.2049
   40MOL   H14014258   2.500   4.545   1.785 -2.1219  0.2278  0.7930
   40MOL   H14114259   2.551   4.493   1.947  2.0398 -2.0788 -0.2010
   40MOL   H14214260   2.420   4.409   1.871  0.4533 -0.4243 -0.4733
   40MOL   H14314261   2.572   4.159   1.829  0.2144 -0.5287  1.5689
   40MOL   H14414262   2.741   4.190   1.808  0.3524  1.5735  0.4779
   40MOL   H14514263   2.669   4.244   1.957  0.1340 -2.1062  0.5541
   40MOL   C14614264   2.807   4.382   1.533 -0.2403  1.3065 -0.7582
   40MOL   C14714265   2.933   4.327   1.451  0.1356  0.7097 -0.3974
   40MOL   C14814266   3.023   4.234   1.543  0.0455  0.2361 -0.4708
   40MOL   C14914267   3.112   4.129   1.466  0.1949  1.0397  0.1867
   40MOL   C15014268   3.219   4.073   1.559 -0.3665 -0.4791  0.0583
   40MOL   C15114269   3.026   4.013   1.408  0.5680 -0.7195 -0.0304
   40MOL   H15214270   2.850   4.393   1.632 -2.3027  2.3302  0.0449
   40MOL   H15314271   2.785   4.482   1.495  1.1916  2.5234  1.5000
   40MOL   H15414272   2.900   4.257   1.374 -0.7721  2.9475 -2.1216
   40MOL   H15514273   3.084   4.304   1.599  1.3052  0.8280 -2.5240
   40MOL   H15614274   2.964   4.190   1.623  1.9032 -0.8282  0.3455
   40MOL   H15714275   3.163   4.186   1.389 -0.1803  0.0798 -0.7827
   40MOL   H15814276   3.278   4.152   1.603  1.2455 -0.2607 -2.3971
   40MOL   H15914277   3.295   4.020   1.501 -0.6568 -0.5190 -0.2913
   40MOL   H16014278   3.179   4.004   1.633  1.2813 -1.3390  0.1496
   40MOL   H16114279   2.962   4.052   1.328  0.8647  2.3284  1.1480
   40MOL   H16214280   2.965   3.971   1.488  0.5291 -0.0212  0.3088
   40MOL   H16314281   3.086   3.938   1.357  2.9717  1.7523 -0.9535
   40MOL   C16414282   3.022   4.440   1.395 -0.2362  0.2022 -0.1369
   40MOL   C16514283   2.993   4.472   1.244  0.1314 -0.3420 -0.1257
   40MOL   C16614284   2.857   4.542   1.220  0.2189 -0.2135 -0.0854
   40MOL   C16714285   2.803   4.561   1.073 -0.2519  0.0668 -0.1597
   40MOL   C16814286   2.734   4.430   1.023  0.1519 -0.0796 -0.2659
   40MOL   C16914287   2.719   4.685   1.067 -0.6376  0.0158 -0.1411
   40MOL   H17014288   3.012   4.525   1.463 -1.6875  0.1024 -0.2184
   40MOL   H17114289   3.123   4.405   1.416 -0.1652  0.8652  0.6614
   40MOL   H17214290   2.989   4.378   1.190  1.3140 -1.0277  0.9694
   40MOL   H17314291   2.774   4.485   1.263 -0.6404  0.2987 -1.0478
   40MOL   H17414292   2.849   4.635   1.276 -1.9577  1.9640 -3.8427
   40MOL   H17514293   2.889   4.583   1.010 -0.2028  2.5150  0.7042
   40MOL   H17614294   2.804   4.352   0.991 -1.7899 -2.6856  1.6425
   40MOL   H17714295   2.679   4.447   0.930 -0.9284 -0.0326  0.3765
   40MOL   H17814296   2.662   4.387   1.093  0.3702 -0.2995 -0.1761
   40MOL   H17914297   2.645   4.696   1.146 -0.7200 -0.6828 -0.1116
   40MOL   H18014298   2.660   4.686   0.975 -2.6728 -1.1891  1.1041
   40MOL   H18114299   2.784   4.771   1.081 -0.2415 -0.4117  0.6791
   40MOL   C18214300   3.109   4.563   1.190 -0.9184 -0.2424 -0.1312
   40MOL   C18314301   3.232   4.475   1.163  0.6527 -0.1204  0.6877
   40MOL   C18414302   3.234   4.423   1.017  0.0758  0.3010  0.2341
   40MOL   C18514303   3.274   4.272   1.009 -0.1230  0.0705 -0.7202
   40MOL   C18614304   3.163   4.168   1.051  0.0418 -0.3310  0.2770
   40MOL   C18714305   3.319   4.244   0.863  0.9620  0.0021 -0.3050
   40MOL   H18814306   3.134   4.636   1.268  3.4510 -1.5164 -0.2071
   40MOL   H18914307   3.093   4.628   1.104 -1.1015 -0.7111 -0.4497
   40MOL   H19014308   3.212   4.385   1.222  0.3804  0.0614  0.8704
   40MOL   H19114309   3.292   4.481   0.946  0.2132  1.2647  1.1109
   40MOL   H19214310   3.132   4.425   0.979 -0.4112 -1.9902  1.3373
   40MOL   H19314311   3.368   4.258   1.063  0.6222  2.9071 -1.1895
   40MOL   H19414312   3.121   4.166   1.151  1.2458 -0.6513  0.7816
   40MOL   H19514313   3.215   4.073   1.037 -1.2664 -1.0030 -0.1883
   40MOL   H19614314   3.087   4.165   0.973 -0.4687  0.0436  0.7595
   40MOL   H19714315   3.394   4.316   0.832 -1.3959  3.0730  0.9333
   40MOL   H19814316   3.234   4.230   0.796 -0.1347  0.1253  1.0270
   40MOL   H19914317   3.363   4.149   0.832  0.1556 -0.3050 -0.5336
   40MOL   C20014318   3.366   4.546   1.184 -0.9355 -0.5383 -0.0295
   40MOL   C20114319   3.400   4.584   1.330 -0.8736 -0.2322 -0.3748
   40MOL   C20214320   3.514   4.690   1.328  0.3363  0.1358  0.2943
   40MOL   C20314321   3.465   4.836   1.293 -0.0214 -0.1560  0.5507
   40MOL   C20414322   3.383   4.899   1.408 -0.0237 -0.1812 -0.0261
   40MOL   C20514323   3.584   4.922   1.253 -0.2519  0.7797  0.0595
   40MOL   H20614324   3.363   4.638   1.126  0.6200 -0.1825  0.4350
   40MOL   H20714325   3.442   4.476   1.149 -1.7335 -2.2857  1.6042
   40MOL   H20814326   3.313   4.626   1.381 -0.2682 -0.0065  0.4810
   40MOL   H20914327   3.569   4.683   1.422  0.9818  0.1748 -0.0750
   40MOL   H21014328   3.592   4.652   1.261  0.8971 -0.8296  1.4843
   40MOL   H21114329   3.397   4.841   1.208  1.1087 -1.8947 -0.4912
   40MOL   H21214330   3.293   4.839   1.421 -1.5770  2.3730  1.5959
   40MOL   H21314331   3.354   4.998   1.371  0.0931 -0.7311 -1.6032
   40MOL   H21414332   3.422   4.905   1.509  0.0003 -0.7420 -0.0034
   40MOL   H21514333   3.655   4.860   1.197 -0.5074 -0.0733  0.6636
   40MOL   H21614334   3.640   4.968   1.334  1.3484  1.1156 -1.2070
   40MOL   H21714335   3.561   5.010   1.193  0.6988  0.4743 -0.7853
   40MOL   C21814336   3.442   4.463   1.402  0.0530  0.0165 -0.4574
   40MOL   C21914337   3.462   4.466   1.557  0.3145 -0.4130  0.2827
   40MOL   C22014338   3.514   4.327   1.594 -0.3432  0.1525  0.1247
   40MOL   C22114339   3.658   4.295   1.560 -0.2381  0.7747  0.6547
   40MOL   C22214340   3.744   4.312   1.675 -0.2158  0.2053 -0.7423
   40MOL   C22314341   3.666   4.164   1.481  0.7405 -0.3877  0.1098
   40MOL   H22414342   3.384   4.377   1.369 -0.7840 -0.1945  1.4841
   40MOL   H22514343   3.538   4.443   1.355  0.0334  0.0542 -0.5129
   40MOL   H22614344   3.537   4.544   1.571 -1.0849  0.9630  0.2362
   40MOL   H22714345   3.494   4.317   1.701 -0.9285  0.1262  0.0136
   40MOL   H22814346   3.443   4.260   1.544 -0.7779  0.5516  0.2104
   40MOL   H22914347   3.687   4.369   1.486 -0.2079 -0.3353 -0.4613
   40MOL   H23014348   3.850   4.319   1.648  0.2176  2.6902  1.3853
   40MOL   H23114349   3.725   4.411   1.717 -0.2489 -0.0078 -0.2523
   40MOL   H23214350   3.732   4.244   1.759 -0.3390 -0.9012 -1.6528
   40MOL   H23314351   3.596   4.179   1.399 -0.8685 -0.3082  1.4736
   40MOL   H23414352   3.767   4.147   1.445  0.5625  0.9799 -1.0971
   40MOL   H23514353   3.647   4.078   1.546  0.6569 -0.1277  0.4348
   40MOL   C23614354   3.332   4.494   1.638 -0.3324  0.6545  0.2491
   40MOL   C23714355   3.354   4.532   1.792 -0.7291 -0.1530  0.0768
   40MOL   C23814356   3.222   4.523   1.872 -0.0139  0.6389 -0.3605
   40MOL   C23914357   3.180   4.375   1.905  0.3315  0.3440  0.4351
   40MOL   C24014358   3.257   4.297   2.014 -0.0181 -0.0386  0.3540
   40MOL   C24114359   3.026   4.367   1.928  0.0528 -0.2514 -0.0468
   40MOL   H24214360   3.263   4.413   1.614  0.8961 -0.1189 -0.7927
   40MOL   H24314361   3.280   4.576   1.587 -0.1149  1.7681  1.7842
   40MOL   H24414362   3.432   4.470   1.834  1.6312  2.2865 -0.5544
   40MOL   H24514363   3.147   4.552   1.799 -0.3950  0.4417 -0.0479
   40MOL   H24614364   3.213   4.591   1.956  0.5272  1.8154 -1.2353
   40MOL   H24714365   3.194   4.315   1.815 -2.4588 -0.9122  0.7989
   40MOL   H24814366   3.213   4.198   2.023 -2.1508  1.1705  4.0900
   40MOL   H24914367   3.249   4.338   2.115 -1.1525 -1.9438  1.0546
   40MOL   H25014368   3.358   4.273   1.981 -0.2969 -1.3097  0.4280
   40MOL   H25114369   2.996   4.411   2.024  2.6932 -1.1952  1.2561
   40MOL   H25214370   2.978   4.269   1.926 -0.2012 -0.1793  1.4466
   40MOL   H25314371   2.985   4.432   1.851  3.2371 -0.1498 -1.7186
   40MOL   C25414372   3.409   4.678   1.796  0.1598 -0.1346 -0.6081
   40MOL   C25514373   3.464   4.722   1.937 -0.2074 -1.0523  0.1384
   40MOL   C25614374   3.596   4.639   1.969  0.0341  0.5523 -0.4683
   40MOL   C25714375   3.595   4.557   2.102  0.6274 -0.3646 -0.2567
   40MOL   C25814376   3.613   4.648   2.225 -0.3855 -0.0265  0.1648
   40MOL   C25914377   3.701   4.447   2.089  0.0145  0.4149  0.0902
   40MOL   H26014378   3.486   4.695   1.721 -0.5333  0.2760 -1.2288
   40MOL   H26114379   3.334   4.756   1.783  1.6201  1.9337  2.4906
   40MOL   H26214380   3.394   4.687   2.012 -1.2245  0.3461 -0.1388
   40MOL   H26314381   3.675   4.712   1.987  1.3409 -0.7916 -0.6413
   40MOL   H26414382   3.640   4.591   1.882 -1.2753 -1.8993  0.1869
   40MOL   H26514383   3.498   4.508   2.105  0.0278  0.8060 -0.2434
   40MOL   H26614384   3.534   4.722   2.240  0.6582  0.7865  1.7634
   40MOL   H26714385   3.706   4.704   2.235  1.2830 -3.0496  2.3972
   40MOL   H26814386   3.613   4.597   2.321  0.8306  1.6555  1.1003
   40MOL   H26914387   3.684   4.380   2.172  2.7005 -1.8265 -1.0982
   40MOL   H27014388   3.688   4.383   2.002 -0.4892  0.2699  0.2695
   40MOL   H27114389   3.802   4.489   2.095 -0.2434  0.7652  2.2964
   40MOL   C27214390   3.485   4.877   1.962  0.1075  0.2895  0.9720
   40MOL   C27314391   3.352   4.955   1.965 -0.3212  0.6665  0.2042
   40MOL   C27414392   3.320   5.006   1.818 -0.0836  0.3181  0.1833
   40MOL   C27514393   3.259   5.146   1.804  0.2816  0.1554 -0.4144
   40MOL   C27614394   3.128   5.159   1.885  0.0819 -0.6486  0.1540
   40MOL   C27714395   3.238   5.187   1.652 -0.4647  0.8474  0.4497
   40MOL   H27814396   3.535   4.896   2.057 -0.6583 -1.6748  1.8083
   40MOL   H27914397   3.553   4.920   1.888 -0.7125 -0.7253 -0.3955
   40MOL   H28014398   3.378   5.049   2.014  1.1333 -0.3809  1.4811
   40MOL   H28114399   3.244   4.945   1.769 -3.1651  3.2272  1.1748
   40MOL   H28214400   3.411   5.021   1.760  0.2167 -1.1279  0.2710
   40MOL   H28314401   3.332   5.225   1.822  1.2689 -0.9450  0.4457
   40MOL   H28414402   3.123   5.146   1.993  0.3485  3.1807  0.7046
   40MOL   H28514403   3.091   5.260   1.865  3.3038  0.8109  1.2679
   40MOL   H28614404   3.056   5.095   1.833  0.2251  0.8146 -1.9180
   40MOL   H28714405   3.193   5.287   1.650 -0.2634  0.9262 -0.0077
   40MOL   H28814406   3.328   5.175   1.592 -1.3202 -0.2654 -0.6283
   40MOL   H28914407   3.161   5.123   1.610 -0.0260  0.8136 -0.3035
   40MOL   C29014408   3.225   4.892   2.040  0.9706  0.4595 -0.0380
   40MOL   C29114409   3.254   4.868   2.185  0.8007 -0.2355 -0.5409
   40MOL   C29214410   3.237   4.993   2.276  0.6730 -0.5259 -0.5360
   40MOL   C29314411   3.295   4.975   2.419  0.7978 -0.3892 -0.1070
   40MOL   C29414412   3.446   4.954   2.434  0.0528  0.1463 -0.1591
   40MOL   C29514413   3.248   5.095   2.497 -0.4151 -0.2625 -0.3621
   40MOL   H29614414   3.132   4.946   2.026  0.3716 -1.2192 -2.9044
   40MOL   H29714415   3.194   4.802   1.987  0.2221  0.2928  0.6790
   40MOL   H29814416   3.362   4.856   2.193  0.7726 -1.6461 -2.0566
   40MOL   H29914417   3.130   5.014   2.282  1.0687  1.0614  1.5932
   40MOL   H30014418   3.265   5.088   2.230 -0.1499  0.0944  0.2263
   40MOL   H30114419   3.231   4.895   2.456  0.8095 -0.7487 -0.8556
   40MOL   H30214420   3.475   4.856   2.396  0.4704 -0.0160  0.5665
   40MOL   H30314421   3.464   4.937   2.540  4.1447 -0.3342 -0.8464
   40MOL   H30414422   3.512   5.035   2.402  1.2413  0.2036  2.3076
   40MOL   H30514423   3.299   5.188   2.470 -0.7951  0.1713  0.4006
   40MOL   H30614424   3.272   5.081   2.602 -3.5848 -1.6312  0.2390
   40MOL   H30714425   3.140   5.106   2.499 -0.4946 -0.8731 -1.2742
   40MOL   C30814426   3.190   4.735   2.235  0.8600  0.3146 -0.1653
   40MOL   C30914427   3.054   4.736   2.299  0.1469  0.8268  0.6443
   40MOL   C31014428   2.955   4.719   2.187  0.0001 -0.8119  0.0271
   40MOL   C31114429   2.801   4.750   2.224 -0.3039  0.2483  0.7181
   40MOL   C31214430   2.788   4.908   2.231 -0.3670  0.1065  0.1366
   40MOL   C31314431   2.699   4.685   2.133  0.5309  0.0941 -0.3096
   40MOL   H31414432   3.196   4.655   2.161  0.3805 -0.7807  0.9652
   40MOL   H31514433   3.261   4.712   2.315  0.2349 -0.2569  0.2177
   40MOL   H31614434   3.027   4.825   2.355 -1.7185 -0.8392  2.4625
   40MOL   H31714435   2.961   4.617   2.148  0.2811 -1.2600  1.2191
   40MOL   H31814436   2.982   4.785   2.104  1.6630 -1.1686  0.2626
   40MOL   H31914437   2.791   4.711   2.325 -0.7290  0.9067  0.9357
   40MOL   H32014438   2.689   4.954   2.237 -0.0327  0.5822  2.3929
   40MOL   H32114439   2.840   4.955   2.148  0.5718  2.4863  2.0091
   40MOL   H32214440   2.823   4.957   2.322 -0.8623 -0.4930  0.6585
   40MOL   H32314441   2.715   4.578   2.118 -2.0417 -0.6918  2.0716
   40MOL   H32414442   2.597   4.674   2.172  1.0044  0.9279  1.2020
   40MOL   H32514443   2.696   4.724   2.031 -0.5212  0.2325 -0.2354
   40MOL   C32614444   3.041   4.608   2.395  0.0443 -0.2054 -0.3493
   40MOL   C32714445   3.118   4.607   2.525 -0.2010  0.6279 -0.0512
   40MOL   C32814446   3.126   4.469   2.599 -0.7054 -0.7884  0.2752
   40MOL   C32914447   3.200   4.352   2.526  0.0836 -0.1390  0.1089
   40MOL   C33014448   3.326   4.400   2.452 -0.6244  0.6820  0.3932
   40MOL   C33114449   3.239   4.231   2.615 -0.3914 -0.0817 -0.4086
   40MOL   H33214450   3.076   4.520   2.341 -0.8920 -2.2631  2.2800
   40MOL   H33314451   2.938   4.585   2.421  0.5879 -0.8546  1.2707
   40MOL   H33414452   3.216   4.640   2.488 -0.5212 -0.9271 -2.3926
   40MOL   H33514453   3.160   4.482   2.702  0.4979  0.1444 -0.2387
   40MOL   H33614454   3.023   4.436   2.613 -0.9833  0.0030  0.1263
   40MOL   H33714455   3.133   4.317   2.447 -0.4196  1.1760 -0.0587
   40MOL   H33814456   3.383   4.456   2.527 -1.7988  2.1305  0.2185
   40MOL   H33914457   3.313   4.451   2.357  2.1471 -0.1071 -0.4531
   40MOL   H34014458   3.400   4.323   2.434  1.1432  2.7465 -1.5780
   40MOL   H34114459   3.305   4.160   2.565 -0.0677 -0.3029  0.3386
   40MOL   H34214460   3.302   4.264   2.698 -1.5354  1.0504  0.0222
   40MOL   H34314461   3.161   4.165   2.653  1.6306 -1.8648  0.7467
   40MOL   C34414462   3.054   4.711   2.621 -0.3443 -0.1622  0.3266
   40MOL   C34514463   3.133   4.747   2.744 -0.3818 -0.1702 -0.9066
   40MOL   C34614464   3.283   4.753   2.728  0.2276 -0.3489  0.7612
   40MOL   C34714465   3.352   4.794   2.865 -0.3186 -0.1080  0.7584
   40MOL   C34814466   3.502   4.811   2.829 -0.0701 -0.1246  0.0208
   40MOL   C34914467   3.332   4.706   2.985 -0.8808 -0.3232  0.3998
   40MOL   H35014468   2.959   4.671   2.656 -1.0455  2.3359  1.3766
   40MOL   H35114469   3.036   4.803   2.566  1.7070  0.0193 -0.1071
   40MOL   H35214470   3.112   4.664   2.811 -0.9905 -1.3362 -2.5099
   40MOL   H35314471   3.331   4.659   2.699  1.1694 -0.2035  1.7958
   40MOL   H35414472   3.297   4.828   2.650 -1.2902 -0.5860  0.2410
   40MOL   H35514473   3.306   4.890   2.887  0.0249  0.6573 -1.6702
   40MOL   H35614474   3.569   4.861   2.899 -1.5193 -0.7687  1.9056
   40MOL   H35714475   3.545   4.712   2.818 -2.7423 -1.1399 -1.9427
   40MOL   H35814476   3.502   4.860   2.731  2.1806  1.1537  0.6310
   40MOL   H35914477   3.375   4.608   2.967 -2.9048 -0.9126 -1.4315
   40MOL   H36014478   3.228   4.702   3.018 -0.9475 -0.7881  0.1283
   40MOL   H36114479   3.392   4.748   3.066  0.9183 -0.9801 -0.5701
   40MOL   H36214480   3.097   4.834   2.799 -0.1722 -0.1639 -0.7784
   41MOL     C114481   0.140   2.945   1.503 -0.1908 -0.6571  0.1696
   41MOL     C214482   0.213   2.885   1.390  0.0528 -0.3648  0.4226
   41MOL     C314483   0.365   2.914   1.411  0.1770 -0.2675  0.1248
   41MOL     C414484   0.449   2.805   1.480 -0.5589  0.3095  0.0343
   41MOL     C514485   0.595   2.841   1.536 -0.4631  0.6053  0.2198
   41MOL     C614486   0.469   2.688   1.385  0.0047  0.2587  0.4087
   41MOL     H714487   0.037   2.907   1.498  0.3394 -1.9304 -1.7109
   41MOL     H814488   0.173   2.914   1.602 -1.8498  0.8809  1.2470
   41MOL     H914489   0.211   2.778   1.413  1.7402 -0.5413 -0.1808
   41MOL    H1014490   0.410   2.928   1.313  0.3830  0.9276  0.3768
   41MOL    H1114491   0.377   3.004   1.473 -1.6326  0.6447 -0.8150
   41MOL    H1214492   0.400   2.762   1.567 -0.5941  1.8149  0.7723
   41MOL    H1314493   0.640   2.750   1.575 -0.2738  0.7625  0.3676
   41MOL    H1414494   0.660   2.896   1.467 -0.6675  2.1130  1.1957
   41MOL    H1514495   0.570   2.915   1.612 -1.7866  0.3313  0.0561
   41MOL    H1614496   0.543   2.615   1.417 -0.9084 -1.6472 -1.6527
   41MOL    H1714497   0.508   2.723   1.289  0.5565  2.4814  1.4155
   41MOL    H1814498   0.371   2.643   1.370  0.2108  0.2334 -0.8945
   41MOL    H1914499   0.150   3.053   1.499 -0.5640 -0.6239  0.0714
   41MOL    C2014500   0.163   2.920   1.252  0.2842  0.3838 -0.1492
   41MOL    C2114501   0.026   2.868   1.208 -0.2014 -0.4913 -0.5005
   41MOL    C2214502   7.734   2.956   1.087 -0.3501  0.1703 -1.0156
   41MOL    C2314503   7.661   3.087   1.120  0.2955  0.1459  0.3419
   41MOL    C2414504   7.721   3.208   1.056  0.4307 -0.1717  0.0341
   41MOL    C2514505   7.512   3.077   1.108 -0.6810  0.2456  0.0127
   41MOL    H2614506   0.144   3.028   1.256 -0.1202  0.2640  1.7120
   41MOL    H2714507   0.245   2.895   1.186  1.5598  0.1723  1.4951
   41MOL    H2814508   7.692   2.875   1.274  0.0927 -0.9174 -0.0678
   41MOL    H2914509   7.674   2.896   1.018 -0.3621 -1.4403  0.3515
   41MOL    H3014510   0.070   2.964   1.024 -0.0975 -0.7715 -0.8008
   41MOL    H3114511   7.672   3.121   1.222  0.4724 -1.0647  0.7350
   41MOL    H3214512   7.712   3.212   0.948  0.3630 -0.4649  0.0303
   41MOL    H3314513   0.073   3.214   1.085  0.2905  1.6813  0.2638
   41MOL    H3414514   7.681   3.298   1.104  2.4938  0.8048 -0.0475
   41MOL    H3514515   7.480   3.181   1.115 -0.5120  0.3446 -0.6462
   41MOL    H3614516   7.466   3.021   1.026  0.1981  0.0159 -0.3276
   41MOL    H3714517   7.461   3.016   1.182 -1.5817 -1.0307 -1.6062
   41MOL    C3814518   0.041   2.721   1.165  0.0087  0.0655 -0.4609
   41MOL    C3914519   7.657   2.655   1.132  0.1634  0.1843  0.1665
   41MOL    C4014520   7.546   2.658   1.244 -0.4169 -0.6174 -0.8358
   41MOL    C4114521   7.586   2.598   1.384 -0.5346  0.7584 -0.1002
   41MOL    C4214522   7.598   2.444   1.401  0.6467 -0.2302  0.3164
   41MOL    C4314523   7.481   2.643   1.487  0.5267 -0.3210 -0.2949
   41MOL    H4414524   0.094   2.669   1.245 -0.4780  0.0097 -0.1714
   41MOL    H4514525   0.116   2.712   1.087  2.2332  1.0800  1.5109
   41MOL    H4614526   7.608   2.710   1.051  0.9303  2.4665  1.2181
   41MOL    H4714527   7.456   2.603   1.217  0.2919 -1.6121 -1.2373
   41MOL    H4814528   7.517   2.761   1.260 -0.6585 -0.6665 -0.9604
   41MOL    H4914529   7.679   2.643   1.420 -0.2782  0.4132 -0.3167
   41MOL    H5014530   7.567   2.393   1.309  1.0646  0.8783 -0.4475
   41MOL    H5114531   7.702   2.412   1.393  0.1110 -1.6988 -1.0946
   41MOL    H5214532   7.544   2.402   1.485 -0.7747  1.0574  0.0551
   41MOL    H5314533   7.498   2.749   1.506 -3.6295  0.3995 -0.2218
   41MOL    H5414534   7.493   2.596   1.585  0.4885 -0.2188 -0.2414
   41MOL    H5514535   7.377   2.617   1.465  0.0502 -0.3829  1.8854
   41MOL    C5614536   7.671   2.505   1.090  0.6227  0.6717  0.9224
   41MOL    C5714537   7.750   2.484   0.956 -0.2754  0.0910  0.5060
   41MOL    C5814538   7.668   2.525   0.835 -0.2222  0.2111 -0.0150
   41MOL    C5914539   0.005   2.559   0.709  0.4987 -0.8317 -0.1918
   41MOL    C6014540   0.046   2.708   0.717  0.8172 -0.0761  0.7816
   41MOL    C6114541   7.692   2.543   0.572  0.0797  0.1735  0.1785
   41MOL    H6214542   7.571   2.464   1.076 -0.1431  2.4155  1.1311
   41MOL    H6314543   7.715   2.462   1.179  0.7138  0.7055  0.8932
   41MOL    H6414544   0.089   2.543   0.950  0.5047 -0.9306  1.9793
   41MOL    H6514545   7.589   2.453   0.810  0.4636  0.1397 -2.1134
   41MOL    H6614546   7.606   2.612   0.860 -1.3534 -0.2814 -1.0392
   41MOL    H6714547   0.091   2.494   0.721  0.6697 -0.5774 -0.0153
   41MOL    H6814548   7.716   2.772   0.749  0.8359  1.0731 -1.4003
   41MOL    H6914549   0.091   2.740   0.623 -0.5837 -2.9528 -0.9345
   41MOL    H7014550   0.126   2.729   0.787 -0.1963  1.6975  1.4234
   41MOL    H7114551   0.014   2.538   0.493  0.4699  0.6235  0.5145
   41MOL    H7214552   7.632   2.633   0.557 -0.4099  0.0027  1.0497
   41MOL    H7314553   7.637   2.449   0.569 -0.1680  0.2421  1.7662
   41MOL    C7414554   0.042   2.332   0.946  0.3867  0.5043 -0.1451
   41MOL    C7514555   0.136   2.281   1.062  0.5512 -0.2004 -0.0947
   41MOL    C7614556   0.277   2.270   1.008 -0.0268 -0.0261  0.5393
   41MOL    C7714557   0.342   2.394   0.949  0.5424  0.9903 -0.2923
   41MOL    C7814558   0.482   2.356   0.891  0.8196  0.3514 -0.4291
   41MOL    C7914559   0.365   2.502   1.052  0.2071 -0.2538 -1.0767
   41MOL    H8014560   0.095   2.308   0.854  2.4014  0.0567  1.1139
   41MOL    H8114561   7.705   2.269   0.947  2.3275 -2.3465 -0.3055
   41MOL    H8214562   0.156   2.359   1.136 -0.8893  1.9864 -1.9538
   41MOL    H8314563   0.341   2.220   1.081 -0.3168  2.5129  2.6322
   41MOL    H8414564   0.263   2.206   0.921 -1.7566  2.1522 -0.8371
   41MOL    H8514565   0.275   2.433   0.873 -1.8690  1.4825  2.0444
   41MOL    H8614566   0.552   2.312   0.962 -1.2572 -1.5796  0.4672
   41MOL    H8714567   0.523   2.453   0.861 -2.3443  2.4961  1.8309
   41MOL    H8814568   0.483   2.304   0.795  0.7732 -0.1297 -0.1667
   41MOL    H8914569   0.405   2.593   1.008  0.6882  0.9977  1.8027
   41MOL    H9014570   0.269   2.528   1.098  0.2944 -0.2838 -0.8788
   41MOL    H9114571   0.432   2.479   1.135 -0.1763 -0.4665 -0.8209
   41MOL    C9214572   0.079   2.150   1.133 -0.5044  0.0065 -0.1889
   41MOL    C9314573   0.154   2.099   1.256  0.4142 -0.0393 -0.0243
   41MOL    C9414574   0.166   2.200   1.372  0.7238 -0.7153 -0.5827
   41MOL    C9514575   0.244   2.152   1.500  1.0305 -0.6709 -0.9654
   41MOL    C9614576   0.395   2.161   1.481 -0.1303 -0.9153 -0.5584
   41MOL    C9714577   0.205   2.218   1.631  0.0563 -0.1764  0.3922
   41MOL    H9814578   7.729   2.181   1.158 -0.4205  2.2839 -2.4778
   41MOL    H9914579   0.075   2.081   1.050  1.2970 -0.5171  0.1565
   41MOL   H10014580   0.261   2.089   1.235  0.2121 -0.2219 -1.0019
   41MOL   H10114581   0.064   2.217   1.408  0.6371  1.4324 -1.7541
   41MOL   H10214582   0.192   2.299   1.334  1.6251 -0.3945  0.8315
   41MOL   H10314583   0.233   2.044   1.513 -3.6919 -0.0975  0.6449
   41MOL   H10414584   0.430   2.264   1.486  1.3672 -1.4068 -0.8446
   41MOL   H10514585   0.428   2.126   1.383 -0.3713 -3.0083  0.0871
   41MOL   H10614586   0.443   2.107   1.562 -0.9214  1.0589  1.2761
   41MOL   H10714587   0.211   2.327   1.623 -0.8185 -0.1643 -0.2839
   41MOL   H10814588   0.261   2.177   1.715  3.1759 -0.6032 -1.8201
   41MOL   H10914589   0.106   2.181   1.658  0.0685 -1.0593 -0.7428
   41MOL   C11014590   0.116   1.955   1.301  0.3572 -0.5154  0.1765
   41MOL   C11114591   0.084   1.849   1.198  0.6101  0.1281  0.0323
   41MOL   C11214592   0.185   1.830   1.073  1.2054 -0.0765 -0.5543
   41MOL   C11314593   0.136   1.760   0.945  1.1509  1.0448  0.6340
   41MOL   C11414594   0.244   1.761   0.841  0.7660 -0.5662  0.1488
   41MOL   C11514595   0.011   1.832   0.877  0.2007  0.1080 -0.6518
   41MOL   H11614596   0.044   1.970   1.381  1.4700 -1.3559  1.3509
   41MOL   H11714597   0.204   1.916   1.352  1.3117 -1.8165 -2.3902
   41MOL   H11814598   7.752   1.895   1.147 -0.7473 -0.9176  1.3351
   41MOL   H11914599   0.272   1.779   1.112 -1.4577 -1.6992  3.5947
   41MOL   H12014600   0.229   1.922   1.036 -0.0225  0.3882 -0.8973
   41MOL   H12114601   0.122   1.655   0.972  0.1479  0.3924 -2.2675
   41MOL   H12214602   0.290   1.859   0.826 -1.0606 -0.1285 -2.8233
   41MOL   H12314603   0.210   1.726   0.744 -1.3735 -1.2288  1.1174
   41MOL   H12414604   0.325   1.696   0.875  0.3298 -0.8318  0.6844
   41MOL   H12514605   7.670   1.817   0.931 -0.9355  1.3645 -2.2454
   41MOL   H12614606   7.744   1.799   0.775  0.5942 -1.1291 -0.3401
   41MOL   H12714607   0.023   1.940   0.882  2.2660 -0.1036 -0.2791
   41MOL   C12814608   0.041   1.716   1.259  0.1420 -0.1009  0.2964
   41MOL   C12914609   7.666   1.722   1.344  0.0045 -0.1348 -0.1614
   41MOL   C13014610   7.662   1.600   1.440 -0.0858  0.0108 -0.0871
   41MOL   C13114611   0.008   1.603   1.559  0.6866  0.2002  0.2533
   41MOL   C13214612   7.724   1.718   1.660 -0.3059  0.5857  0.2213
   41MOL   C13314613   0.014   1.474   1.630 -0.0581  0.3690  0.7428
   41MOL   H13414614   0.132   1.677   1.304 -0.1314 -0.2818  0.6953
   41MOL   H13514615   0.038   1.629   1.194  1.7553  1.2128 -1.5991
   41MOL   H13614616   7.669   1.810   1.408 -1.1958 -1.5041  1.8164
   41MOL   H13714617   7.562   1.590   1.484  0.4625  1.8498  1.6279
   41MOL   H13814618   7.678   1.508   1.383 -0.1032 -1.4286  2.1361
   41MOL   H13914619   0.108   1.632   1.528  1.1879  1.5929  3.0017
   41MOL   H14014620   7.630   1.709   1.714  0.4123 -0.7143  1.3127
   41MOL   H14114621   7.730   1.816   1.612  1.5066 -0.2664 -1.3653
   41MOL   H14214622   0.040   1.717   1.745 -1.7742  1.0234  1.4350
   41MOL   H14314623   0.093   1.472   1.704 -0.8320 -2.2169  1.5653
   41MOL   H14414624   7.673   1.457   1.684 -0.4905  0.7036  0.1063
   41MOL   H14514625   0.025   1.390   1.561 -1.0029  1.1407 -0.3654
   41MOL   C14614626   7.546   1.717   1.259  0.7207 -0.7209  0.3186
   41MOL   C14714627   7.421   1.767   1.327 -0.0302 -0.3373  0.0258
   41MOL   C14814628   7.300   1.715   1.245  0.2151  0.0462 -0.6233
   41MOL   C14914629   7.259   1.571   1.271  0.1402  0.4240  0.4179
   41MOL   C15014630   7.236   1.533   1.418  0.1023 -0.7750 -0.0664
   41MOL   C15114631   7.133   1.541   1.187  0.3004 -0.2358 -0.2227
   41MOL   H15214632   7.539   1.615   1.222 -0.3082 -0.7870  0.6915
   41MOL   H15314633   7.556   1.778   1.168 -1.4756  0.4356  0.8296
   41MOL   H15414634   7.424   1.724   1.427 -0.7015 -2.4948 -0.8615
   41MOL   H15514635   7.211   1.774   1.265  0.4798 -0.5985  2.6242
   41MOL   H15614636   7.326   1.725   1.139  1.1233  0.0929 -0.3993
   41MOL   H15714637   7.336   1.507   1.229 -2.2788 -1.4263 -1.3364
   41MOL   H15814638   7.319   1.552   1.485  0.9506 -0.2148 -1.2510
   41MOL   H15914639   7.223   1.425   1.426  1.1879 -1.0168 -1.4135
   41MOL   H16014640   7.158   1.592   1.466  0.5484 -2.3863  2.7117
   41MOL   H16114641   7.147   1.573   1.084  1.3013 -0.7826 -0.2628
   41MOL   H16214642   7.054   1.601   1.232  2.6520  1.0977  2.3441
   41MOL   H16314643   7.102   1.437   1.194  1.1700 -0.5426 -0.8074
   41MOL   C16414644   7.425   1.920   1.341 -0.3436 -0.4304  0.3244
   41MOL   C16514645   7.326   1.984   1.437  0.0863 -0.0417  0.1681
   41MOL   C16614646   7.364   1.956   1.587  0.3876  0.6816 -0.0767
   41MOL   C16714647   7.243   1.956   1.677 -0.1114  0.2912 -0.4796
   41MOL   C16814648   7.162   1.820   1.667  0.6099  0.7006 -0.2132
   41MOL   C16914649   7.285   1.986   1.828 -0.0982  0.3271  0.2141
   41MOL   H17014650   7.526   1.945   1.373 -0.6250 -0.1365  0.9773
   41MOL   H17114651   7.416   1.960   1.240  1.4043 -1.0527 -0.0979
   41MOL   H17214652   7.233   1.928   1.428 -0.9214  1.4407  1.0972
   41MOL   H17314653   7.410   1.858   1.606 -0.6853 -0.1450 -1.5774
   41MOL   H17414654   7.429   2.034   1.627  2.4837 -0.7479 -0.5761
   41MOL   H17514655   7.170   2.035   1.657 -1.3981 -0.6964  0.2077
   41MOL   H17614656   7.076   1.821   1.734  1.0382 -0.0589  0.3442
   41MOL   H17714657   7.232   1.746   1.704  0.6647  0.4284 -0.8492
   41MOL   H17814658   7.115   1.785   1.574  0.8345 -3.6479  1.1907
   41MOL   H17914659   7.336   1.897   1.865 -0.5985  0.5706  1.4890
   41MOL   H18014660   7.194   2.008   1.884 -0.3764  2.1439 -0.9209
   41MOL   H18114661   7.343   2.078   1.837  2.0290 -0.9633  0.0800
   41MOL   C18214662   7.309   2.138   1.414  0.6603 -0.7121  0.2995
   41MOL   C18314663   7.210   2.172   1.303  0.5901 -0.0795 -0.5882
   41MOL   C18414664   7.061   2.165   1.359 -0.5609  0.0585 -0.4329
   41MOL   C18514665   6.944   2.139   1.260 -0.3093  0.1135  0.7758
   41MOL   C18614666   6.942   2.004   1.189  0.5055 -0.1115 -0.3392
   41MOL   C18714667   6.814   2.179   1.323 -0.0473  0.0257 -0.1914
   41MOL   H18814668   7.403   2.183   1.382 -0.4199  0.7769 -0.9140
   41MOL   H18914669   7.288   2.194   1.505 -1.5749 -0.6544 -0.2083
   41MOL   H19014670   7.220   2.084   1.238  2.2777 -0.7615  0.5821
   41MOL   H19114671   7.047   2.261   1.409  2.1123 -0.1410  0.7977
   41MOL   H19214672   7.072   2.082   1.429  1.5322  0.9299  0.3221
   41MOL   H19314673   6.963   2.208   1.178  1.1935  0.2817  1.2528
   41MOL   H19414674   7.030   1.981   1.128  1.1631  1.2656  0.0576
   41MOL   H19514675   6.863   1.983   1.116  0.7276 -2.4213  0.0516
   41MOL   H19614676   6.948   1.929   1.267  0.6498  0.4971  0.2470
   41MOL   H19714677   6.810   2.113   1.410 -0.2996 -0.4288 -0.5485
   41MOL   H19814678   6.725   2.158   1.265 -1.6496  1.4715  1.6721
   41MOL   H19914679   6.818   2.280   1.364  1.6607  0.3763 -1.1585
   41MOL   C20014680   7.232   2.305   1.220 -0.2585  0.1591 -0.3142
   41MOL   C20114681   7.235   2.281   1.062 -0.3018 -0.5367  0.0220
   41MOL   C20214682   7.335   2.173   0.999 -0.1189  0.8112 -0.0378
   41MOL   C20314683   7.283   2.122   0.866  0.3724  0.5459  0.6033
   41MOL   C20414684   7.401   2.101   0.766 -0.9639  0.2630  0.8305
   41MOL   C20514685   7.198   1.994   0.882  0.3129 -0.2866  0.7503
   41MOL   H20614686   7.325   2.352   1.251 -0.4815  0.5990 -0.2995
   41MOL   H20714687   7.145   2.368   1.238 -0.2984 -0.0679  0.2848
   41MOL   H20814688   7.134   2.246   1.041 -0.5586  0.8927 -1.2508
   41MOL   H20914689   7.429   2.226   0.983  0.1818  0.2319 -0.2305
   41MOL   H21014690   7.361   2.086   1.060 -2.0902  0.0384 -0.2645
   41MOL   H21114691   7.217   2.195   0.818 -0.1455 -1.5242 -1.9087
   41MOL   H21214692   7.453   2.197   0.759 -1.1197  0.1353 -4.0704
   41MOL   H21314693   7.370   2.072   0.665 -0.9416  2.7682  0.0812
   41MOL   H21414694   7.472   2.026   0.802 -1.3255  0.3294  1.6935
   41MOL   H21514695   7.105   2.018   0.934  0.9700  2.5034  0.7060
   41MOL   H21614696   7.251   1.916   0.936  1.3837 -1.3140 -1.7387
   41MOL   H21714697   7.160   1.943   0.793 -2.5961  2.7893  0.1279
   41MOL   C21814698   7.248   2.417   0.985  0.4151  0.0012  1.1500
   41MOL   C21914699   7.129   2.512   0.971 -1.2508 -0.1668 -0.2085
   41MOL   C22014700   7.031   2.454   0.868 -0.0380 -0.1071 -0.7926
   41MOL   C22114701   6.874   2.455   0.898  0.2429  0.3777 -0.5218
   41MOL   C22214702   6.786   2.459   0.780 -0.2218  0.3941 -0.2137
   41MOL   C22314703   6.839   2.351   1.003 -0.1581  0.2920 -0.0373
   41MOL   H22414704   7.343   2.467   1.004 -0.8546  3.4534 -1.0042
   41MOL   H22514705   7.275   2.391   0.883 -2.4008 -0.4206  0.4736
   41MOL   H22614706   7.088   2.508   1.072 -0.4357  0.1582  0.1369
   41MOL   H22714707   7.059   2.501   0.774 -1.9968  0.7922 -0.9465
   41MOL   H22814708   7.060   2.350   0.853 -1.3171 -0.6691  0.5576
   41MOL   H22914709   6.859   2.544   0.960 -2.1181 -0.6265  0.3927
   41MOL   H23014710   6.821   2.374   0.720  2.7126  1.3911 -0.0225
   41MOL   H23114711   6.680   2.437   0.791  0.4933 -3.2122  0.1049
   41MOL   H23214712   6.791   2.553   0.725 -2.3467 -0.2389 -1.5398
   41MOL   H23314713   6.872   2.371   1.105  1.0523 -1.2462 -0.1106
   41MOL   H23414714   6.730   2.355   1.005 -0.1117  1.1915  0.9849
   41MOL   H23514715   6.875   2.252   0.974  1.3258  0.3264  1.6172
   41MOL   C23614716   7.185   2.656   0.945 -0.3978 -0.4432 -0.0969
   41MOL   C23714717   7.084   2.775   0.976 -0.5567 -0.4929 -0.1407
   41MOL   C23814718   7.020   2.771   1.116 -0.7671  0.4438  0.0338
   41MOL   C23914719   6.997   2.914   1.182 -0.1070  0.3023  0.1275
   41MOL   C24014720   6.890   2.916   1.285  0.4855 -0.2821  0.2803
   41MOL   C24114721   7.125   2.981   1.231 -0.9335  0.1862 -0.0263
   41MOL   H24214722   7.224   2.655   0.844  0.7714  0.1872  0.3450
   41MOL   H24314723   7.267   2.685   1.011  1.7435 -3.7697 -1.1583
   41MOL   H24414724   7.142   2.868   0.976  1.0582 -1.4556  1.8250
   41MOL   H24514725   7.095   2.731   1.184 -1.5420  0.7409  1.0760
   41MOL   H24614726   6.938   2.702   1.138 -1.0233  1.0404  1.0227
   41MOL   H24714727   6.977   2.986   1.103 -0.4013  1.8935  1.6224
   41MOL   H24814728   6.878   3.018   1.322 -0.9498 -1.0610  1.9891
   41MOL   H24914729   6.912   2.850   1.369  1.6871 -0.9867 -0.5611
   41MOL   H25014730   6.794   2.887   1.242  1.7562 -1.9788 -1.5372
   41MOL   H25114731   7.109   3.077   1.281  2.3481  1.1085 -0.6439
   41MOL   H25214732   7.183   3.005   1.142 -1.8593 -0.1979 -0.7388
   41MOL   H25314733   7.164   2.908   1.302 -1.2554  2.2633  2.3769
   41MOL   C25414734   6.973   2.790   0.867  0.4118 -0.8151 -0.1677
   41MOL   C25514735   6.995   2.907   0.764 -0.1567 -0.9121  0.6786
   41MOL   C25614736   7.126   2.883   0.673 -1.0665  0.7333 -0.1925
   41MOL   C25714737   7.186   2.993   0.593  0.1304 -0.6296 -0.3855
   41MOL   C25814738   7.327   2.962   0.535 -0.4361  0.0819  0.5847
   41MOL   C25914739   7.207   3.127   0.672 -0.2097  0.2040 -1.3503
   41MOL   H26014740   6.962   2.700   0.806 -0.7951 -0.2582 -0.7893
   41MOL   H26114741   6.876   2.801   0.915 -0.1028  0.9318 -1.5189
   41MOL   H26214742   7.014   2.996   0.824  0.4953 -1.1496  0.8319
   41MOL   H26314743   7.112   2.804   0.599  0.1143  1.1993 -0.9314
   41MOL   H26414744   7.205   2.837   0.732 -0.2085  1.1745 -0.9899
   41MOL   H26514745   7.116   3.015   0.512 -1.1263  1.9755  1.3354
   41MOL   H26614746   7.352   3.046   0.470 -0.8034 -0.5290 -0.3556
   41MOL   H26714747   7.337   2.878   0.466 -0.0328 -0.1930  0.9804
   41MOL   H26814748   7.403   2.930   0.606 -0.3622  0.7695  0.8191
   41MOL   H26914749   7.111   3.152   0.718 -0.0831 -0.7158 -0.5743
   41MOL   H27014750   7.283   3.109   0.749 -1.9506  1.7193  0.7807
   41MOL   H27114751   7.245   3.213   0.617  1.2076  1.2605  1.1708
   41MOL   C27214752   6.869   2.935   0.675  0.3537 -0.5400 -0.5827
   41MOL   C27314753   6.742   2.988   0.747 -0.1948 -0.3342 -0.3387
   41MOL   C27414754   6.755   3.143   0.763  0.1778  0.5645  0.3355
   41MOL   C27514755   6.677   3.212   0.882  0.6561 -0.7333  0.5593
   41MOL   C27614756   6.658   3.366   0.847  0.2515  0.3729  0.1907
   41MOL   C27714757   6.740   3.189   1.016  0.4253  0.2403  0.4535
   41MOL   H27814758   6.892   2.997   0.588  0.6296  0.2632  0.0546
   41MOL   H27914759   6.844   2.841   0.625 -1.8709 -0.7586  0.8714
   41MOL   H28014760   6.743   2.948   0.848  1.4646 -1.3532 -0.7384
   41MOL   H28114761   6.720   3.194   0.673  1.1066 -0.3517 -0.5502
   41MOL   H28214762   6.861   3.166   0.773  0.2936  0.1184  0.1323
   41MOL   H28314763   6.580   3.162   0.887  0.3662 -0.4322 -1.7428
   41MOL   H28414764   6.751   3.411   0.812  0.3359 -0.6712 -0.9669
   41MOL   H28514765   6.587   3.379   0.766  0.3524 -3.0242 -0.5236
   41MOL   H28614766   6.613   3.423   0.928  0.1054 -2.8503  2.5153
   41MOL   H28714767   6.774   3.086   1.028 -0.9262 -0.1963  0.5248
   41MOL   H28814768   6.830   3.252   1.018  1.3505 -1.0031 -0.7082
   41MOL   H28914769   6.676   3.206   1.102  0.7909  0.3875  0.7020
   41MOL   C29014770   6.608   2.951   0.666  0.1983  0.3385 -0.5965
   41MOL   C29114771   6.493   2.895   0.749 -0.4630 -0.0414 -0.7838
   41MOL   C29214772   6.359   2.919   0.682 -0.5264 -1.0483 -0.9184
   41MOL   C29314773   6.279   3.056   0.724  0.3995 -0.1564  0.3165
   41MOL   C29414774   6.247   3.050   0.875 -0.1695  0.2790 -0.1761
   41MOL   C29514775   6.345   3.187   0.678  0.2309  0.6788 -0.0499
   41MOL   H29614776   6.569   3.026   0.597 -2.9146  0.2032  0.9148
   41MOL   H29714777   6.627   2.868   0.598  3.1133  2.0907 -2.0307
   41MOL   H29814778   6.486   2.945   0.845  0.1486 -3.7865  1.3384
   41MOL   H29914779   6.293   2.837   0.711 -2.1918 -0.0761 -1.8481
   41MOL   H30014780   6.384   2.909   0.576  2.2684 -2.3209 -0.1809
   41MOL   H30114781   6.193   3.048   0.657 -0.3140 -0.0020  1.1916
   41MOL   H30214782   6.339   3.074   0.928 -1.1727  0.6343  1.4628
   41MOL   H30314783   6.210   2.956   0.917  2.1795 -0.2053  0.8748
   41MOL   H30414784   6.166   3.120   0.897  0.0333  0.7349 -0.8869
   41MOL   H30514785   6.275   3.267   0.704  0.1553 -0.1531  2.4603
   41MOL   H30614786   6.367   3.193   0.571  1.4050 -0.8017  0.1058
   41MOL   H30714787   6.430   3.203   0.744 -1.0867 -0.2007  1.9109
   41MOL   C30814788   6.520   2.747   0.765 -0.1339  0.0590 -0.3216
   41MOL   C30914789   6.447   2.681   0.886  0.0577  0.0786  0.9751
   41MOL   C31014790   6.374   2.552   0.843 -0.1685 -0.6005  0.1596
   41MOL   C31114791   6.285   2.484   0.952  0.0121  1.1581 -0.3704
   41MOL   C31214792   6.160   2.567   0.981  0.5454  0.7581 -0.0131
   41MOL   C31314793   6.242   2.351   0.900 -0.7951 -0.3310 -0.7454
   41MOL   H31414794   6.504   2.696   0.670  1.3160  0.3666 -0.7435
   41MOL   H31514795   6.626   2.721   0.766 -0.4364 -1.2164  0.4731
   41MOL   H31614796   6.369   2.755   0.907 -1.6934 -1.7117  0.9635
   41MOL   H31714797   6.453   2.483   0.810  1.0532  1.2364 -0.8465
   41MOL   H31814798   6.317   2.572   0.752 -0.5255  0.9814  0.7305
   41MOL   H31914799   6.352   2.484   1.037  1.9495 -0.6457 -1.8579
   41MOL   H32014800   6.188   2.670   1.001 -2.4134  1.6194 -0.0988
   41MOL   H32114801   6.116   2.521   1.070  2.2696  0.9218  0.9537
   41MOL   H32214802   6.094   2.557   0.895 -0.3385  0.7163  0.6635
   41MOL   H32314803   6.334   2.299   0.874  1.1682  1.1572  2.9384
   41MOL   H32414804   6.179   2.286   0.960  0.2054 -1.3327 -0.7664
   41MOL   H32514805   6.186   2.364   0.807 -1.6386  0.6820 -0.1066
   41MOL   C32614806   6.542   2.670   1.012  0.4822  0.0752  0.4938
   41MOL   C32714807   6.478   2.732   1.145 -0.4955  0.5151  0.4139
   41MOL   C32814808   6.474   2.884   1.137  0.5266 -0.0336 -0.3423
   41MOL   C32914809   6.368   2.957   1.239 -0.0491  1.1166  0.9753
   41MOL   C33014810   6.386   3.114   1.226 -0.0056 -0.2894  0.5805
   41MOL   C33114811   6.220   2.907   1.235  0.1283  1.6185  0.2843
   41MOL   H33214812   6.641   2.714   1.000 -0.0667  0.7861 -1.6783
   41MOL   H33314813   6.579   2.568   1.022 -0.1159 -0.0180  1.7568
   41MOL   H33414814   6.373   2.701   1.145 -0.6113  0.9026  0.7922
   41MOL   H33514815   6.577   2.920   1.147  1.0850 -1.6264 -0.2091
   41MOL   H33614816   6.435   2.911   1.039  0.4843 -1.0846 -0.6227
   41MOL   H33714817   6.398   2.930   1.340  3.0641  1.4562  0.1944
   41MOL   H33814818   6.332   3.153   1.140 -0.0599 -1.1710  0.2030
   41MOL   H33914819   6.492   3.128   1.208 -0.1684  2.1258  1.3926
   41MOL   H34014820   6.366   3.170   1.317  0.0539 -0.5914  0.7822
   41MOL   H34114821   6.200   2.809   1.279  1.2446  1.9009  1.4257
   41MOL   H34214822   6.154   2.981   1.280  1.0227  3.1089 -0.7877
   41MOL   H34314823   6.181   2.902   1.133  0.5701  0.3256  0.1703
   41MOL   C34414824   6.549   2.672   1.268 -0.5660 -0.0109 -0.5614
   41MOL   C34514825   6.545   2.520   1.294 -0.6967  0.6130  0.2846
   41MOL   C34614826   6.402   2.484   1.335  0.6249  0.4319  0.1628
   41MOL   C34714827   6.403   2.331   1.363 -0.4812  0.8001 -0.0976
   41MOL   C34814828   6.254   2.278   1.378 -0.5235  0.7908  0.0130
   41MOL   C34914829   6.480   2.299   1.500  0.2988 -0.2173  0.1072
   41MOL   H35014830   6.517   2.728   1.356 -3.1362 -1.1722 -0.7000
   41MOL   H35114831   6.655   2.693   1.258 -0.6191  1.0800  1.0611
   41MOL   H35214832   6.621   2.492   1.367 -1.6418 -2.6692  0.0814
   41MOL   H35314833   6.355   2.546   1.411 -1.3052 -0.9993  0.1707
   41MOL   H35414834   6.330   2.491   1.254 -0.7051  1.7095  1.4319
   41MOL   H35514835   6.446   2.273   1.282 -0.0230 -0.1117  0.7770
   41MOL   H35614836   6.203   2.341   1.451 -1.5317 -0.1339  0.1300
   41MOL   H35714837   6.191   2.287   1.290 -2.1815  0.8666  1.1806
   41MOL   H35814838   6.260   2.176   1.416  0.6225  0.4516 -1.0508
   41MOL   H35914839   6.425   2.358   1.574  0.9556 -0.4364  0.7645
   41MOL   H36014840   6.582   2.335   1.503  0.0801  0.3856  0.5038
   41MOL   H36114841   6.485   2.192   1.517  3.5225 -0.3884 -1.5686
   41MOL   H36214842   6.577   2.457   1.211  1.3415  2.0163 -0.0141
   42MOL     C114843   4.900   1.928   2.466  0.3930 -0.1772 -0.1245
   42MOL     C214844   4.979   1.835   2.369 -0.5362  0.3820  0.9084
   42MOL     C314845   5.099   1.925   2.319 -0.0609 -0.3635 -0.8933
   42MOL     C414846   5.212   1.852   2.252  0.2298  0.5523  0.0552
   42MOL     C514847   5.264   1.729   2.334  0.4421 -0.3882 -0.1601
   42MOL     C614848   5.319   1.952   2.206  0.2754 -0.1302  0.2184
   42MOL     H714849   4.840   1.997   2.408  1.9443 -0.0094 -1.5595
   42MOL     H814850   4.838   1.872   2.536  1.5425 -0.9538  0.2936
   42MOL     H914851   5.026   1.761   2.434 -0.1173  0.3595  0.5815
   42MOL    H1014852   5.055   1.999   2.252 -3.6694 -2.0790 -0.5194
   42MOL    H1114853   5.136   1.991   2.397  0.0372  0.3111 -1.4974
   42MOL    H1214854   5.177   1.806   2.160  1.3566  0.9659 -0.5943
   42MOL    H1314855   5.288   1.750   2.438 -1.5528  2.0837 -0.1520
   42MOL    H1414856   5.208   1.636   2.323  0.9559 -0.8611  1.1002
   42MOL    H1514857   5.363   1.713   2.290  0.2404  1.6518 -1.3924
   42MOL    H1614858   5.390   1.996   2.277  0.2139 -1.1626  0.9184
   42MOL    H1714859   5.271   2.029   2.146  0.1580 -0.1709  0.2616
   42MOL    H1814860   5.379   1.895   2.134 -0.1637  0.4507 -0.6173
   42MOL    H1914861   4.956   1.981   2.542  1.2975 -0.8653 -0.3006
   42MOL    C2014862   4.887   1.772   2.252 -0.2031  0.9150 -0.6429
   42MOL    C2114863   4.765   1.696   2.295 -0.1706  0.0983  0.2259
   42MOL    C2214864   4.648   1.728   2.193 -0.1158  0.4453  0.2458
   42MOL    C2314865   4.578   1.867   2.196 -0.3195 -0.2024 -0.2477
   42MOL    C2414866   4.507   1.907   2.061  0.4771 -0.1540 -0.2199
   42MOL    C2514867   4.487   1.901   2.314 -0.5507  0.5369 -0.0800
   42MOL    H2614868   4.856   1.855   2.188 -0.0556  1.4439 -0.0289
   42MOL    H2714869   4.958   1.723   2.186 -0.2161  0.0551 -0.0262
   42MOL    H2814870   4.740   1.738   2.392 -0.9414 -1.2142  0.6127
   42MOL    H2914871   4.579   1.645   2.210  2.0280 -1.0536  2.0658
   42MOL    H3014872   4.686   1.719   2.092 -0.3607  1.2576  0.0797
   42MOL    H3114873   4.664   1.932   2.213  0.2452 -1.1534  0.5638
   42MOL    H3214874   4.498   2.014   2.040  1.1152  0.0239  0.3911
   42MOL    H3314875   4.405   1.870   2.057  1.1531 -2.1118 -0.1079
   42MOL    H3414876   4.557   1.867   1.973 -1.6982  0.0439 -1.5846
   42MOL    H3514877   4.532   1.887   2.412  2.3837 -0.4445 -1.4847
   42MOL    H3614878   4.463   2.007   2.314  0.4693  0.7788  0.1348
   42MOL    H3714879   4.398   1.838   2.307  0.1385 -0.1742 -3.5662
   42MOL    C3814880   4.789   1.542   2.316  0.6826 -0.4826  0.0774
   42MOL    C3914881   4.847   1.500   2.453 -0.3740 -0.4646  0.0036
   42MOL    C4014882   4.869   1.336   2.447  0.2186 -1.0160 -0.9180
   42MOL    C4114883   4.947   1.268   2.559 -0.6399  0.0144 -0.1777
   42MOL    C4214884   5.097   1.318   2.564  0.5538 -0.1988 -0.6249
   42MOL    C4314885   4.938   1.109   2.564  0.0760  0.1799  0.4011
   42MOL    H4414886   4.847   1.508   2.231  0.2425 -1.3389  0.1124
   42MOL    H4514887   4.697   1.485   2.301  0.4599 -0.0123 -0.3634
   42MOL    H4614888   4.945   1.547   2.459 -0.4948 -0.0143 -1.3507
   42MOL    H4714889   4.929   1.316   2.359  1.1139 -0.4305 -0.4511
   42MOL    H4814890   4.769   1.294   2.436  0.1533 -0.8899 -0.8152
   42MOL    H4914891   4.914   1.306   2.656 -0.8345  0.6312 -0.4881
   42MOL    H5014892   5.146   1.274   2.652  0.6619 -0.0194 -0.5949
   42MOL    H5114893   5.146   1.298   2.469 -2.8385 -2.0871 -2.0446
   42MOL    H5214894   5.099   1.426   2.580 -3.7179 -0.3679  1.6770
   42MOL    H5314895   4.991   1.060   2.482  1.2369 -1.0670  1.8640
   42MOL    H5414896   4.833   1.082   2.575 -0.1658  0.4148 -1.1412
   42MOL    H5514897   4.978   1.064   2.655  1.6138 -1.6319 -1.1358
   42MOL    C5614898   4.774   1.549   2.584  0.0850  0.6455 -0.1936
   42MOL    C5714899   4.635   1.474   2.616  0.0226 -0.0858 -0.5763
   42MOL    C5814900   4.516   1.519   2.535  0.5394  0.5800 -0.4774
   42MOL    C5914901   4.409   1.416   2.501  0.6711  0.1481 -0.0215
   42MOL    C6014902   4.384   1.430   2.353 -0.0681 -0.2514  0.2568
   42MOL    C6114903   4.281   1.425   2.588  0.4026  0.0459  0.1597
   42MOL    H6214904   4.771   1.657   2.597  0.9649  0.6926 -0.3372
   42MOL    H6314905   4.848   1.515   2.657 -0.1910  0.1630 -0.1340
   42MOL    H6414906   4.656   1.369   2.597 -0.0488 -0.2842  0.3777
   42MOL    H6514907   4.475   1.605   2.588  1.0933 -1.4711  3.4739
   42MOL    H6614908   4.558   1.559   2.443 -0.0741  0.8010 -0.6666
   42MOL    H6714909   4.450   1.316   2.517  0.7606  0.3973  1.3440
   42MOL    H6814910   4.309   1.357   2.325 -1.3115  1.5184 -1.1133
   42MOL    H6914911   4.468   1.414   2.284  0.9571 -1.4390  1.7418
   42MOL    H7014912   4.330   1.519   2.322  0.4411  0.6021  1.8038
   42MOL    H7114913   4.209   1.344   2.576 -1.0557  1.4929 -0.9856
   42MOL    H7214914   4.229   1.516   2.558 -0.3970 -0.8537 -1.2669
   42MOL    H7314915   4.311   1.445   2.691  2.6033  0.2655 -0.5078
   42MOL    C7414916   4.615   1.493   2.778 -0.1527 -0.9854 -0.1116
   42MOL    C7514917   4.651   1.368   2.853 -0.6165  0.7065 -0.3604
   42MOL    C7614918   4.533   1.282   2.829 -0.4453  0.7815 -0.5063
   42MOL    C7714919   4.543   1.136   2.881  0.9834  0.4801  0.4866
   42MOL    C7814920   4.658   1.056   2.827 -0.4497 -0.4786  0.5989
   42MOL    C7914921   4.413   1.056   2.848  0.1872  0.2654  0.1131
   42MOL    H8014922   4.513   1.523   2.802 -0.2276 -1.8163  0.6189
   42MOL    H8114923   4.680   1.575   2.808  1.6579 -1.2515 -3.0714
   42MOL    H8214924   4.733   1.311   2.809 -0.0851 -1.3409  3.0696
   42MOL    H8314925   4.453   1.330   2.885 -0.6095  1.4957 -1.3527
   42MOL    H8414926   4.520   1.270   2.722 -0.3203  0.7638 -0.5197
   42MOL    H8514927   4.547   1.132   2.990  0.1500 -1.5069  0.4712
   42MOL    H8614928   4.642   1.047   2.719 -0.6958 -0.6622  0.6506
   42MOL    H8714929   4.669   0.957   2.870  1.6141 -1.2853 -1.7135
   42MOL    H8814930   4.754   1.102   2.849 -0.9455  0.5738  0.6202
   42MOL    H8914931   4.330   1.092   2.909  0.9329  0.0226  1.3085
   42MOL    H9014932   4.373   1.071   2.748 -0.1394 -0.8968  0.0644
   42MOL    H9114933   4.428   0.951   2.874  0.4193  0.7472  2.0491
   42MOL    C9214934   4.677   1.403   3.004  0.2836  0.4650 -0.9531
   42MOL    C9314935   4.823   1.451   3.032 -0.3561  0.0673  0.7518
   42MOL    C9414936   4.838   1.507   3.173 -0.1635 -0.0551 -0.3099
   42MOL    C9514937   4.783   1.433   3.293  0.0359  0.4363 -0.0092
   42MOL    C9614938   4.844   1.296   3.327 -0.4403  0.7953  0.4483
   42MOL    C9714939   4.802   1.525   3.412  0.8469  0.0958  0.0181
   42MOL    H9814940   4.602   1.474   3.038  0.7206 -0.6728  2.5405
   42MOL    H9914941   4.662   1.317   3.069  1.8440 -0.0038 -1.1797
   42MOL   H10014942   4.834   1.530   2.958 -1.6120  0.4299  0.9440
   42MOL   H10114943   4.774   1.594   3.166 -0.5238 -0.4448 -2.0909
   42MOL   H10214944   4.944   1.534   3.181 -0.0139 -0.0974 -1.9065
   42MOL   H10314945   4.674   1.424   3.285 -0.0530  0.4839  1.0231
   42MOL   H10414946   4.808   1.225   3.254  2.6833  0.2475 -0.6573
   42MOL   H10514947   4.809   1.245   3.417 -1.9413  0.8588 -0.0999
   42MOL   H10614948   4.953   1.306   3.327  0.0073 -3.1338 -0.4151
   42MOL   H10714949   4.740   1.615   3.407  0.7554  0.0699  0.6652
   42MOL   H10814950   4.909   1.543   3.430  1.0761 -1.5333  0.3157
   42MOL   H10914951   4.758   1.485   3.503  1.0019  0.0217  0.0605
   42MOL   C11014952   4.923   1.337   2.997  0.4929 -0.0495  0.0687
   42MOL   C11114953   5.079   1.369   3.024 -0.4170  0.2750  1.1170
   42MOL   C11214954   5.169   1.247   2.983  0.0779  0.6747  0.5319
   42MOL   C11314955   5.148   1.118   3.061  0.1353 -0.1931  0.4811
   42MOL   C11414956   5.218   1.122   3.193 -0.1568 -0.6411  0.2129
   42MOL   C11514957   5.180   0.992   2.976 -0.0016 -0.3507 -0.6563
   42MOL   H11614958   4.916   1.308   2.892  1.8791 -1.9875  0.4829
   42MOL   H11714959   4.902   1.251   3.061 -0.6616 -0.3937 -0.7472
   42MOL   H11814960   5.107   1.389   3.127  1.5836  0.4850  0.5583
   42MOL   H11914961   5.277   1.258   2.990  0.6869 -4.1877  0.5223
   42MOL   H12014962   5.147   1.222   2.879 -1.0280  0.9411  0.6940
   42MOL   H12114963   5.041   1.112   3.082  0.0394  0.0799  0.0801
   42MOL   H12214964   5.191   1.040   3.261  0.7485 -0.5760  0.6587
   42MOL   H12314965   5.185   1.207   3.252  0.0844 -0.0159 -0.5471
   42MOL   H12414966   5.326   1.118   3.179 -0.0443  0.3075  0.7466
   42MOL   H12514967   5.105   0.992   2.897 -0.7535 -0.0976  0.0581
   42MOL   H12614968   5.180   0.906   3.042  0.3595  0.8700  0.9811
   42MOL   H12714969   5.278   0.999   2.928  0.6467 -1.1206  0.5256
   42MOL   C12814970   5.115   1.485   2.933  0.2383 -0.3421  0.0959
   42MOL   C12914971   5.196   1.603   2.989 -0.0542 -0.1377  0.9629
   42MOL   C13014972   5.323   1.570   3.060 -0.4156  0.2459 -0.0686
   42MOL   C13114973   5.444   1.531   2.959  0.3255 -0.4786 -0.3070
   42MOL   C13214974   5.504   1.655   2.892 -0.5720 -0.2506  0.5894
   42MOL   C13314975   5.550   1.463   3.044 -0.5560  0.3326  0.1912
   42MOL   H13414976   5.028   1.529   2.885  1.3692  1.1278 -0.6572
   42MOL   H13514977   5.164   1.454   2.841  1.5704 -0.1255  0.7230
   42MOL   H13614978   5.216   1.657   2.897 -0.8993 -0.7687  0.4011
   42MOL   H13714979   5.353   1.658   3.117 -1.3351  1.4437 -1.3975
   42MOL   H13814980   5.304   1.494   3.135 -3.5640  1.6165  0.5980
   42MOL   H13914981   5.401   1.465   2.884 -1.2815  0.0573  0.1149
   42MOL   H14014982   5.538   1.724   2.969 -2.3589  0.3875  0.8439
   42MOL   H14114983   5.436   1.706   2.823  0.0337 -0.6591 -0.3210
   42MOL   H14214984   5.593   1.638   2.832 -1.4623 -1.7296 -0.3512
   42MOL   H14314985   5.626   1.433   2.972  0.0171 -0.3681  1.0714
   42MOL   H14414986   5.593   1.519   3.127 -0.4836  0.0312  0.3580
   42MOL   H14514987   5.509   1.372   3.087  0.9860 -0.9948 -1.0993
   42MOL   C14614988   5.117   1.705   3.078 -0.5331  0.0628  0.3781
   42MOL   C14714989   5.164   1.850   3.063 -0.2617 -0.8921  0.1204
   42MOL   C14814990   5.163   1.926   3.201 -0.3383 -0.4960  0.6357
   42MOL   C14914991   5.282   1.898   3.293  0.6287  0.1987 -0.9205
   42MOL   C15014992   5.405   1.979   3.247 -0.1188  0.3576 -0.4433
   42MOL   C15114993   5.250   1.935   3.437 -0.1859  0.3721 -0.3901
   42MOL   H15214994   5.124   1.682   3.185 -0.4504  1.4590  0.6731
   42MOL   H15314995   5.012   1.691   3.054 -0.1639 -1.6441 -0.3718
   42MOL   H15414996   5.263   1.845   3.018 -1.1149  0.0536 -1.9570
   42MOL   H15514997   5.156   2.032   3.178 -1.7233 -0.6004  0.5479
   42MOL   H15614998   5.066   1.902   3.246  0.4252 -0.5910  2.2663
   42MOL   H15714999   5.298   1.790   3.292 -1.8463 -0.1792 -1.9211
   42MOL   H15815000   5.432   1.963   3.143  0.0733 -2.1173 -0.0274
   42MOL   H15915001   5.487   1.969   3.318  0.4178  2.0681 -0.7954
   42MOL   H16015002   5.371   2.083   3.246  1.8915  1.0405 -1.0080
   42MOL   H16115003   5.146   1.930   3.469  0.2767  1.2575  1.2910
   42MOL   H16215004   5.283   2.037   3.456 -1.4222  1.1368 -2.2498
   42MOL   H16315005   5.316   1.877   3.503  0.6463  1.4432 -0.2691
   42MOL   C16415006   5.073   1.907   2.961 -0.1034  0.6461 -0.2058
   42MOL   C16515007   5.146   2.033   2.903 -0.0901  0.0550  0.0332
   42MOL   C16615008   5.246   1.986   2.796 -0.3329  0.1211 -0.3201
   42MOL   C16715009   5.344   2.104   2.748 -0.3323  0.1297 -0.7113
   42MOL   C16815010   5.443   2.138   2.863  0.5594  0.1297  0.2297
   42MOL   C16915011   5.418   2.054   2.622  0.1682 -0.0708 -0.2880
   42MOL   H17015012   5.051   1.838   2.879 -3.4494 -0.8212  1.7987
   42MOL   H17115013   4.975   1.929   3.005  0.0492  1.1489 -0.1090
   42MOL   H17215014   5.193   2.098   2.977 -1.0066  0.2924  0.4026
   42MOL   H17315015   5.299   1.899   2.833 -0.1503  0.2609 -0.2529
   42MOL   H17415016   5.191   1.953   2.707 -1.1118 -0.7813  0.4806
   42MOL   H17515017   5.284   2.192   2.723  0.2729  0.5015 -0.8688
   42MOL   H17615018   5.498   2.056   2.909 -1.1006 -1.3579 -0.3801
   42MOL   H17715019   5.403   2.203   2.941  1.3090 -0.2591  0.9485
   42MOL   H17815020   5.525   2.200   2.829  0.2675  0.3547 -0.0618
   42MOL   H17915021   5.489   2.115   2.565 -0.9837 -0.3126 -2.0033
   42MOL   H18015022   5.332   2.021   2.565  0.4349 -0.7625 -0.2889
   42MOL   H18115023   5.472   1.965   2.653 -1.1060 -1.2597 -1.4533
   42MOL   C18215024   5.030   2.118   2.849 -0.4308  0.0524 -0.2050
   42MOL   C18315025   4.980   2.231   2.944 -0.1918  0.0778  0.6512
   42MOL   C18415026   5.077   2.352   2.923  0.0044 -0.0395  0.6308
   42MOL   C18515027   5.102   2.427   3.054 -0.3527  0.2427  0.7309
   42MOL   C18615028   5.209   2.357   3.143  0.2100  0.3425 -0.0463
   42MOL   C18715029   5.118   2.573   3.040 -0.2146  0.4991  0.1094
   42MOL   H18815030   4.951   2.048   2.821 -0.1143 -1.0567  1.5722
   42MOL   H18915031   5.056   2.159   2.751 -0.8160  2.5162  0.6918
   42MOL   H19015032   4.983   2.203   3.049 -2.3684  0.8629  0.9513
   42MOL   H19115033   5.033   2.427   2.857 -0.7767 -0.6540  0.4388
   42MOL   H19215034   5.173   2.321   2.881 -1.0685 -2.8076  0.0698
   42MOL   H19315035   5.010   2.420   3.112  0.6540 -1.8904  2.1707
   42MOL   H19415036   5.304   2.324   3.102  0.4772 -0.0389  0.8629
   42MOL   H19515037   5.170   2.263   3.182  2.2866 -1.6299 -2.5381
   42MOL   H19615038   5.228   2.423   3.228 -0.4038  0.4652 -0.0038
   42MOL   H19715039   5.220   2.595   3.008 -0.8232  3.1970 -0.1363
   42MOL   H19815040   5.099   2.627   3.134 -1.5662 -0.4749  0.4136
   42MOL   H19915041   5.046   2.621   2.974  1.2817  1.6565 -0.7179
   42MOL   C20015042   4.829   2.264   2.917  0.7433  0.6038 -0.7017
   42MOL   C20115043   4.728   2.151   2.956 -0.2320  0.8636  0.2293
   42MOL   C20215044   4.655   2.081   2.833 -0.3248  0.1297  0.4369
   42MOL   C20315045   4.583   1.953   2.863  0.2714 -0.8909  0.0431
   42MOL   C20415046   4.497   1.899   2.742  0.2083 -0.1838 -0.5050
   42MOL   C20515047   4.679   1.842   2.906 -0.3140  0.5997  0.9147
   42MOL   H20615048   4.804   2.308   2.820 -2.8585 -0.7580 -0.4648
   42MOL   H20715049   4.801   2.349   2.979 -1.4786 -0.0317 -0.8023
   42MOL   H20815050   4.784   2.075   3.010 -1.6922 -1.0613 -0.9159
   42MOL   H20915051   4.588   2.154   2.789  1.8727  0.9090 -1.7623
   42MOL   H21015052   4.725   2.062   2.752 -0.9282 -0.5150  0.0632
   42MOL   H21115053   4.515   1.966   2.947  1.4579  0.8071  0.7839
   42MOL   H21215054   4.563   1.874   2.660  1.4804  2.4795 -0.3410
   42MOL   H21315055   4.431   1.981   2.712 -0.6058 -0.6505 -0.0305
   42MOL   H21415056   4.441   1.811   2.773  0.7085  0.1470  1.4098
   42MOL   H21515057   4.630   1.745   2.905 -0.9140  0.9042 -0.1856
   42MOL   H21615058   4.713   1.867   3.006  0.2966  1.3961  0.5139
   42MOL   H21715059   4.763   1.836   2.837 -1.5998 -0.2261 -0.6038
   42MOL   C21815060   4.624   2.202   3.054  0.4957 -1.0597 -0.5348
   42MOL   C21915061   4.672   2.229   3.198  0.2621  0.3489  0.5612
   42MOL   C22015062   4.704   2.097   3.264 -1.2650  0.2745 -0.4863
   42MOL   C22115063   4.766   2.107   3.405  0.2904 -0.3076  0.2840
   42MOL   C22215064   4.789   1.964   3.452  0.2768 -0.0698  0.1243
   42MOL   C22315065   4.898   2.185   3.406 -0.4119  0.0277  0.6186
   42MOL   H22415066   4.602   2.303   3.017 -1.0730 -2.1281 -2.6064
   42MOL   H22515067   4.534   2.143   3.071  0.8740 -0.6614  3.2848
   42MOL   H22615068   4.766   2.284   3.195  0.1728  0.5751  1.6679
   42MOL   H22715069   4.617   2.031   3.269  0.8597 -2.5193  2.0544
   42MOL   H22815070   4.785   2.048   3.210 -1.0034  0.3049 -0.1265
   42MOL   H22915071   4.691   2.145   3.474 -0.4668 -2.0042  0.4188
   42MOL   H23015072   4.883   1.933   3.408  1.5419  1.7856  1.4528
   42MOL   H23115073   4.798   1.953   3.560  0.2494 -1.9662 -0.0499
   42MOL   H23215074   4.712   1.894   3.420  0.5152 -1.6001  2.8018
   42MOL   H23315075   4.971   2.164   3.484  1.3680  0.1473 -0.9874
   42MOL   H23415076   4.958   2.141   3.326  0.0892  2.4780 -0.3928
   42MOL   H23515077   4.886   2.290   3.381 -2.2311 -0.3871 -0.3115
   42MOL   C23615078   4.567   2.311   3.283  0.0412  0.2385 -0.0095
   42MOL   C23715079   4.548   2.468   3.241 -0.4703 -0.6372 -0.1056
   42MOL   C23815080   4.575   2.566   3.356 -0.1345 -0.0946 -0.1297
   42MOL   C23915081   4.724   2.578   3.396  0.3408  0.1678 -0.1264
   42MOL   C24015082   4.803   2.639   3.281  0.5804  0.2402 -0.6167
   42MOL   C24115083   4.744   2.669   3.522  1.3334 -0.0010  0.5898
   42MOL   H24215084   4.617   2.313   3.380  0.4376 -0.5096 -0.1905
   42MOL   H24315085   4.475   2.253   3.282  0.0587  0.2125 -0.1102
   42MOL   H24415086   4.623   2.486   3.165 -0.1932 -1.9651 -0.1584
   42MOL   H24515087   4.507   2.548   3.440  0.7646  1.0272  0.8562
   42MOL   H24615088   4.541   2.664   3.322  0.2829 -0.9883 -3.2880
   42MOL   H24715089   4.769   2.480   3.408 -2.1332 -0.8754  0.9166
   42MOL   H24815090   4.910   2.627   3.299  0.2534 -0.8522  0.6417
   42MOL   H24915091   4.784   2.745   3.267  1.1942  0.3833 -0.3921
   42MOL   H25015092   4.801   2.582   3.188  1.8304  0.7678 -0.9744
   42MOL   H25115093   4.722   2.769   3.486  0.0986 -1.0977 -1.8527
   42MOL   H25215094   4.847   2.679   3.558  1.5972  0.3606 -0.2514
   42MOL   H25315095   4.676   2.648   3.605  1.7020 -0.5874  0.7507
   42MOL   C25415096   4.404   2.489   3.196  0.7445 -0.6308  0.3425
   42MOL   C25515097   4.373   2.604   3.093 -0.9924  0.5383  0.1991
   42MOL   C25615098   4.438   2.574   2.957 -0.2019 -0.2777  0.1638
   42MOL   C25715099   4.514   2.692   2.892  0.3402  0.5732  0.0849
   42MOL   C25815100   4.546   2.657   2.744 -0.3945  0.5284 -0.0040
   42MOL   C25915101   4.647   2.733   2.967  0.0221  0.2057  0.0271
   42MOL   H26015102   4.382   2.392   3.151  2.0724  0.1538 -2.0807
   42MOL   H26115103   4.333   2.496   3.279  0.5344 -0.4753  0.1505
   42MOL   H26215104   4.423   2.688   3.141  0.1556  0.0264 -0.0736
   42MOL   H26315105   4.363   2.529   2.891 -0.5826  2.3025 -1.2515
   42MOL   H26415106   4.510   2.493   2.966  0.2810  0.2912  1.5165
   42MOL   H26515107   4.452   2.780   2.903  0.6570  0.6666  1.2390
   42MOL   H26615108   4.592   2.558   2.738  2.1135  1.7304 -0.9038
   42MOL   H26715109   4.608   2.725   2.686  0.1615 -0.7201 -0.9013
   42MOL   H26815110   4.455   2.630   2.689 -0.8292 -2.7614  2.1793
   42MOL   H26915111   4.629   2.748   3.074  2.0492  0.1186  0.3960
   42MOL   H27015112   4.731   2.665   2.952  1.6128  1.6212  2.0987
   42MOL   H27115113   4.674   2.824   2.912 -3.0102  1.0651 -0.1474
   42MOL   C27215114   4.223   2.633   3.066 -0.4591  0.6531  0.7018
   42MOL   C27315115   4.166   2.763   3.127  0.0483  0.3438 -0.2826
   42MOL   C27415116   4.036   2.807   3.065  0.6718  1.1071  0.4633
   42MOL   C27515117   4.037   2.826   2.910 -0.4768  0.7128  0.4400
   42MOL   C27615118   4.151   2.917   2.871 -0.3689 -0.5599  0.5086
   42MOL   C27715119   3.904   2.883   2.864  0.2662  0.6440 -0.2359
   42MOL   H27815120   4.200   2.609   2.962  2.9034 -0.9425  0.2624
   42MOL   H27915121   4.162   2.549   3.099 -1.9601  1.3005 -0.3438
   42MOL   H28015122   4.240   2.839   3.104  0.7764 -0.3441 -0.2270
   42MOL   H28115123   4.005   2.903   3.107  1.3042  0.7208  1.8295
   42MOL   H28215124   3.959   2.730   3.073  2.4076 -0.6538  0.6533
   42MOL   H28315125   4.043   2.726   2.868 -0.1802  0.9411 -0.0689
   42MOL   H28415126   4.135   3.012   2.921  1.6379  0.9226 -1.5455
   42MOL   H28515127   4.252   2.889   2.903  0.5776  1.4206 -0.6789
   42MOL   H28615128   4.160   2.948   2.767  1.3499  2.5893  1.5407
   42MOL   H28715129   3.914   2.905   2.757  2.0163  1.0352 -0.0094
   42MOL   H28815130   3.821   2.816   2.884 -0.5812  1.7832  0.0655
   42MOL   H28915131   3.881   2.972   2.922 -2.1181  0.3254 -0.6564
   42MOL   C29015132   4.145   2.743   3.280 -0.6753  0.3267 -0.7584
   42MOL   C29115133   4.165   2.870   3.366  0.1742 -0.5523  0.1114
   42MOL   C29215134   4.101   2.864   3.510 -0.5444 -0.6681 -0.0885
   42MOL   C29315135   3.954   2.825   3.534 -1.1054  0.4292 -0.1580
   42MOL   C29415136   3.920   2.833   3.685  0.3090 -0.3585 -0.5677
   42MOL   C29515137   3.865   2.920   3.457 -0.3980  0.0047  0.1619
   42MOL   H29615138   4.044   2.705   3.297  0.3998 -1.7213  1.4436
   42MOL   H29715139   4.203   2.664   3.328  1.0695  1.9246 -0.2049
   42MOL   H29815140   4.108   2.948   3.315 -1.6855 -1.6665  0.4658
   42MOL   H29915141   4.111   2.967   3.547  0.6465 -0.0621 -1.9899
   42MOL   H30015142   4.165   2.801   3.571  0.0967  0.1554  0.1123
   42MOL   H30115143   3.944   2.721   3.506 -0.4470  0.9530 -2.4530
   42MOL   H30215144   3.919   2.938   3.713  1.8898 -0.2402 -0.8774
   42MOL   H30315145   3.993   2.786   3.751 -0.4528  0.8399  1.1703
   42MOL   H30415146   3.817   2.806   3.706  0.7439 -1.0832  0.7016
   42MOL   H30515147   3.769   2.870   3.471 -0.1813 -0.1991  0.9755
   42MOL   H30615148   3.898   2.911   3.354 -1.1617 -0.3340 -0.0503
   42MOL   H30715149   3.873   3.024   3.489 -0.6954 -0.6846  2.5602
   42MOL   C30815150   4.314   2.899   3.369 -0.0686 -0.1835 -0.3991
   42MOL   C30915151   4.349   3.038   3.432 -0.1069 -0.3956  0.6371
   42MOL   C31015152   4.436   3.024   3.556 -0.2066 -0.4980 -0.5884
   42MOL   C31115153   4.403   3.151   3.654 -0.0431 -0.6011  0.3861
   42MOL   C31215154   4.262   3.151   3.724 -0.1323  0.3862 -0.2646
   42MOL   C31315155   4.494   3.157   3.772  0.6172 -0.4317 -0.3097
   42MOL   H31415156   4.362   2.818   3.425 -0.5751 -1.2494 -1.4647
   42MOL   H31515157   4.350   2.896   3.267  2.0345  1.4523  0.2625
   42MOL   H31615158   4.258   3.089   3.464 -0.3662 -0.8020  0.5532
   42MOL   H31715159   4.542   3.007   3.537 -0.0857 -1.2970  0.7245
   42MOL   H31815160   4.400   2.944   3.621  1.6167 -2.0394 -1.4305
   42MOL   H31915161   4.401   3.249   3.606 -1.2350 -0.4135  0.7984
   42MOL   H32015162   4.186   3.177   3.649  1.5162  0.1332 -2.0719
   42MOL   H32115163   4.252   3.226   3.802 -0.5237  2.3177 -2.1102
   42MOL   H32215164   4.229   3.061   3.775  0.2382 -0.3831 -1.3702
   42MOL   H32315165   4.470   3.080   3.845 -4.1227  0.7989 -0.4445
   42MOL   H32415166   4.595   3.142   3.732 -0.7011 -1.3606 -3.4471
   42MOL   H32515167   4.492   3.255   3.818 -1.9693 -0.4176 -0.3742
   42MOL   C32615168   4.408   3.130   3.324  0.1055  0.2219  0.1250
   42MOL   C32715169   4.316   3.173   3.213 -0.1879  0.0444 -1.3281
   42MOL   C32815170   4.383   3.271   3.120 -0.1481 -0.1616 -0.9221
   42MOL   C32915171   4.503   3.223   3.045 -0.7463 -0.2231  0.2138
   42MOL   C33015172   4.473   3.092   2.970 -0.6333 -0.0797 -0.5054
   42MOL   C33115173   4.571   3.332   2.954 -0.2475 -0.2067 -0.6143
   42MOL   H33215174   4.490   3.082   3.271  1.3562  3.0925 -0.6974
   42MOL   H33315175   4.454   3.217   3.373  0.3763  0.0942  0.0995
   42MOL   H33415176   4.276   3.090   3.156 -1.0901 -0.4969  0.0559
   42MOL   H33515177   4.306   3.306   3.051 -0.7988 -0.7042 -0.4736
   42MOL   H33615178   4.416   3.350   3.186 -2.2752 -0.5872  0.7086
   42MOL   H33715179   4.583   3.203   3.117 -0.0672  1.7243  0.0462
   42MOL   H33815180   4.446   3.007   3.033  0.1559 -0.0301 -0.0859
   42MOL   H33915181   4.567   3.076   2.918 -0.2705 -0.6924  0.3161
   42MOL   H34015182   4.399   3.107   2.892 -1.5445  2.6152  0.7912
   42MOL   H34115183   4.503   3.373   2.879  0.1332 -0.2165 -0.9680
   42MOL   H34215184   4.601   3.412   3.022 -2.3321 -0.4669  0.6468
   42MOL   H34315185   4.661   3.292   2.907  0.4709 -1.4847  1.7696
   42MOL   C34415186   4.190   3.239   3.266  0.5815  0.3132 -0.6248
   42MOL   C34515187   4.206   3.365   3.355  0.0204 -0.6880 -0.1927
   42MOL   C34615188   4.081   3.415   3.415  0.9545 -0.1610  0.1187
   42MOL   C34715189   4.107   3.519   3.525 -0.4635  0.4556 -0.5111
   42MOL   C34815190   3.975   3.523   3.611 -0.9335  0.2795  0.0127
   42MOL   C34915191   4.142   3.657   3.454 -0.7537 -0.5862 -0.0201
   42MOL   H35015192   4.130   3.174   3.329  0.0865  0.4063 -0.9980
   42MOL   H35115193   4.121   3.275   3.189  0.1724  2.9829  0.9463
   42MOL   H35215194   4.253   3.446   3.300 -0.0001 -1.0597 -0.7627
   42MOL   H35315195   4.017   3.459   3.338 -1.9985  1.3469  3.2757
   42MOL   H35415196   4.035   3.330   3.466 -1.1893  2.1311  2.1485
   42MOL   H35515197   4.193   3.483   3.580 -0.0776 -0.3863 -1.6425
   42MOL   H35615198   3.980   3.590   3.696 -1.8623  0.4941 -0.0986
   42MOL   H35715199   3.897   3.557   3.543 -1.2975 -2.1253 -0.8312
   42MOL   H35815200   3.950   3.422   3.645  1.2659 -0.3374 -0.1281
   42MOL   H35915201   4.173   3.734   3.525 -1.0823 -1.4597  1.0877
   42MOL   H36015202   4.058   3.683   3.390 -0.4390 -0.3566 -0.3382
   42MOL   H36115203   4.229   3.640   3.391  0.6162  2.8293  0.8213
   42MOL   H36215204   4.269   3.335   3.438 -1.1795  0.5043  1.1805
   43MOL     C115205   0.454   6.866   4.815  0.4084  0.4481  0.6849
   43MOL     C215206   0.592   6.937   4.821  0.1518 -0.0150  0.1107
   43MOL     C315207   0.593   7.089   4.865 -0.5162  0.4053 -0.2485
   43MOL     C415208   0.583   7.108   5.019  0.7442 -0.2675  0.2579
   43MOL     C515209   0.520   7.245   5.057  0.6137 -0.2376  0.4301
   43MOL     C615210   0.718   7.086   5.088 -0.2095 -0.8200  0.0954
   43MOL     H715211   0.389   6.885   4.900  0.1482 -1.3241  0.8962
   43MOL     H815212   0.399   6.893   4.725 -0.4510 -1.7945  0.5050
   43MOL     H915213   0.652   6.888   4.898 -1.6235 -1.7701  0.4208
   43MOL    H1015214   0.676   7.141   4.816  0.1604 -0.3298  0.1037
   43MOL    H1115215   0.503   7.120   4.813 -1.4481 -2.7790 -0.6742
   43MOL    H1215216   0.502   7.039   5.042  0.1143  0.1223 -0.7274
   43MOL    H1315217   0.430   7.271   5.001  0.7799  1.9275  1.1064
   43MOL    H1415218   0.528   7.260   5.164  1.6816  0.6744  0.2316
   43MOL    H1515219   0.594   7.317   5.022 -0.1627 -0.0188 -0.8097
   43MOL    H1615220   0.785   7.169   5.065 -0.4742 -0.1174  1.7990
   43MOL    H1715221   0.776   7.004   5.045  0.1242 -0.0221 -1.0063
   43MOL    H1815222   0.710   7.083   5.197 -1.7903 -0.8706 -0.0069
   43MOL    H1915223   0.466   6.758   4.816  0.3896  0.4465  0.6994
   43MOL    C2015224   0.671   6.906   4.692 -0.0664  0.5483 -0.3110
   43MOL    C2115225   0.829   6.919   4.719  0.6449 -0.7171  0.0835
   43MOL    C2215226   0.890   6.772   4.736  0.5324 -0.1835 -0.1047
   43MOL    C2315227   1.026   6.773   4.803 -0.4176 -0.7542 -1.0640
   43MOL    C2415228   1.030   6.841   4.945  0.2452  0.4497  0.4788
   43MOL    C2515229   1.072   6.627   4.813 -0.3296 -0.1321  0.5257
   43MOL    H2615230   0.654   6.809   4.646 -1.0753 -0.2232  1.6520
   43MOL    H2715231   0.639   6.978   4.617  3.8136  3.5104  0.7448
   43MOL    H2815232   0.850   6.973   4.812  2.8030 -2.5629  0.7324
   43MOL    H2915233   0.894   6.717   4.642  1.5396 -1.4055  0.6436
   43MOL    H3015234   0.816   6.711   4.787 -0.4305 -0.7741 -2.1517
   43MOL    H3115235   1.103   6.823   4.744  2.6488 -2.8011  1.0924
   43MOL    H3215236   0.945   6.826   5.012 -1.7900  0.9225 -1.9193
   43MOL    H3315237   1.041   6.950   4.951  0.1425  0.4825  0.0637
   43MOL    H3415238   1.121   6.814   4.998  0.4438  2.6911  1.3775
   43MOL    H3515239   1.073   6.577   4.716  0.7580 -0.3591  0.6525
   43MOL    H3615240   1.171   6.618   4.857  0.6407  2.1848 -1.0933
   43MOL    H3715241   1.010   6.559   4.872  1.5595 -1.0663  1.4960
   43MOL    C3815242   0.882   6.990   4.595 -0.5762 -0.2910  0.5875
   43MOL    C3915243   0.894   7.137   4.601  0.4712 -0.5322  0.3769
   43MOL    C4015244   0.919   7.193   4.460 -0.2739 -0.6663  0.3288
   43MOL    C4115245   0.801   7.193   4.358 -0.1222  0.7291  0.7608
   43MOL    C4215246   0.838   7.261   4.222 -0.3867  0.2807 -0.4213
   43MOL    C4315247   0.673   7.258   4.409  0.4898 -0.2770  0.4713
   43MOL    H4415248   0.824   6.947   4.513  2.0175 -1.0811 -0.8605
   43MOL    H4515249   0.984   6.952   4.592 -1.1372 -1.7740  0.2958
   43MOL    H4615250   0.795   7.174   4.627 -0.4066 -1.9723 -0.8157
   43MOL    H4715251   1.002   7.137   4.416  0.1642  0.4876 -0.3357
   43MOL    H4815252   0.947   7.298   4.459 -1.4792 -0.3476 -0.9064
   43MOL    H4915253   0.766   7.094   4.330  2.9617 -0.1116 -0.2270
   43MOL    H5015254   0.947   7.257   4.213 -0.3306  1.2093 -0.2056
   43MOL    H5115255   0.780   7.207   4.147 -2.3535  1.9696 -0.1532
   43MOL    H5215256   0.795   7.360   4.207 -0.5585  0.2641 -0.0443
   43MOL    H5315257   0.687   7.357   4.454  1.2152 -0.9202  1.7135
   43MOL    H5415258   0.625   7.207   4.492 -1.3292  0.8777  0.1533
   43MOL    H5515259   0.604   7.276   4.327 -0.3103 -1.2143  0.9334
   43MOL    C5615260   1.009   7.184   4.697  0.0123 -0.0111 -0.5486
   43MOL    C5715261   1.006   7.334   4.744 -0.1298 -0.2133 -0.6244
   43MOL    C5815262   1.154   7.372   4.787  0.5136  0.1178  0.0486
   43MOL    C5915263   1.243   7.417   4.670 -0.1563 -0.0597 -0.5857
   43MOL    C6015264   1.392   7.368   4.676 -0.2386  0.3391 -0.6134
   43MOL    C6115265   1.228   7.566   4.658  0.1981 -1.0404  0.1184
   43MOL    H6215266   1.107   7.165   4.653 -0.2545  2.0273 -2.1314
   43MOL    H6315267   1.007   7.119   4.784  2.8476 -1.7302 -1.7000
   43MOL    H6415268   0.978   7.401   4.663 -1.4571 -0.1336 -0.1203
   43MOL    H6515269   1.154   7.448   4.864 -0.0172  1.1339 -0.9429
   43MOL    H6615270   1.199   7.290   4.843  2.0652 -0.0316 -1.3896
   43MOL    H6715271   1.203   7.381   4.575 -1.3191  1.3954 -0.6680
   43MOL    H6815272   1.456   7.406   4.755 -0.4641 -1.1608  0.3198
   43MOL    H6915273   1.445   7.376   4.581  1.7078 -0.8961  0.3364
   43MOL    H7015274   1.392   7.261   4.697 -0.6425  0.2925 -0.8442
   43MOL    H7115275   1.280   7.600   4.568  1.7796  0.6929  1.6324
   43MOL    H7215276   1.283   7.600   4.746 -0.4166 -1.6889  0.7583
   43MOL    H7315277   1.123   7.591   4.671  0.1859 -1.0181 -0.0155
   43MOL    C7415278   0.900   7.359   4.854  0.5351  0.0620  0.3582
   43MOL    C7515279   0.866   7.512   4.880 -0.2820  0.7391  0.4490
   43MOL    C7615280   0.839   7.542   5.028  0.0991 -0.2319  0.8822
   43MOL    C7715281   0.962   7.566   5.120  0.3527 -0.8024 -0.3442
   43MOL    C7815282   0.924   7.604   5.268  0.1240  0.7807  0.3103
   43MOL    C7915283   1.057   7.672   5.065  0.3913 -0.6819 -0.3742
   43MOL    H8015284   0.919   7.310   4.950  2.8587 -1.7278 -0.9612
   43MOL    H8115285   0.802   7.321   4.826 -0.1578  1.5365  0.7380
   43MOL    H8215286   0.957   7.563   4.849  0.0540 -0.3219 -0.3427
   43MOL    H8315287   0.773   7.627   5.042 -1.2547 -1.0715 -0.2573
   43MOL    H8415288   0.781   7.459   5.067  0.7490 -1.2037 -0.1632
   43MOL    H8515289   1.017   7.475   5.142 -0.0793 -0.2185  3.4327
   43MOL    H8615290   0.838   7.546   5.300 -0.2655  0.6790 -0.8760
   43MOL    H8715291   0.913   7.709   5.294  0.2193  1.4938 -2.3412
   43MOL    H8815292   1.001   7.570   5.337  0.0160  0.0738  0.0901
   43MOL    H8915293   1.002   0.014   5.067  2.0250  0.2837 -0.1957
   43MOL    H9015294   1.133   7.692   5.140  1.7761  1.3600 -2.2721
   43MOL    H9115295   1.092   7.659   4.963  0.4931 -0.8881 -0.3137
   43MOL    C9215296   0.743   7.563   4.794  0.2065 -0.3533  0.0737
   43MOL    C9315297   0.750   7.706   4.758  0.4399 -0.5236 -0.0183
   43MOL    C9415298   0.853   7.734   4.640 -0.2154  0.0351 -0.9567
   43MOL    C9515299   0.914   0.127   4.633 -0.1748  0.3003  0.5723
   43MOL    C9615300   1.008   0.171   4.754  0.2722 -0.0129 -0.1709
   43MOL    C9715301   0.985   0.150   4.499  1.1013 -0.0712  0.6357
   43MOL    H9815302   0.727   7.504   4.704  0.7781  0.3302 -0.4847
   43MOL    H9915303   0.652   7.551   4.853  0.3010  1.7935  0.7028
   43MOL   H10015304   0.798   0.006   4.841  0.1294 -0.0474 -0.1436
   43MOL   H10115305   0.801   7.713   4.547 -0.0594 -1.3980 -0.7205
   43MOL   H10215306   0.932   7.661   4.658  0.4625  0.9324 -0.2162
   43MOL   H10315307   0.828   0.194   4.638 -1.8257 -1.6279 -1.1540
   43MOL   H10415308   0.949   0.208   4.838 -1.7647 -2.4479 -0.4776
   43MOL   H10515309   1.074   0.254   4.728  1.8159 -1.0076  0.5116
   43MOL   H10615310   1.073   0.086   4.775 -0.7278 -0.5888  0.6572
   43MOL   H10715311   1.087   0.110   4.495  1.2249  0.4169 -1.4262
   43MOL   H10815312   0.994   0.257   4.482 -0.3831  0.2283  1.6465
   43MOL   H10915313   0.933   0.121   4.409  1.1488  2.5580 -0.2796
   43MOL   C11015314   0.609   0.015   4.733 -0.2897 -0.2367  0.5822
   43MOL   C11115315   0.532   0.044   4.864  0.0173 -0.2253 -0.0075
   43MOL   C11215316   0.491   0.196   4.876 -0.0892  0.6558 -0.2099
   43MOL   C11315317   0.565   0.288   4.981  0.2678  0.4115  0.1265
   43MOL   C11415318   0.501   0.420   4.995  0.0968  0.1235  0.0554
   43MOL   C11515319   0.717   0.284   4.956 -0.3745 -0.0949  0.5940
   43MOL   H11615320   0.554   7.697   4.670 -2.1799 -0.8279  2.7995
   43MOL   H11715321   0.623   0.109   4.681 -1.5631 -0.6938 -0.6213
   43MOL   H11815322   0.593   0.020   4.951 -1.3519  0.5433  1.1975
   43MOL   H11915323   0.391   0.202   4.919  1.0548 -1.1667  2.8884
   43MOL   H12015324   0.474   0.244   4.780  0.9127 -0.4082 -0.9407
   43MOL   H12115325   0.553   0.231   5.073 -2.3954  3.5214  1.8233
   43MOL   H12215326   0.562   0.487   5.055  1.9223 -0.6124 -0.9210
   43MOL   H12315327   0.400   0.410   5.036  0.7688 -1.5177  1.3639
   43MOL   H12415328   0.494   0.466   4.896  3.4903 -0.8393 -0.7000
   43MOL   H12515329   0.780   0.207   5.001 -0.8353 -0.1411  1.1628
   43MOL   H12615330   0.761   0.376   4.997 -4.6319  2.5558 -0.4965
   43MOL   H12715331   0.740   0.295   4.850  1.6133 -4.1342  0.5505
   43MOL   C12815332   0.402   7.706   4.859  0.3489  0.1566  0.0154
   43MOL   C12915333   0.318   7.694   4.989  0.5377 -0.5869  0.0429
   43MOL   C13015334   0.391   7.591   5.080  0.0118  0.8270 -0.5400
   43MOL   C13115335   0.369   7.607   5.230  0.3784 -0.3636 -0.3163
   43MOL   C13215336   0.369   7.474   5.312  0.0643 -0.0744 -0.1482
   43MOL   C13315337   0.472   7.702   5.289  1.0651 -0.7639  0.1518
   43MOL   H13415338   0.441   7.605   4.842  0.0712 -0.0322  0.4997
   43MOL   H13515339   0.349   7.740   4.770 -0.5667 -1.7044 -0.1701
   43MOL   H13615340   0.315   0.034   5.047  1.0736  0.7777 -2.0390
   43MOL   H13715341   0.366   7.488   5.052 -0.1689  0.6981  0.0831
   43MOL   H13815342   0.499   7.594   5.068 -0.0401 -0.5747 -1.4136
   43MOL   H13915343   0.270   7.652   5.242  0.6350 -0.2421  1.4782
   43MOL   H14015344   0.468   7.430   5.306  0.3154  0.1891  1.6831
   43MOL   H14115345   0.298   7.398   5.278 -0.6928  1.4690 -2.1526
   43MOL   H14215346   0.340   7.498   5.414 -1.6388 -2.1870 -0.1128
   43MOL   H14315347   0.447   7.720   5.394  1.5804 -0.9439  0.3101
   43MOL   H14415348   0.573   7.660   5.290 -0.2969 -4.1101  0.1535
   43MOL   H14515349   0.478   0.045   5.235  1.1440 -0.4512  0.7066
   43MOL   C14615350   0.179   7.633   4.960  0.2507 -0.2800  0.2885
   43MOL   C14715351   0.086   7.717   4.873  0.2501  0.3986 -0.2020
   43MOL   C14815352   0.062   0.102   4.942 -0.0029  0.4846 -0.6070
   43MOL   C14915353   7.746   0.209   4.857 -0.2973  0.7215  0.0235
   43MOL   C15015354   7.712   0.332   4.942  0.3950  0.0876  0.6068
   43MOL   C15115355   0.063   0.246   4.716  0.1505 -0.4190  0.1145
   43MOL   H15215356   0.132   7.623   5.058  0.1403 -1.8809  0.0801
   43MOL   H15315357   0.179   7.535   4.913  2.1650  1.2407 -3.0178
   43MOL   H15415358   0.128   7.743   4.775 -2.0083 -1.0996 -1.6061
   43MOL   H15515359   7.746   0.099   5.028 -1.8708  2.8939 -1.9456
   43MOL   H15615360   0.155   0.150   4.973 -0.1481 -0.7961  1.9749
   43MOL   H15715361   7.652   0.166   4.821 -0.0476 -0.5367  0.8426
   43MOL   H15815362   7.670   0.315   5.041 -2.8167  0.5129 -0.6133
   43MOL   H15915363   7.637   0.388   4.886  0.4028 -0.1909  0.3135
   43MOL   H16015364   0.052   0.387   4.960  0.0688  0.8427 -0.0075
   43MOL   H16115365   0.061   0.166   4.643 -0.9615 -1.7453  1.5540
   43MOL   H16215366   0.167   0.265   4.742 -0.2132  0.3626  1.0583
   43MOL   H16315367   0.018   0.331   4.665 -1.2778 -1.8749 -1.0900
   43MOL   C16415368   7.705   7.646   4.852 -0.0938 -0.0867 -0.5063
   43MOL   C16515369   7.706   7.521   4.765  0.6478 -0.1654 -0.3609
   43MOL   C16615370   7.675   7.394   4.844  0.3059  0.1109 -0.1947
   43MOL   C16715371   7.719   7.266   4.782  0.3151 -0.5080  0.0370
   43MOL   C16815372   0.115   7.230   4.822  0.1132  0.2469 -0.2736
   43MOL   C16915373   7.622   7.148   4.796 -0.4332  0.2058  0.8392
   43MOL   H17015374   7.653   7.641   4.948 -1.7999 -1.2998 -1.4589
   43MOL   H17115375   7.650   7.714   4.787 -0.4466 -0.6299 -0.7832
   43MOL   H17215376   0.054   7.497   4.732  0.1766 -0.8687 -1.2888
   43MOL   H17315377   7.716   7.405   4.945 -2.2419  2.4012  0.6603
   43MOL   H17415378   7.567   7.396   4.862  0.2992  0.9045 -0.3244
   43MOL   H17515379   7.716   7.269   4.673 -0.5484 -0.4322  0.0566
   43MOL   H17615380   0.143   7.133   4.781  1.1226  0.8731 -1.0882
   43MOL   H17715381   0.146   7.234   4.926 -1.6911  0.5334  0.2815
   43MOL   H17815382   0.192   7.296   4.783  2.0762 -2.0909 -0.4299
   43MOL   H17915383   7.619   7.110   4.899  1.7104 -1.2646  0.3913
   43MOL   H18015384   7.658   7.068   4.732  0.3606  1.9572 -0.9678
   43MOL   H18115385   7.522   7.179   4.767 -0.5705 -1.2762 -0.2853
   43MOL   C18215386   7.631   7.535   4.633  0.2916 -0.0179  0.2378
   43MOL   C18315387   7.719   7.608   4.525 -0.1831  0.3645 -0.4040
   43MOL   C18415388   0.089   7.521   4.473 -0.1834 -0.0884  0.9322
   43MOL   C18515389   0.232   7.559   4.510 -0.2554 -0.2447  0.2290
   43MOL   C18615390   0.322   7.439   4.487 -0.3798 -0.5112  0.3161
   43MOL   C18715391   0.275   7.687   4.438 -0.0437 -0.6296 -0.0803
   43MOL   H18815392   7.538   7.587   4.657 -0.1073 -0.0192 -1.2384
   43MOL   H18915393   7.599   7.437   4.597  0.1160 -0.1081  0.6463
   43MOL   H19015394   7.749   7.702   4.572  1.3503  0.3812 -1.3923
   43MOL   H19115395   0.079   7.525   4.365 -3.0070  2.2874  1.2018
   43MOL   H19215396   0.079   7.419   4.512  0.4931  0.1646  1.7820
   43MOL   H19315397   0.234   7.578   4.617 -4.2317  1.0875  0.1678
   43MOL   H19415398   0.303   7.363   4.563  3.8938 -1.9289  0.1217
   43MOL   H19515399   0.426   7.472   4.488 -0.4625 -0.1759 -0.9679
   43MOL   H19615400   0.310   7.389   4.391  1.3244 -0.1752 -0.0831
   43MOL   H19715401   0.224   0.030   4.449  0.4648 -0.1517 -1.7771
   43MOL   H19815402   0.269   7.667   4.331 -1.9844  3.5406 -0.8258
   43MOL   H19915403   0.379   7.702   4.469 -0.3992  1.2607  0.2212
   43MOL   C20015404   7.623   7.647   4.406 -0.2875  0.2157  0.4335
   43MOL   C20115405   7.669   0.004   4.297 -0.0647  0.3214 -0.2354
   43MOL   C20215406   7.671   0.146   4.362 -0.1294  0.3760  0.1574
   43MOL   C20315407   7.715   0.260   4.273 -0.1948  0.7101  0.4001
   43MOL   C20415408   7.725   0.384   4.372  0.3749  0.8640 -0.3687
   43MOL   C20515409   0.098   0.239   4.201  0.0391 -0.5250 -0.1044
   43MOL   H20615410   7.539   7.696   4.455 -0.8769  0.9231 -1.2653
   43MOL   H20715411   7.595   7.552   4.360  0.4513  0.6841 -1.0129
   43MOL   H20815412   0.012   7.727   4.253 -1.8919  0.4674 -4.5665
   43MOL   H20915413   7.572   0.174   4.399 -0.1910 -2.5565  2.3630
   43MOL   H21015414   7.726   0.137   4.455 -1.5820  1.7602  1.1856
   43MOL   H21115415   7.641   0.287   4.198  0.5347  2.6704  0.3478
   43MOL   H21215416   7.738   0.472   4.309 -2.1960  1.3652 -0.2518
   43MOL   H21315417   0.056   0.362   4.438  1.3466 -1.4491 -2.2735
   43MOL   H21415418   7.638   0.406   4.434  0.0164 -0.1927 -0.4801
   43MOL   H21515419   0.096   0.160   4.126  0.1423 -0.3133 -0.3300
   43MOL   H21615420   0.179   0.211   4.268  2.8743 -1.5843 -3.8352
   43MOL   H21715421   0.143   0.331   4.164  2.7666 -1.3788  0.9945
   43MOL   C21815422   7.568   7.745   4.183  0.0607  0.7448  0.1871
   43MOL   C21915423   7.594   7.626   4.092 -0.4124 -0.4142  0.4472
   43MOL   C22015424   7.704   7.658   3.992  0.5983 -0.1331 -0.4658
   43MOL   C22115425   0.057   7.549   3.975  0.8519  0.1454  0.1435
   43MOL   C22215426   0.167   7.564   4.074 -0.0043  0.0653  0.3939
   43MOL   C22315427   7.748   7.409   3.954 -0.2638 -0.1206  0.0275
   43MOL   H22415428   7.475   7.742   4.240 -0.4922  0.7386 -0.6894
   43MOL   H22515429   7.566   0.087   4.128  2.9050  1.7576  1.7500
   43MOL   H22615430   7.619   7.537   4.149 -2.7867 -2.4973 -1.6156
   43MOL   H22715431   7.660   7.677   3.894  1.5698 -2.4118 -1.3845
   43MOL   H22815432   0.003   7.751   4.014  2.0195 -1.0644  0.2223
   43MOL   H22915433   0.105   7.567   3.879  0.4241 -0.9295 -0.2907
   43MOL   H23015434   0.226   7.653   4.054  0.6953 -0.4540  0.1619
   43MOL   H23115435   0.135   7.569   4.178 -2.7240  0.0232 -0.3812
   43MOL   H23215436   0.231   7.477   4.078 -0.9256 -0.6151  0.4933
   43MOL   H23315437   7.688   7.370   4.036  0.3780 -0.4328  0.3570
   43MOL   H23415438   7.682   7.414   3.868  1.6252  0.0060 -1.4523
   43MOL   H23515439   0.072   7.332   3.940  0.4589  0.5244  0.3389
   43MOL   C23615440   7.461   7.592   4.028 -0.3523  0.3375  0.2543
   43MOL   C23715441   7.344   7.534   4.119 -0.2387 -0.9751 -0.7534
   43MOL   C23815442   7.383   7.402   4.174  0.1996 -0.1096 -0.2322
   43MOL   C23915443   7.290   7.331   4.277 -0.6372  0.1491  0.1146
   43MOL   C24015444   7.346   7.190   4.305  0.6805  0.1003  0.1470
   43MOL   C24115445   7.292   7.412   4.408  0.6772  0.0589  0.7763
   43MOL   H24215446   7.465   7.512   3.954 -0.4244  1.7235 -1.2567
   43MOL   H24315447   7.423   7.670   3.963 -0.2336  0.0324 -0.1854
   43MOL   H24415448   7.318   7.602   4.200  0.4204 -0.7146 -0.7556
   43MOL   H24515449   7.482   7.406   4.219  0.4495 -2.2013 -0.5700
   43MOL   H24615450   7.395   7.333   4.091  1.6276 -0.6688  0.4209
   43MOL   H24715451   7.186   7.323   4.245 -0.7087 -2.0784  0.8776
   43MOL   H24815452   7.285   7.122   4.364  0.5776 -1.4347 -1.7043
   43MOL   H24915453   7.444   7.184   4.353  0.2308 -2.9933  0.7618
   43MOL   H25015454   7.352   7.145   4.206 -0.3272  0.0705  0.0965
   43MOL   H25115455   7.389   7.448   4.441  1.9969 -2.5811 -0.1549
   43MOL   H25215456   7.240   7.356   4.485 -0.3373  2.4885  1.9383
   43MOL   H25315457   7.240   7.507   4.391 -1.2250 -0.8236  1.5924
   43MOL   C25415458   7.218   7.528   4.031  0.1800  0.3444  0.8451
   43MOL   C25515459   7.086   7.591   4.078  0.2856 -0.4562 -0.1822
   43MOL   C25615460   7.100   7.743   4.095 -0.0622 -0.0886 -1.1521
   43MOL   C25715461   6.981   0.051   4.178 -0.2068 -0.3335  1.0355
   43MOL   C25815462   6.978   0.205   4.161  0.3267  0.9113  0.4221
   43MOL   C25915463   6.996   0.015   4.322 -0.1487  0.0817  0.1038
   43MOL   H26015464   7.230   7.590   3.941  1.3406  4.0286  3.4286
   43MOL   H26115465   7.208   7.423   4.001 -3.2864  1.0668 -0.8036
   43MOL   H26215466   7.061   7.545   4.173  0.8221 -0.7823 -0.1998
   43MOL   H26315467   7.109   0.045   4.001 -2.3613  1.5317 -0.4534
   43MOL   H26415468   7.195   0.023   4.137  0.3396 -2.4059 -0.2093
   43MOL   H26515469   6.885   0.013   4.144  0.5399 -0.9962 -0.3574
   43MOL   H26615470   7.040   0.250   4.239 -3.0947  1.6521  2.8728
   43MOL   H26715471   6.874   0.234   4.176  1.1981  2.5840  3.6880
   43MOL   H26815472   7.016   0.239   4.065 -1.5464  0.3349 -0.5387
   43MOL   H26915473   6.986   7.660   4.341 -0.7879 -0.2207 -1.8764
   43MOL   H27015474   7.089   0.049   4.367 -0.2796  1.3428 -0.5542
   43MOL   H27115475   6.914   0.057   4.381 -0.3385  0.9521 -0.7688
   43MOL   C27215476   6.964   7.557   3.987 -0.2835 -0.1239 -0.2122
   43MOL   C27315477   6.933   7.407   3.977  0.1006  0.7486 -0.9583
   43MOL   C27415478   6.886   7.340   4.112  0.6573 -0.4119 -0.0727
   43MOL   C27515479   6.846   7.193   4.106  0.9046 -0.2827 -0.0479
   43MOL   C27615480   6.770   7.146   4.231  0.0847 -0.3496  0.3856
   43MOL   C27715481   6.961   7.096   4.059 -0.3086  0.3093 -0.0863
   43MOL   H27815482   6.872   7.613   4.005 -0.9923 -0.2514 -3.1529
   43MOL   H27915483   6.990   7.590   3.886  0.1049 -1.7847 -0.6641
   43MOL   H28015484   7.018   7.355   3.933 -0.5830  0.8462 -2.4122
   43MOL   H28115485   6.805   7.403   4.149  0.2884  0.5787 -2.4700
   43MOL   H28215486   6.968   7.348   4.182  1.5660  2.6486 -1.3986
   43MOL   H28315487   6.772   7.194   4.026  2.6769  2.2766 -1.7182
   43MOL   H28415488   6.813   7.179   4.326 -1.3084 -0.6954  1.1544
   43MOL   H28515489   6.665   7.174   4.228  0.5947  1.4321 -1.4229
   43MOL   H28615490   6.763   7.037   4.228 -0.1758 -0.2911 -2.6664
   43MOL   H28715491   6.939   6.989   4.054  2.0330 -0.1169 -1.9584
   43MOL   H28815492   7.001   7.107   3.959 -0.2327 -1.8632 -0.3269
   43MOL   H28915493   7.048   7.100   4.124 -0.4914 -0.4912  0.2188
   43MOL   C29015494   6.813   7.395   3.871 -0.5644 -0.3362 -0.2698
   43MOL   C29115495   6.829   7.279   3.767  0.1209  0.1796  0.6355
   43MOL   C29215496   6.691   7.258   3.698  0.1307  0.4299  0.9293
   43MOL   C29315497   6.585   7.165   3.762 -0.1100  0.2778 -0.9845
   43MOL   C29415498   6.440   7.205   3.734 -0.6157 -0.8985 -0.6068
   43MOL   C29515499   6.620   7.016   3.729  0.6359  0.6672  0.2540
   43MOL   H29615500   6.714   7.397   3.915  0.1235 -1.6759  1.3991
   43MOL   H29715501   6.818   7.487   3.812 -1.1283  0.7704  1.3748
   43MOL   H29815502   6.854   7.192   3.828 -0.8981 -1.5719 -1.3731
   43MOL   H29915503   6.700   7.232   3.593 -1.4632  1.3244  0.5753
   43MOL   H30015504   6.648   7.357   3.696 -0.7391  0.0143 -1.7532
   43MOL   H30115505   6.593   7.173   3.871 -3.3870  2.4531 -0.8486
   43MOL   H30215506   6.435   7.307   3.773  3.3612 -0.7036 -0.4529
   43MOL   H30315507   6.362   7.149   3.786  0.0356  1.1984  2.7930
   43MOL   H30415508   6.426   7.201   3.626 -0.4906 -0.9871 -0.6195
   43MOL   H30515509   6.703   6.975   3.787  0.3836 -1.4731 -0.8349
   43MOL   H30615510   6.656   7.011   3.626 -0.5320  1.1372 -0.1880
   43MOL   H30715511   6.536   6.947   3.737  0.4989  0.5393 -1.9249
   43MOL   C30815512   6.944   7.306   3.658 -0.0106 -0.2860  0.6051
   43MOL   C30915513   7.054   7.194   3.668  0.6502  0.5129  0.3572
   43MOL   C31015514   7.008   7.063   3.608 -0.1898 -0.1588  0.6187
   43MOL   C31115515   7.012   6.944   3.699  0.1785 -0.0908 -0.2985
   43MOL   C31215516   6.955   6.819   3.633 -0.2191  0.6089 -0.4604
   43MOL   C31315517   7.151   6.909   3.758  0.0547  0.0829 -0.0252
   43MOL   H31415518   6.906   7.303   3.556  0.7312  1.5547  0.2487
   43MOL   H31515519   6.977   7.409   3.674  0.4066 -0.1452 -1.1151
   43MOL   H31615520   7.081   7.183   3.773 -1.0431 -1.7741  0.6074
   43MOL   H31715521   7.042   7.035   3.508 -2.6337  0.8651 -0.5469
   43MOL   H31815522   6.902   7.080   3.590  0.0089  0.5690  0.1049
   43MOL   H31915523   6.943   6.968   3.780  0.3697 -0.2006 -0.1012
   43MOL   H32015524   6.934   6.732   3.694 -1.6401  1.1928 -0.1177
   43MOL   H32115525   7.003   6.788   3.539  1.7334  1.3292  0.2599
   43MOL   H32215526   6.857   6.843   3.593  0.3548  1.2790 -1.4966
   43MOL   H32315527   7.194   6.976   3.832 -0.9114  1.2463 -0.4924
   43MOL   H32415528   7.157   6.810   3.803 -1.3713  0.7456  1.6899
   43MOL   H32515529   7.222   6.915   3.675 -1.2875  1.0006 -1.1453
   43MOL   C32615530   7.172   7.247   3.573 -0.5414  0.0038 -0.7911
   43MOL   C32715531   7.257   7.349   3.663 -0.0470 -0.1467  0.3664
   43MOL   C32815532   7.346   7.431   3.565  0.6715  0.2342  0.4321
   43MOL   C32915533   7.393   7.570   3.625  0.4872  1.0347 -0.3566
   43MOL   C33015534   7.501   7.631   3.536 -0.2301  1.1207  0.1160
   43MOL   C33115535   7.265   7.662   3.635 -0.0074  0.5367  0.6513
   43MOL   H33215536   7.128   7.295   3.486 -1.8495 -0.2591 -0.2867
   43MOL   H33315537   7.239   7.168   3.538  1.2440  0.4482  1.4643
   43MOL   H33415538   7.184   7.412   3.713 -2.1246 -0.7176 -1.8478
   43MOL   H33515539   7.425   7.367   3.527  1.0777  0.3871  1.0106
   43MOL   H33615540   7.286   7.461   3.479 -1.0483  2.1961  2.2332
   43MOL   H33715541   7.444   7.574   3.722 -0.4255  1.4860  0.1160
   43MOL   H33815542   7.456   7.659   3.440  0.8677  0.3567 -0.6368
   43MOL   H33915543   7.569   7.549   3.511 -1.1091  0.8984 -1.6378
   43MOL   H34015544   7.575   7.708   3.557  0.9699  1.1815 -3.8973
   43MOL   H34115545   7.186   7.621   3.698  0.0376  0.0858  0.4153
   43MOL   H34215546   7.285   0.008   3.679  1.7434 -0.6319  2.5739
   43MOL   H34315547   7.240   7.671   3.529  0.5764 -1.0013  0.3726
   43MOL   C34415548   7.342   7.286   3.773 -0.0192 -0.3874 -0.3109
   43MOL   C34515549   7.452   7.178   3.726 -0.0084 -0.5239  0.0052
   43MOL   C34615550   7.521   7.101   3.846 -0.0585 -0.2918 -0.3844
   43MOL   C34715551   7.643   7.011   3.822 -0.2705 -0.2241 -0.0321
   43MOL   C34815552   7.676   6.921   3.939 -0.5698  0.5676 -0.7250
   43MOL   C34915553   0.022   7.080   3.774 -0.9515 -0.0680  0.5850
   43MOL   H35015554   7.279   7.222   3.835  0.2901 -0.9522 -0.5685
   43MOL   H35115555   7.386   7.357   3.842  1.1290 -0.2962 -1.1252
   43MOL   H35215556   7.532   7.225   3.669  0.3280  0.2892  1.1272
   43MOL   H35315557   7.546   7.178   3.919 -0.2517 -1.5505  1.0459
   43MOL   H35415558   7.444   7.040   3.893 -0.1655 -1.1880 -1.7054
   43MOL   H35515559   7.609   6.937   3.749  4.3055 -0.8002 -1.7450
   43MOL   H35615560   7.699   6.982   4.026 -1.4527 -0.5298  0.3008
   43MOL   H35715561   7.589   6.866   3.976 -1.5807  0.9436 -2.4620
   43MOL   H35815562   0.009   6.858   3.916 -1.7424 -1.3449  0.0406
   43MOL   H35915563   0.076   7.126   3.857 -0.2122 -1.3835  0.8556
   43MOL   H36015564   7.745   7.146   3.693 -0.1972 -0.2262  0.1837
   43MOL   H36115565   0.093   7.013   3.726 -0.2716  0.9006  0.2277
   43MOL   H36215566   7.407   7.100   3.665 -0.3844  2.0672 -3.1194
   44MOL     C115567   5.105   0.188   6.811 -0.4116 -0.2795 -0.9615
   44MOL     C215568   5.201   0.074   6.825 -0.0697  0.2946  0.4308
   44MOL     C315569   5.319   0.129   6.915 -0.9970 -0.2283  0.3529
   44MOL     C415570   5.284   0.156   7.066 -0.5153 -0.1397 -0.3404
   44MOL     C515571   5.385   0.244   7.140  0.1931  0.4351 -0.2117
   44MOL     C615572   5.256   0.027   7.145  0.5959  0.6368  0.7731
   44MOL     H715573   5.017   0.158   6.755 -1.7726 -0.9412  1.4816
   44MOL     H815574   5.059   0.227   6.901  0.3446 -0.5033 -0.4710
   44MOL     H915575   5.146   7.751   6.879  1.7472 -0.7538  0.8712
   44MOL    H1015576   5.396   0.051   6.919 -0.3607  0.3304 -0.5955
   44MOL    H1115577   5.366   0.220   6.877  0.0483 -1.2870 -0.9931
   44MOL    H1215578   5.189   0.210   7.074 -0.9863 -0.9685 -0.3732
   44MOL    H1315579   5.410   0.337   7.089 -1.0120  0.1926 -1.2799
   44MOL    H1415580   5.344   0.255   7.240 -1.2923 -1.6280 -0.5429
   44MOL    H1515581   5.485   0.201   7.150  0.9359  1.8754 -1.2796
   44MOL    H1615582   5.185   0.058   7.223 -0.4566 -0.9982  0.4929
   44MOL    H1715583   5.338   7.730   7.197 -0.1179 -0.5253  0.8031
   44MOL    H1815584   5.211   7.703   7.083 -0.9652  0.7634  1.7058
   44MOL    H1915585   5.152   0.267   6.752 -1.3337  0.7801 -0.2835
   44MOL    C2015586   5.244   0.031   6.681  0.4128  0.1614 -0.0139
   44MOL    C2115587   5.326   7.657   6.669  0.0333  0.3133 -0.3434
   44MOL    C2215588   5.301   7.583   6.530 -0.0903 -0.3343 -0.3378
   44MOL    C2315589   5.166   7.523   6.489 -0.4212  0.1099  0.6800
   44MOL    C2415590   5.164   7.487   6.335 -0.1009 -0.1490  0.1366
   44MOL    C2515591   5.120   7.406   6.577  0.3221  0.3448  0.0555
   44MOL    H2615592   5.151   0.005   6.630 -0.0101 -1.3383  1.4737
   44MOL    H2715593   5.291   0.116   6.632  0.6015  0.0863  0.0364
   44MOL    H2815594   5.294   7.594   6.752  0.4207 -1.7412 -1.7147
   44MOL    H2915595   5.383   7.512   6.515  0.2341  0.0230 -0.2821
   44MOL    H3015596   5.316   7.657   6.451  1.0989 -0.6528 -0.4355
   44MOL    H3115597   5.101   7.609   6.509 -1.9428 -1.1651  1.3352
   44MOL    H3215598   5.242   7.413   6.317  0.2513  0.5011 -1.1100
   44MOL    H3315599   5.181   7.566   6.261 -0.0283  0.2740  0.6074
   44MOL    H3415600   5.071   7.438   6.304 -0.5736  2.4853 -2.9239
   44MOL    H3515601   5.041   7.350   6.529  2.5205 -1.9102 -1.0629
   44MOL    H3615602   5.196   7.333   6.607  0.5236  0.6070  0.1957
   44MOL    H3715603   5.089   7.445   6.674 -1.0381 -0.3417 -0.0991
   44MOL    C3815604   5.486   7.695   6.670  0.4906  0.4986 -0.0394
   44MOL    C3915605   5.571   7.573   6.684 -0.3985 -0.3430 -0.3770
   44MOL    C4015606   5.614   7.555   6.826  0.1275  0.0365 -0.2209
   44MOL    C4115607   5.515   7.527   6.932  0.1107 -0.0024  0.0172
   44MOL    C4215608   5.569   7.546   7.081 -0.2363 -0.3577  0.0391
   44MOL    C4315609   5.454   7.384   6.934 -0.2522  0.0189 -0.3148
   44MOL    H4415610   5.522   0.029   6.725  1.1285 -0.3451  0.8739
   44MOL    H4515611   5.492   7.732   6.567  2.0682 -0.0140 -0.1531
   44MOL    H4615612   5.526   7.477   6.657 -1.3066  0.7536 -2.9412
   44MOL    H4715613   5.684   7.633   6.858 -2.3872  1.5161  1.8556
   44MOL    H4815614   5.683   7.471   6.836  1.7274  1.3256 -0.2098
   44MOL    H4915615   5.440   7.606   6.931 -0.1586 -0.1774  2.7148
   44MOL    H5015616   5.641   7.467   7.102  0.4439 -0.4623 -2.5110
   44MOL    H5115617   5.620   7.641   7.101 -0.4607 -0.6547  2.1379
   44MOL    H5215618   5.492   7.546   7.158 -0.6393  2.8762 -0.2887
   44MOL    H5315619   5.385   7.381   7.018 -0.2425 -0.8267 -0.3355
   44MOL    H5415620   5.527   7.303   6.937  0.1778  0.4050 -0.1952
   44MOL    H5515621   5.394   7.388   6.843  3.1466  0.2448 -2.6406
   44MOL    C5615622   5.703   7.583   6.600 -0.5285 -0.0819 -0.0070
   44MOL    C5715623   5.680   7.558   6.444  0.2848  0.0448  0.1142
   44MOL    C5815624   5.725   7.414   6.406 -0.2566  0.0921  0.3827
   44MOL    C5915625   5.666   7.340   6.284 -0.4323  0.5611  0.4872
   44MOL    C6015626   5.513   7.322   6.286 -0.2337 -0.2732 -0.1792
   44MOL    C6115627   5.740   7.207   6.257 -0.5320  1.3287 -0.1202
   44MOL    H6215628   5.777   7.513   6.639 -0.0068  0.4656 -0.0150
   44MOL    H6315629   5.750   7.679   6.622 -1.9345  0.3452  1.1665
   44MOL    H6415630   5.575   7.558   6.416 -0.3166 -0.1331  2.2583
   44MOL    H6515631   5.832   7.401   6.385  0.1563 -1.6751  3.2170
   44MOL    H6615632   5.705   7.342   6.486  2.2051  1.0100  1.9008
   44MOL    H6715633   5.697   7.397   6.197  0.7960 -0.0370  0.5262
   44MOL    H6815634   5.470   7.260   6.207  0.6593 -0.6352 -0.3837
   44MOL    H6915635   5.467   7.421   6.282 -1.4395 -0.8452 -0.9471
   44MOL    H7015636   5.470   7.270   6.372 -3.5595 -0.1396 -1.6896
   44MOL    H7115637   5.730   7.149   6.349 -0.7797 -0.6471 -1.3794
   44MOL    H7215638   5.842   7.217   6.221 -0.1941 -1.6893 -0.0798
   44MOL    H7315639   5.687   7.156   6.177  0.5733 -1.1564  0.6781
   44MOL    C7415640   5.752   7.660   6.344 -0.6536  0.0869  0.1735
   44MOL    C7515641   5.676   0.051   6.326 -0.4647  0.4585 -0.2359
   44MOL    C7615642   5.551   0.031   6.236  0.0692 -0.3552 -1.0945
   44MOL    C7715643   5.448   0.151   6.215  0.5766  0.3171 -0.1188
   44MOL    C7815644   5.384   0.199   6.351 -0.5829 -0.3277 -0.1199
   44MOL    C7915645   5.333   0.101   6.124  0.1047 -0.3305  0.3378
   44MOL    H8015646   5.745   7.611   6.247 -1.6535  0.8568 -0.1581
   44MOL    H8115647   5.859   7.664   6.361 -0.6244 -0.5371  0.1386
   44MOL    H8215648   5.646   0.083   6.426  1.7050 -0.9632  0.9237
   44MOL    H8315649   5.578   7.732   6.144  2.1558  0.8476 -1.1978
   44MOL    H8415650   5.492   7.704   6.281  0.9782  0.7180  2.1507
   44MOL    H8515651   5.495   0.239   6.170  0.9134 -0.5201 -1.4523
   44MOL    H8615652   5.313   0.279   6.331  0.3170  0.4315 -0.3247
   44MOL    H8715653   5.447   0.254   6.422 -1.2585 -1.1459  1.1473
   44MOL    H8815654   5.337   0.124   6.415  0.8073 -0.4866  0.7539
   44MOL    H8915655   5.260   0.179   6.101  0.4581  0.3113  1.3686
   44MOL    H9015656   5.371   0.078   6.024 -0.8061 -3.5835  0.6875
   44MOL    H9115657   5.281   0.014   6.163 -1.8740  0.8179  0.3518
   44MOL    C9215658   5.759   0.164   6.262  0.1568 -0.1022 -0.1026
   44MOL    C9315659   5.902   0.183   6.322 -0.2306  0.0469 -0.1394
   44MOL    C9415660   5.958   0.312   6.274 -0.4180  0.1353  0.5189
   44MOL    C9515661   5.948   0.333   6.118  0.0258 -0.0429  0.5967
   44MOL    C9615662   5.987   0.479   6.076 -0.4708  0.2705  0.1583
   44MOL    C9715663   6.042   0.229   6.043  0.4141 -0.5702 -0.1907
   44MOL    H9815664   5.780   0.141   6.157  0.2595 -0.7412  0.0595
   44MOL    H9915665   5.707   0.259   6.254  2.0968  0.8975 -1.3498
   44MOL   H10015666   5.971   0.106   6.287  0.5093  0.1688  1.0190
   44MOL   H10115667   6.061   0.327   6.305  0.4657 -1.6995 -1.4437
   44MOL   H10215668   5.913   0.394   6.331 -1.8830 -0.4949  0.2935
   44MOL   H10315669   5.845   0.323   6.085  0.1323 -0.4532  0.3938
   44MOL   H10415670   6.078   0.517   6.123  0.4987 -0.2359 -1.2753
   44MOL   H10515671   5.907   0.547   6.103 -0.4520  0.4452 -0.2117
   44MOL   H10615672   5.995   0.497   5.968  0.3223  1.6808  0.4435
   44MOL   H10715673   6.147   0.221   6.072 -0.0929 -0.7946  1.6533
   44MOL   H10815674   6.051   0.242   5.935 -2.4255  0.9044 -0.2859
   44MOL   H10915675   6.004   0.127   6.041 -1.1875  0.0267 -0.9894
   44MOL   C11015676   5.896   0.178   6.477  0.2702  0.2280  0.7209
   44MOL   C11115677   6.023   0.217   6.552 -0.2486  0.1664  0.4754
   44MOL   C11215678   6.012   0.195   6.707 -1.1741  0.6665  0.1757
   44MOL   C11315679   5.882   0.248   6.780 -0.1133 -0.1360  0.0849
   44MOL   C11415680   5.886   0.399   6.783  0.9573  0.1538 -0.1069
   44MOL   C11515681   5.892   0.190   6.920  0.1819 -0.5673  0.4837
   44MOL   H11615682   5.862   0.079   6.509 -0.7338  0.1354 -0.5657
   44MOL   H11715683   5.812   0.235   6.517 -0.7841 -0.5612 -0.3372
   44MOL   H11815684   6.035   0.324   6.536 -0.7855  0.0788 -0.5734
   44MOL   H11915685   6.094   0.246   6.757 -2.1689  2.0341  0.4326
   44MOL   H12015686   6.024   0.087   6.722 -0.3743  0.6615 -0.4531
   44MOL   H12115687   5.791   0.213   6.730 -0.7041  0.8997  0.4353
   44MOL   H12215688   5.792   0.445   6.815  0.6174  0.2315 -1.1988
   44MOL   H12315689   5.914   0.442   6.687 -3.5773  0.1450 -1.5608
   44MOL   H12415690   5.958   0.442   6.852 -0.3488  0.6011  1.0056
   44MOL   H12515691   5.904   0.082   6.930 -0.1823 -0.5169  1.6220
   44MOL   H12615692   5.795   0.207   6.968 -0.0579  1.4216 -0.6652
   44MOL   H12715693   5.970   0.237   6.979 -1.4837  0.9232  1.5790
   44MOL   C12815694   6.151   0.148   6.509 -0.4189  0.4061  0.1767
   44MOL   C12915695   6.283   0.220   6.545 -0.5059  0.2746 -0.1841
   44MOL   C13015696   6.309   0.330   6.444 -0.4011  0.6764  0.4346
   44MOL   C13115697   6.407   0.436   6.506  0.1394  0.1846 -0.1443
   44MOL   C13215698   6.437   0.543   6.402  1.1514  0.2156  0.3486
   44MOL   C13315699   6.326   0.506   6.624 -0.3209  0.0030  0.0314
   44MOL   H13415700   6.159   0.128   6.402  1.3863  0.0248  0.3560
   44MOL   H13515701   6.154   0.043   6.539  2.0920  0.1417 -0.8561
   44MOL   H13615702   6.266   0.255   6.646  0.9573 -1.1579  0.5741
   44MOL   H13715703   6.358   0.294   6.354 -0.9444  1.3996 -0.1545
   44MOL   H13815704   6.214   0.378   6.419 -1.7288 -0.7983  2.4716
   44MOL   H13915705   6.499   0.394   6.547  0.1430  0.1511 -0.1870
   44MOL   H14015706   6.345   0.597   6.382  1.2581 -0.5014 -2.1865
   44MOL   H14115707   6.461   0.491   6.309 -1.5640 -1.1570  0.3880
   44MOL   H14215708   6.522   0.604   6.433 -0.3914  1.6404  1.9037
   44MOL   H14315709   6.240   0.563   6.591  0.9360  2.4269  0.8148
   44MOL   H14415710   6.290   0.443   6.706  0.1893 -3.0043 -1.9761
   44MOL   H14515711   6.404   0.562   6.676  1.2205  0.1585 -2.3649
   44MOL   C14615712   6.394   0.120   6.555  0.3133  0.4232 -0.2984
   44MOL   C14715713   6.397   0.044   6.697  0.2343  0.2900  0.5253
   44MOL   C14815714   6.522   0.081   6.780  0.0764  0.4990 -0.8832
   44MOL   C14915715   6.515   0.208   6.864 -0.1390 -0.4250  0.2793
   44MOL   C15015716   6.417   0.200   6.981  0.1993  0.9279  0.0702
   44MOL   C15115717   6.656   0.251   6.912  0.3309  0.6361  0.2908
   44MOL   H15215718   6.492   0.169   6.558  0.9968 -0.9321  0.0763
   44MOL   H15315719   6.382   0.064   6.462 -1.0694  0.0643  0.0875
   44MOL   H15415720   6.305   0.071   6.749  0.0448  2.4184 -0.8436
   44MOL   H15515721   6.545   7.750   6.847  0.4122  0.1655 -1.4104
   44MOL   H15615722   6.600   0.088   6.705  0.4072  3.4733 -0.2981
   44MOL   H15715723   6.475   0.289   6.803  1.3252 -0.1305 -0.3136
   44MOL   H15815724   6.322   0.150   6.967 -0.2200  1.0964  2.1122
   44MOL   H15915725   6.390   0.293   7.033 -1.0461  0.2921  0.5777
   44MOL   H16015726   6.462   0.137   7.058 -0.9075  0.5126  0.3761
   44MOL   H16115727   6.732   0.269   6.836  1.3226 -1.0121  0.8887
   44MOL   H16215728   6.701   0.182   6.983  1.3712 -0.9645 -1.8706
   44MOL   H16315729   6.644   0.346   6.965  0.0418  1.2279 -0.8226
   44MOL   C16415730   6.393   7.640   6.673 -0.1049 -0.0475  0.0256
   44MOL   C16515731   6.352   7.558   6.800 -0.4262 -0.1065  0.0659
   44MOL   C16615732   6.198   7.527   6.805 -0.0096  0.2560 -0.3905
   44MOL   C16715733   6.136   7.523   6.949  0.2346  0.1396 -0.4905
   44MOL   C16815734   6.122   7.657   7.025  0.3842 -0.4302  0.1256
   44MOL   C16915735   6.005   7.442   6.946 -0.6787 -0.1477  0.2680
   44MOL   H17015736   6.340   7.604   6.584  0.2388 -0.6382  0.0578
   44MOL   H17115737   6.495   7.605   6.654  0.1597 -0.0128  1.3585
   44MOL   H17215738   6.375   7.625   6.883 -0.9319 -1.5842  1.4378
   44MOL   H17315739   6.141   7.603   6.751  1.9266  1.6446 -0.5288
   44MOL   H17415740   6.169   7.434   6.756  0.4630  0.2387 -0.6368
   44MOL   H17515741   6.196   7.459   7.015  0.4498  1.4171  0.5703
   44MOL   H17615742   6.208   7.651   7.091 -0.9876 -2.4635  1.8023
   44MOL   H17715743   6.030   7.666   7.082  0.7987  0.0420  0.7153
   44MOL   H17815744   6.124   7.736   6.949  0.3711  0.7533  1.3438
   44MOL   H17915745   6.029   7.339   6.922 -0.3803  0.2759 -1.3091
   44MOL   H18015746   5.934   7.470   6.867 -1.0101  2.2125  1.3681
   44MOL   H18115747   5.953   7.450   7.041 -1.6245 -2.6027 -0.0021
   44MOL   C18215748   6.429   7.426   6.833 -0.5346 -0.0567 -0.4767
   44MOL   C18315749   6.581   7.429   6.872 -0.1902  0.6865 -0.2199
   44MOL   C18415750   6.608   7.494   7.013  0.2503 -0.1497 -0.1663
   44MOL   C18515751   6.752   7.487   7.060  0.4162  0.0240 -0.5498
   44MOL   C18615752   6.854   7.559   6.968 -0.5581  0.2270  0.3856
   44MOL   C18715753   6.764   7.543   7.204  0.1503 -0.0096 -0.9665
   44MOL   H18815754   6.411   7.368   6.743 -0.1755  1.3227 -1.4481
   44MOL   H18915755   6.377   7.368   6.910 -0.8479  0.0330 -0.6194
   44MOL   H19015756   6.637   7.499   6.809  0.1782 -0.6192 -1.3630
   44MOL   H19115757   6.546   7.444   7.088  0.7145  1.3979  1.2649
   44MOL   H19215758   6.573   7.597   7.013  1.1390  0.1941  3.1280
   44MOL   H19315759   6.789   7.385   7.072 -1.9306 -0.4237  3.7259
   44MOL   H19415760   6.862   7.504   6.874 -0.7736 -1.8595  1.5475
   44MOL   H19515761   6.954   7.551   7.011  0.7099  0.5348 -2.3863
   44MOL   H19615762   6.830   7.664   6.951  1.8030  0.5165 -1.5066
   44MOL   H19715763   6.747   7.651   7.206 -0.1264 -0.0599 -0.5421
   44MOL   H19815764   6.858   7.535   7.259 -0.7389 -0.8468  0.4678
   44MOL   H19915765   6.692   7.506   7.277  2.6325 -0.6943  1.2233
   44MOL   C20015766   6.643   7.294   6.841 -0.2430  0.2545 -0.7098
   44MOL   C20115767   6.656   7.256   6.690  1.0700  0.1713 -0.2336
   44MOL   C20215768   6.674   7.101   6.662  0.4333 -0.3011 -0.1923
   44MOL   C20315769   6.541   7.019   6.645 -0.2006  0.1861  0.4939
   44MOL   C20415770   6.468   7.055   6.514  0.0122  0.6363  0.3082
   44MOL   C20515771   6.590   6.865   6.638 -0.2716  0.1387 -0.2695
   44MOL   H20615772   6.579   7.227   6.897  0.7438 -2.0931 -2.3447
   44MOL   H20715773   6.741   7.275   6.885 -0.9421  0.5376  1.0334
   44MOL   H20815774   6.573   7.284   6.626  1.0336  0.6056  0.0018
   44MOL   H20915775   6.739   7.071   6.579  0.7077 -2.4752  0.7723
   44MOL   H21015776   6.719   7.061   6.752 -0.4699 -0.5849  0.1331
   44MOL   H21115777   6.472   7.036   6.727 -0.0483  2.3214  0.1999
   44MOL   H21215778   6.432   7.158   6.516  0.1663  0.8313 -3.8376
   44MOL   H21315779   6.382   6.994   6.488  0.1856  1.0214 -1.2200
   44MOL   H21415780   6.537   7.048   6.430  0.0006  2.0327  0.1620
   44MOL   H21515781   6.622   6.833   6.737  2.4079  1.9077 -0.5129
   44MOL   H21615782   6.672   6.849   6.568 -2.4072 -0.5678 -2.6777
   44MOL   H21715783   6.504   6.808   6.602 -0.5256  0.4464 -0.1524
   44MOL   C21815784   6.778   7.325   6.618  0.2699  0.2068  0.2724
   44MOL   C21915785   6.757   7.359   6.472 -0.6272  0.3388  0.0374
   44MOL   C22015786   6.897   7.394   6.410 -0.5833  0.2878 -0.1843
   44MOL   C22115787   6.986   7.268   6.387  0.1388  0.8305  0.4092
   44MOL   C22215788   6.946   7.204   6.252  0.7418  0.8303 -0.6147
   44MOL   C22315789   7.133   7.319   6.375  0.4882  0.2378 -0.4286
   44MOL   H22415790   6.790   7.419   6.671 -2.4663  1.8182 -1.8626
   44MOL   H22515791   6.862   7.256   6.630  1.0799  0.8823 -1.3470
   44MOL   H22615792   6.720   7.268   6.424  0.5136 -0.6118  0.9437
   44MOL   H22715793   6.890   7.457   6.321  2.9547 -1.7848 -2.0501
   44MOL   H22815794   6.958   7.457   6.475 -0.7555 -0.2065  0.4592
   44MOL   H22915795   6.979   7.191   6.463  1.9956 -0.7175 -0.9378
   44MOL   H23015796   7.027   7.152   6.201  1.2996  0.2548  0.8308
   44MOL   H23115797   6.867   7.133   6.278  1.2601  0.2923 -0.5080
   44MOL   H23215798   6.902   7.277   6.184 -1.0730  0.4745  0.1328
   44MOL   H23315799   7.177   7.357   6.467 -1.2890  0.6646  0.2694
   44MOL   H23415800   7.196   7.246   6.323 -1.2420 -1.6100 -0.0313
   44MOL   H23515801   7.137   7.405   6.308 -1.7697  0.3364 -0.4941
   44MOL   C23615802   6.655   7.470   6.442  0.2274 -0.2635 -0.2974
   44MOL   C23715803   6.612   7.480   6.294  0.2530 -0.8094  0.2592
   44MOL   C23815804   6.560   7.622   6.267  0.4687  0.0342  0.1348
   44MOL   C23915805   6.665   7.734   6.275  0.0226 -0.1561 -0.5438
   44MOL   C24015806   6.774   7.707   6.160 -0.2866  0.1266 -0.4425
   44MOL   C24115807   6.604   0.120   6.242 -0.2192 -0.6070  0.3313
   44MOL   H24215808   6.682   7.565   6.488  0.1431  0.1086 -1.0066
   44MOL   H24315809   6.562   7.461   6.497  0.9547  0.2987  1.0609
   44MOL   H24415810   6.704   7.451   6.243 -1.9053 -5.7236 -1.1756
   44MOL   H24515811   6.478   7.635   6.337  0.5448  1.6814 -0.0458
   44MOL   H24615812   6.506   7.634   6.173 -0.3832  0.1783  0.6374
   44MOL   H24715813   6.712   7.738   6.373 -0.9290 -0.2429 -0.0856
   44MOL   H24815814   6.732   7.711   6.060 -3.0856 -0.2420  0.6837
   44MOL   H24915815   6.827   7.613   6.174 -2.1628 -0.7623  0.9489
   44MOL   H25015816   6.844   0.038   6.163 -0.0193  0.0114 -2.6432
   44MOL   H25115817   6.688   0.190   6.247 -0.6424 -0.0301 -0.6084
   44MOL   H25215818   6.525   0.155   6.308 -0.1529 -0.2223  0.2072
   44MOL   H25315819   6.576   0.125   6.137  0.5183 -1.3380  0.0867
   44MOL   C25415820   6.509   7.365   6.262 -0.3164 -0.0313 -0.3362
   44MOL   C25515821   6.496   7.343   6.114  0.2252  0.2659  0.1157
   44MOL   C25615822   6.623   7.294   6.039  0.1872  1.2453 -0.3919
   44MOL   C25715823   6.622   7.306   5.885  0.0866 -0.4443  1.3650
   44MOL   C25815824   6.719   7.197   5.819  0.2268 -0.4561  0.4996
   44MOL   C25915825   6.671   7.449   5.840 -0.3370  0.5786  0.3441
   44MOL   H26015826   6.536   7.273   6.313 -0.2102  0.7962  1.1163
   44MOL   H26115827   6.414   7.394   6.307 -0.9602 -0.6233 -1.2824
   44MOL   H26215828   6.475   7.442   6.074 -0.0655 -0.3060 -1.1492
   44MOL   H26315829   6.643   7.191   6.066  0.8413  1.8014  1.2782
   44MOL   H26415830   6.720   7.339   6.062  0.0437  1.7450 -0.7452
   44MOL   H26515831   6.524   7.302   5.838 -0.0758  1.5290  1.4973
   44MOL   H26615832   6.669   7.102   5.837  0.2203 -1.2496 -3.1867
   44MOL   H26715833   6.816   7.196   5.868  0.2577  1.5254  0.5368
   44MOL   H26815834   6.729   7.198   5.710 -3.3376  1.4712  0.0861
   44MOL   H26915835   6.772   7.469   5.877  1.4495  0.0053 -3.8839
   44MOL   H27015836   6.671   7.436   5.732  1.2075 -0.3794  0.4354
   44MOL   H27115837   6.608   7.532   5.871 -0.3165 -0.3498  2.9578
   44MOL   C27215838   6.387   7.240   6.091  0.1079  0.1313 -0.1617
   44MOL   C27315839   6.239   7.291   6.094  0.2926  0.0286 -0.6393
   44MOL   C27415840   6.200   7.399   5.993  0.6701 -0.8442 -0.0136
   44MOL   C27515841   6.069   7.478   6.018  0.0285 -0.2814  0.9118
   44MOL   C27615842   6.028   7.574   5.900 -0.0045  0.4840  0.4063
   44MOL   C27715843   6.103   7.576   6.135  0.0732 -0.6825 -0.0577
   44MOL   H27815844   6.400   7.184   5.999 -1.1652  3.0104 -2.1758
   44MOL   H27915845   6.402   7.166   6.169 -0.4519  1.2686  1.0537
   44MOL   H28015846   6.235   7.326   6.198 -1.2972  0.0330 -0.6912
   44MOL   H28115847   6.181   7.348   5.899 -1.9981 -0.9885  0.5586
   44MOL   H28215848   6.275   7.476   5.974 -1.8896  1.1814 -2.4139
   44MOL   H28315849   5.979   7.419   6.035  0.4509 -1.3073 -0.3370
   44MOL   H28415850   5.995   7.513   5.815 -1.0510  0.6928  0.6649
   44MOL   H28515851   5.935   7.621   5.930  0.9691  2.1844  0.7953
   44MOL   H28615852   6.099   7.652   5.873  0.4282 -0.2108 -0.4939
   44MOL   H28715853   6.019   7.643   6.150  0.4298 -0.6453  1.8488
   44MOL   H28815854   6.129   7.520   6.225 -0.1117 -2.0044 -0.8001
   44MOL   H28915855   6.176   7.651   6.105 -2.2591  1.2479 -1.0859
   44MOL   C29015856   6.139   7.167   6.075  1.0431 -0.5458 -0.4272
   44MOL   C29115857   6.131   7.093   5.939  0.2967  0.0205 -0.3795
   44MOL   C29215858   6.162   6.941   5.960  0.3660  0.2837 -0.2708
   44MOL   C29315859   6.058   6.861   6.041  0.3645  0.2505  0.0758
   44MOL   C29415860   5.947   6.805   5.957 -0.3237  0.0104 -0.8653
   44MOL   C29515861   6.122   6.756   6.140  0.0094 -0.5504  0.0882
   44MOL   H29615862   6.162   7.101   6.159  0.2536  0.9911  1.0278
   44MOL   H29715863   6.039   7.201   6.103  0.5324 -0.9041 -1.7572
   44MOL   H29815864   6.219   7.128   5.885  1.1593 -2.5346 -0.6859
   44MOL   H29915865   6.257   6.936   6.014 -0.9947  1.7041  2.3377
   44MOL   H30015866   6.190   6.901   5.863  1.5201  3.5359 -1.3498
   44MOL   H30115867   6.012   6.930   6.112  2.0309  2.8652 -1.2695
   44MOL   H30215868   5.863   6.874   5.946 -0.0427  0.5996  0.6225
   44MOL   H30315869   5.900   6.725   6.014  1.4829 -0.2851  0.2477
   44MOL   H30415870   5.987   6.766   5.863  0.9791 -0.4373 -0.1297
   44MOL   H30515871   6.200   6.809   6.194  0.0675 -0.3185 -0.2264
   44MOL   H30615872   6.156   6.667   6.088  1.2988 -0.4689  0.7873
   44MOL   H30715873   6.050   6.729   6.218  0.1616  0.5251  0.6157
   44MOL   C30815874   6.004   7.115   5.854 -0.1585 -0.0448  0.3884
   44MOL   C30915875   6.020   7.080   5.703  0.2589 -0.2987 -0.5267
   44MOL   C31015876   5.880   7.027   5.639 -0.4278 -0.0170 -0.3874
   44MOL   C31115877   5.863   6.999   5.492 -0.0919  0.0682  0.7772
   44MOL   C31215878   5.912   6.859   5.446 -0.0430  0.3020  0.4991
   44MOL   C31315879   5.720   7.001   5.442  0.2196 -0.1938 -0.6984
   44MOL   H31415880   5.925   7.069   5.913 -0.3473 -0.6842 -0.3544
   44MOL   H31515881   5.986   7.221   5.873 -2.0264 -0.2300 -0.2727
   44MOL   H31615882   6.093   7.000   5.705 -2.1434 -2.5342  0.8230
   44MOL   H31715883   5.816   7.113   5.654 -0.1502  0.1551 -0.1747
   44MOL   H31815884   5.844   6.944   5.700 -1.0959 -0.4713 -1.3906
   44MOL   H31915885   5.915   7.074   5.432 -0.0162 -0.9159 -0.4093
   44MOL   H32015886   5.927   6.857   5.338 -2.6475 -0.8963  0.1169
   44MOL   H32115887   5.851   6.771   5.466 -0.8839  0.5390 -1.0053
   44MOL   H32215888   6.011   6.853   5.492 -0.5472  0.5219  1.6341
   44MOL   H32315889   5.654   6.944   5.509  0.3854 -0.8435 -1.0822
   44MOL   H32415890   5.689   7.104   5.427  1.0494  0.5537  2.2624
   44MOL   H32515891   5.713   6.961   5.341 -1.2631  1.1744 -1.1646
   44MOL   C32615892   6.087   7.203   5.629  0.2241  0.0461 -0.4616
   44MOL   C32715893   6.229   7.166   5.581 -0.1821 -0.4903 -0.2450
   44MOL   C32815894   6.312   7.292   5.552  0.1177 -0.2768 -0.1675
   44MOL   C32915895   6.252   7.413   5.477  0.5591  0.2885 -0.6982
   44MOL   C33015896   6.360   7.526   5.470  0.6580 -0.3290 -0.1326
   44MOL   C33115897   6.204   7.386   5.334  0.3906 -0.1682  0.8452
   44MOL   H33215898   6.100   7.285   5.699  2.2752 -1.5092  1.0487
   44MOL   H33315899   6.031   7.241   5.543 -0.6821 -0.3354 -0.0517
   44MOL   H33415900   6.287   7.120   5.661  0.5728  0.9092  0.0228
   44MOL   H33515901   6.329   7.333   5.651 -0.4108 -0.1772 -0.1157
   44MOL   H33615902   6.409   7.275   5.505  0.9349  1.8307  0.7099
   44MOL   H33715903   6.165   7.453   5.528  0.6853  1.2266 -1.2019
   44MOL   H33815904   6.374   7.574   5.566 -1.2471  0.5019 -0.2395
   44MOL   H33915905   6.326   7.607   5.404 -2.0684 -1.4039 -0.0929
   44MOL   H34015906   6.457   7.492   5.433  0.9867  0.3257  0.1151
   44MOL   H34115907   6.284   7.357   5.267 -0.7883  0.6711 -0.9535
   44MOL   H34215908   6.140   7.299   5.315  0.2098  0.1661 -0.1193
   44MOL   H34315909   6.168   7.480   5.293  1.9472 -0.3405 -0.9790
   44MOL   C34415910   6.234   7.079   5.456  0.1328  0.0145 -0.5211
   44MOL   C34515911   6.302   6.947   5.482 -0.0804  0.3615  0.0674
   44MOL   C34615912   6.458   6.959   5.501  0.8018  0.4718 -0.3572
   44MOL   C34715913   6.526   6.842   5.567  0.2824  0.1424  0.4637
   44MOL   C34815914   6.501   6.838   5.722  0.0580 -0.1743 -0.4574
   44MOL   C34915915   6.672   6.849   5.542  0.1499 -0.2417 -0.3178
   44MOL   H35015916   6.286   7.121   5.370  0.3135  2.6096  0.8098
   44MOL   H35115917   6.133   7.060   5.421  0.3458 -1.2592 -0.4743
   44MOL   H35215918   6.281   6.881   5.398 -0.2680  0.7513 -0.1895
   44MOL   H35315919   6.506   6.988   5.408  1.6917 -0.8862 -0.3279
   44MOL   H35415920   6.471   7.034   5.580  0.5586  0.7615 -0.5895
   44MOL   H35515921   6.490   6.747   5.530 -0.7515  0.4708  0.6219
   44MOL   H35615922   6.541   6.751   5.774  1.3881  0.7099  0.0253
   44MOL   H35715923   6.551   6.927   5.760 -2.0375  1.7005 -2.0157
   44MOL   H35815924   6.395   6.852   5.742  0.4005  0.5764  0.8894
   44MOL   H35915925   6.720   6.944   5.565  0.9340 -0.6802 -0.1324
   44MOL   H36015926   6.697   6.824   5.439 -1.0348  1.5861 -1.0622
   44MOL   H36115927   6.721   6.770   5.600 -1.3900 -1.6142 -0.8342
   44MOL   H36215928   6.265   6.903   5.575  2.0918 -0.1967  0.7002
   45MOL     C115929   0.014   1.479   4.765  0.0775 -0.9418 -0.5951
   45MOL     C215930   7.722   1.342   4.720  0.0999  0.3487  0.0727
   45MOL     C315931   0.059   1.234   4.795  0.2563  0.2558 -0.7541
   45MOL     C415932   7.744   1.193   4.932 -0.4830 -0.1527 -0.1800
   45MOL     C515933   0.095   1.136   5.026  0.3783  0.2277  0.3044
   45MOL     C615934   7.623   1.099   4.915 -0.4072 -0.7073  0.8041
   45MOL     H715935   0.012   1.500   4.872  0.0432 -0.0972 -0.7565
   45MOL     H815936   0.112   1.501   4.723  0.0707  0.2589  0.0105
   45MOL     H915937   7.616   1.326   4.742 -0.2205  0.5813 -1.2575
   45MOL    H1015938   0.065   1.144   4.734  0.5126 -0.8048  0.7805
   45MOL    H1115939   0.159   1.276   4.803  0.0469  0.5792  0.3619
   45MOL    H1215940   7.697   1.280   4.979 -0.8866  0.2935 -1.3863
   45MOL    H1315941   0.172   1.209   5.051  1.7276 -1.3387  0.8974
   45MOL    H1415942   0.062   1.085   5.116  2.0542 -0.0247  0.7957
   45MOL    H1515943   0.142   1.057   4.967 -2.4406 -0.4058 -1.1941
   45MOL    H1615944   7.547   1.109   4.993 -4.7462  4.0261 -3.6079
   45MOL    H1715945   7.654   0.995   4.921  4.5852  0.6991  1.2503
   45MOL    H1815946   7.564   1.115   4.825  0.7849 -1.4625 -0.1197
   45MOL    H1915947   7.692   1.552   4.734 -1.1894 -0.9223  2.3025
   45MOL    C2015948   7.741   1.329   4.564 -0.2929 -0.5062 -0.3293
   45MOL    C2115949   7.685   1.202   4.498  0.0284 -0.1397  0.3610
   45MOL    C2215950   7.591   1.242   4.386 -1.3351  0.8372  0.7091
   45MOL    C2315951   7.453   1.308   4.431 -0.3895  0.6352 -0.4242
   45MOL    C2415952   7.374   1.384   4.325  0.3080 -0.2960  0.0052
   45MOL    C2515953   7.367   1.217   4.521  0.0645  0.2842 -0.1542
   45MOL    H2615954   7.688   1.419   4.532 -0.1721 -0.8054 -1.3784
   45MOL    H2715955   0.094   1.348   4.545 -0.3588 -1.0153 -1.2248
   45MOL    H2815956   7.624   1.139   4.563  0.1569 -0.3076  0.3231
   45MOL    H2915957   7.558   1.158   4.326 -1.2740  1.8375 -0.7517
   45MOL    H3015958   7.644   1.308   4.318 -0.2430  0.0626  0.7959
   45MOL    H3115959   7.485   1.392   4.493 -0.0701  0.2440 -0.0536
   45MOL    H3215960   7.342   1.328   4.237 -1.5379 -3.0637  2.3500
   45MOL    H3315961   7.448   1.459   4.297  0.0264 -0.4093 -1.0759
   45MOL    H3415962   7.297   1.433   4.384  0.2585 -2.9050  2.1986
   45MOL    H3515963   7.264   1.249   4.533  0.4935  1.2063  1.2135
   45MOL    H3615964   7.357   1.113   4.491  0.9622  1.0832 -3.3953
   45MOL    H3715965   7.411   1.195   4.618  1.7046 -3.0756 -1.5803
   45MOL    C3815966   0.044   1.113   4.441  0.0950  0.5126 -0.6513
   45MOL    C3915967   0.007   0.963   4.447  0.0584  0.2006 -0.1326
   45MOL    C4015968   0.038   0.906   4.586 -0.4576  1.4074  0.0903
   45MOL    C4115969   0.035   0.752   4.606  0.2155  0.1098  0.0300
   45MOL    C4215970   7.653   0.692   4.569 -0.2710 -1.1985 -0.1961
   45MOL    C4315971   0.057   0.714   4.751  0.5718  0.4883  0.5233
   45MOL    H4415972   0.142   1.127   4.487  0.1610  4.1979 -1.7697
   45MOL    H4515973   0.070   1.145   4.340 -3.8694 -0.0882 -1.9459
   45MOL    H4615974   7.654   0.949   4.421  0.1548 -1.3185  0.2410
   45MOL    H4715975   7.711   0.954   4.644  0.7183  0.2175  2.7689
   45MOL    H4815976   0.139   0.936   4.614  0.2982 -0.0471 -1.0103
   45MOL    H4915977   0.105   0.694   4.546 -1.1746 -1.8761  0.2697
   45MOL    H5015978   7.618   0.712   4.468  1.7443 -0.5300 -0.7776
   45MOL    H5115979   7.641   0.587   4.597 -2.0800 -0.3541  2.3981
   45MOL    H5215980   7.588   0.734   4.646  1.3271  1.5568 -0.3086
   45MOL    H5315981   0.162   0.725   4.779  1.2573 -1.1907 -1.2294
   45MOL    H5415982   0.036   0.609   4.775  2.3161  0.2069  0.9141
   45MOL    H5515983   7.738   0.769   4.812  0.5614  0.6089  0.4027
   45MOL    C5615984   0.089   0.882   4.338  0.8092  0.4823 -0.0929
   45MOL    C5715985   0.044   0.912   4.194 -0.7078  0.2678 -0.0276
   45MOL    C5815986   7.684   0.820   4.159 -0.1350 -0.3823 -0.1239
   45MOL    C5915987   7.611   0.829   4.029  0.2288 -0.1901 -0.1389
   45MOL    C6015988   7.548   0.965   3.989 -0.1645 -0.1732  0.4166
   45MOL    C6115989   7.504   0.723   4.031 -0.0723 -0.8858  0.5265
   45MOL    H6215990   0.098   0.774   4.351  0.2320  0.2514 -1.5831
   45MOL    H6315991   0.194   0.904   4.357  1.3548 -0.8775 -1.4068
   45MOL    H6415992   0.012   1.016   4.186 -2.2251  0.1234  3.1331
   45MOL    H6515993   7.733   0.724   4.167  1.8581  0.5690 -0.7080
   45MOL    H6615994   7.619   0.830   4.246  0.8723  0.1039  0.5846
   45MOL    H6715995   7.675   0.804   3.944  2.0189 -0.5649  1.2765
   45MOL    H6815996   7.530   0.963   3.881  2.1288  1.8724 -0.0516
   45MOL    H6915997   7.604   1.054   4.015 -1.0213  0.0478  1.5106
   45MOL    H7015998   7.448   0.967   4.031 -0.8062 -0.3127 -1.0665
   45MOL    H7115999   7.554   0.626   4.041  1.0968 -0.0733  2.8182
   45MOL    H7216000   7.447   0.721   3.938  0.6480  1.0134  0.0318
   45MOL    H7316001   7.441   0.716   4.119  0.6027  1.4990  1.2281
   45MOL    C7416002   0.168   0.913   4.096  0.8312 -0.2560  0.1395
   45MOL    C7516003   0.263   1.034   4.109  0.7087  0.3551  0.1770
   45MOL    C7616004   0.210   1.155   4.026  0.7393 -0.0063 -0.0882
   45MOL    C7716005   0.290   1.285   4.027 -0.2026  0.7023 -0.1989
   45MOL    C7816006   0.278   1.339   4.176 -0.1249 -0.5830 -0.3766
   45MOL    C7916007   0.216   1.386   3.923 -0.7019  0.4892 -0.1649
   45MOL    H8016008   0.136   0.904   3.992  1.3881 -1.0032  0.0214
   45MOL    H8116009   0.224   0.821   4.115 -0.8890 -1.2247  0.6060
   45MOL    H8216010   0.286   1.062   4.212  3.3696  0.7212 -0.4568
   45MOL    H8316011   0.171   1.122   3.930  0.3251  1.7642 -0.5522
   45MOL    H8416012   0.114   1.177   4.073  0.2340  1.5613 -1.7850
   45MOL    H8516013   0.396   1.280   3.999  0.2879  1.4776  1.4729
   45MOL    H8616014   0.341   1.425   4.199  0.0310 -0.5689 -0.8557
   45MOL    H8716015   0.319   1.273   4.252 -0.2942  0.3343  0.5117
   45MOL    H8816016   0.171   1.352   4.191 -0.2452 -1.8177 -0.0737
   45MOL    H8916017   0.216   1.346   3.821 -0.7717 -0.1746  0.0910
   45MOL    H9016018   0.113   1.411   3.949  0.2773  0.5727  4.0265
   45MOL    H9116019   0.270   1.480   3.929 -0.0607  0.0511  1.1512
   45MOL    C9216020   0.395   0.978   4.043  0.5209  0.0430  0.6576
   45MOL    C9316021   0.487   0.902   4.141  0.3153 -0.1485  0.4946
   45MOL    C9416022   0.571   0.806   4.061 -0.7649  0.3689  0.0171
   45MOL    C9516023   0.505   0.673   4.012  0.0313 -0.3697 -0.6516
   45MOL    C9616024   0.597   0.601   3.910  0.0702  0.7652 -0.6288
   45MOL    C9716025   0.475   0.581   4.135 -0.3287  0.3824  0.1999
   45MOL    H9816026   0.371   0.923   3.952  1.1016 -2.3143  1.8915
   45MOL    H9916027   0.458   1.057   4.003  2.6511 -2.1133 -0.3726
   45MOL   H10016028   0.425   0.847   4.212 -0.2459 -2.7607 -1.9514
   45MOL   H10116029   0.659   0.784   4.122 -0.0726 -0.6963 -1.3627
   45MOL   H10216030   0.610   0.862   3.976 -1.9863  1.0544 -0.1054
   45MOL   H10316031   0.411   0.690   3.959  1.4090  1.7906 -2.4664
   45MOL   H10416032   0.699   0.596   3.946 -0.6385 -1.3661  1.1924
   45MOL   H10516033   0.607   0.659   3.818 -1.7513  2.0247 -0.0591
   45MOL   H10616034   0.563   0.499   3.890 -1.3685  0.8236  1.3195
   45MOL   H10716035   0.388   0.615   4.192  0.2580  2.1355  0.0842
   45MOL   H10816036   0.554   0.557   4.206  0.6372 -2.9863 -1.8839
   45MOL   H10916037   0.461   0.480   4.096  0.9653 -0.6889  2.4146
   45MOL   C11016038   0.585   1.003   4.211 -0.4806  0.2987 -0.1920
   45MOL   C11116039   0.649   0.958   4.343  0.1458 -0.4972  0.3790
   45MOL   C11216040   0.774   1.053   4.357 -0.2556  0.4292  0.2692
   45MOL   C11316041   0.917   0.981   4.337  0.0071  0.1591 -0.2545
   45MOL   C11416042   1.013   1.093   4.373 -0.5975  0.4785  0.5045
   45MOL   C11516043   0.938   0.915   4.204 -0.2084  0.8353 -0.1387
   45MOL   H11616044   0.527   1.091   4.238 -0.7965  0.3859 -1.1435
   45MOL   H11716045   0.654   1.040   4.135 -0.1805  0.8013  0.3265
   45MOL   H11816046   0.687   0.857   4.329  2.4484  0.4431 -0.3789
   45MOL   H11916047   0.778   1.105   4.452 -0.7509 -2.8418  2.1413
   45MOL   H12016048   0.767   1.137   4.288  0.2817 -2.5702 -3.6733
   45MOL   H12116049   0.925   0.904   4.413 -1.2224 -0.2694 -0.5472
   45MOL   H12216050   1.111   1.087   4.325  0.0239  0.1036  1.7992
   45MOL   H12316051   1.034   1.090   4.480  2.6107 -1.9197 -0.0824
   45MOL   H12416052   0.981   1.192   4.341 -0.0354  1.5493  3.1106
   45MOL   H12516053   0.877   0.824   4.202  1.2614 -0.1470 -1.9799
   45MOL   H12616054   1.045   0.902   4.188 -0.1642 -0.3951  1.0404
   45MOL   H12716055   0.910   0.989   4.129  1.5713  2.2414  0.5507
   45MOL   C12816056   0.548   0.961   4.463  0.4126  1.0123 -0.2722
   45MOL   C12916057   0.609   0.885   4.583  0.0940 -0.5223  0.0459
   45MOL   C13016058   0.536   0.755   4.624 -0.2863 -0.2062  0.1431
   45MOL   C13116059   0.551   0.645   4.518  0.7975 -0.1432 -0.1609
   45MOL   C13216060   0.688   0.566   4.532 -0.2307  0.5516 -0.1609
   45MOL   C13316061   0.438   0.554   4.524 -0.0104  0.1745 -0.3744
   45MOL   H13416062   0.453   0.913   4.440  0.6672  0.3835 -0.0371
   45MOL   H13516063   0.529   1.066   4.485  0.4442  0.9647 -0.0132
   45MOL   H13616064   0.714   0.862   4.564 -0.2788 -1.7592 -0.5231
   45MOL   H13716065   0.574   0.707   4.714 -1.4386 -5.1876 -1.7969
   45MOL   H13816066   0.435   0.780   4.655 -0.1901 -3.0267  2.9978
   45MOL   H13916067   0.543   0.686   4.418  2.6968  0.2968 -0.1559
   45MOL   H14016068   0.773   0.624   4.497  0.2855 -0.5601 -0.7792
   45MOL   H14116069   0.682   0.470   4.480 -0.1828  0.9338 -0.8744
   45MOL   H14216070   0.710   0.550   4.637  1.7156  0.5969 -0.5457
   45MOL   H14316071   0.436   0.466   4.458 -0.1560 -0.7511  0.8428
   45MOL   H14416072   0.416   0.529   4.628 -1.1881 -0.4097 -0.7565
   45MOL   H14516073   0.343   0.598   4.496 -0.3749  1.1041  2.2313
   45MOL   C14616074   0.608   0.987   4.706  1.0366 -0.5148  0.5590
   45MOL   C14716075   0.706   0.968   4.823 -0.1004  0.1462 -0.6955
   45MOL   C14816076   0.661   1.027   4.955  0.2528  0.4109  0.3806
   45MOL   C14916077   0.625   1.174   4.982 -0.9602 -0.0898  0.0383
   45MOL   C15016078   0.476   1.201   4.999  0.2107  0.2458 -0.1745
   45MOL   C15116079   0.706   1.226   5.094  0.2634 -0.0502 -0.2291
   45MOL   H15216080   0.506   0.991   4.742  0.7051 -1.3089 -0.2598
   45MOL   H15316081   0.610   1.091   4.673 -2.1119 -0.3678  0.7044
   45MOL   H15416082   0.712   0.862   4.850 -0.5432  0.1651 -0.5159
   45MOL   H15516083   0.574   0.972   4.990 -0.2656 -0.4094 -2.1181
   45MOL   H15616084   0.734   0.995   5.030 -0.9992 -0.9213  1.0471
   45MOL   H15716085   0.659   1.227   4.893  0.8103 -0.6293  0.3804
   45MOL   H15816086   0.440   1.156   5.091 -1.4039  1.2081 -0.3107
   45MOL   H15916087   0.416   1.163   4.916 -0.3409 -0.2455  0.4428
   45MOL   H16016088   0.439   1.304   4.998 -4.1003 -1.2015 -1.6753
   45MOL   H16116089   0.696   1.166   5.184 -1.7024 -2.3011 -1.8884
   45MOL   H16216090   0.677   1.328   5.120  2.1983 -0.0012  1.9154
   45MOL   H16316091   0.813   1.231   5.074  0.2682  2.2361  0.1840
   45MOL   C16416092   0.841   1.019   4.776  0.2937  0.1156 -0.1359
   45MOL   C16516093   0.962   0.924   4.811 -0.7005  0.9392 -0.9824
   45MOL   C16616094   0.973   0.801   4.714 -0.3770  0.3409 -0.5337
   45MOL   C16716095   1.059   0.681   4.759  0.6929 -0.2455 -0.5182
   45MOL   C16816096   1.024   0.619   4.896 -0.5985 -0.2154  0.3612
   45MOL   C16916097   1.064   0.578   4.644 -0.7887  0.1408 -0.7943
   45MOL   H17016098   0.856   1.024   4.668  2.7110 -2.4217  0.0108
   45MOL   H17116099   0.854   1.122   4.811 -0.6337  0.3368 -0.4407
   45MOL   H17216100   0.944   0.885   4.911 -0.2040 -0.4504 -1.4256
   45MOL   H17316101   0.876   0.753   4.699 -0.2372 -1.3023  3.2768
   45MOL   H17416102   1.004   0.840   4.617 -0.9565  0.0262 -0.8476
   45MOL   H17516103   1.162   0.718   4.766  0.6836 -0.1381 -0.9249
   45MOL   H17616104   1.022   0.681   4.986  1.4368  0.6873 -0.1962
   45MOL   H17716105   1.108   0.551   4.912  0.5495  0.7250 -1.4386
   45MOL   H17816106   0.933   0.559   4.900 -0.9534  0.3613  1.0959
   45MOL   H17916107   1.072   0.633   4.551 -0.8716  1.0180 -0.2830
   45MOL   H18016108   0.979   0.509   4.644  0.3656 -1.3769 -3.6627
   45MOL   H18116109   1.151   0.512   4.654 -0.5362  0.5989  0.1347
   45MOL   C18216110   1.096   0.998   4.832  0.1891 -0.2778 -0.2169
   45MOL   C18316111   1.115   1.064   4.970 -0.0698 -0.5892 -1.1886
   45MOL   C18416112   1.161   0.961   5.084 -1.2244 -0.3339  0.5522
   45MOL   C18516113   1.128   0.993   5.232 -0.1289  0.3307 -0.1543
   45MOL   C18616114   0.982   1.017   5.271 -0.0168 -0.1751 -0.9055
   45MOL   C18716115   1.192   0.879   5.319  0.0764 -0.2554  0.4288
   45MOL   H18816116   1.102   1.072   4.752 -1.4931 -0.2500 -0.3380
   45MOL   H18916117   1.177   0.926   4.823 -0.8508 -1.8134  2.0815
   45MOL   H19016118   1.021   1.108   5.004 -1.0204 -2.6266 -1.0520
   45MOL   H19116119   1.265   0.935   5.062 -1.3397  0.5343 -1.1450
   45MOL   H19216120   1.121   0.863   5.060  0.4639 -0.9462  0.1419
   45MOL   H19316121   1.179   1.087   5.252  1.7958 -0.5913 -0.5676
   45MOL   H19416122   0.925   0.931   5.237 -3.9912  2.7984 -2.0723
   45MOL   H19516123   0.945   1.107   5.223  3.5312  0.8355 -1.9668
   45MOL   H19616124   0.988   1.022   5.380  0.8880 -0.3261 -0.9416
   45MOL   H19716125   1.197   0.918   5.420 -3.8907 -0.0736  0.6388
   45MOL   H19816126   1.298   0.860   5.304  0.2967  2.0081 -1.2453
   45MOL   H19916127   1.127   0.793   5.332 -0.1389  0.1302  2.0284
   45MOL   C20016128   1.211   1.183   4.963 -0.1372 -0.1528 -0.4687
   45MOL   C20116129   1.182   1.304   4.867 -0.6240 -0.5003  1.2292
   45MOL   C20216130   1.304   1.389   4.826 -0.7418  0.5439 -0.4602
   45MOL   C20316131   1.384   1.317   4.711  0.0208  0.7428  0.3150
   45MOL   C20416132   1.331   1.351   4.566 -0.1123  0.0208  0.1872
   45MOL   C20516133   1.532   1.361   4.723 -0.0863 -0.1719  0.1419
   45MOL   H20616134   1.307   1.142   4.933  0.7461  0.7502  1.0854
   45MOL   H20716135   1.228   1.225   5.062  0.2092 -1.2358 -0.0646
   45MOL   H20816136   1.135   1.261   4.778 -0.3596 -2.0496  1.8150
   45MOL   H20916137   1.278   1.488   4.788  1.0494  0.9822 -0.5555
   45MOL   H21016138   1.369   1.397   4.913 -2.2914 -2.0639  1.0188
   45MOL   H21116139   1.381   1.208   4.721  1.2790  0.4385 -2.2922
   45MOL   H21216140   1.341   1.459   4.557  1.6788  0.0330  1.9400
   45MOL   H21316141   1.229   1.314   4.552 -1.2028  2.6634  0.9263
   45MOL   H21416142   1.398   1.309   4.491  1.2790  1.6232  0.5068
   45MOL   H21516143   1.585   1.343   4.630 -2.8480  2.2929 -1.9945
   45MOL   H21616144   1.567   1.307   4.812  0.2370 -0.7736 -0.3481
   45MOL   H21716145   1.516   1.467   4.742  1.8205  0.0887  0.4081
   45MOL   C21816146   1.075   1.398   4.938  0.3687  0.4104  0.1087
   45MOL   C21916147   1.010   1.501   4.836  0.1615 -0.5548 -0.9807
   45MOL   C22016148   0.968   1.635   4.904  0.0235  0.1078  0.4360
   45MOL   C22116149   1.078   1.731   4.958 -0.7461 -0.4802  0.0218
   45MOL   C22216150   1.174   1.777   4.850  0.3186  0.3463 -0.3266
   45MOL   C22316151   1.024   1.853   5.022 -0.4554 -0.4232 -1.0469
   45MOL   H22416152   0.999   1.343   4.994  1.3914 -1.3593 -0.1849
   45MOL   H22516153   1.131   1.462   5.006  1.1310 -0.3198  0.1823
   45MOL   H22616154   1.082   1.531   4.760 -0.7093  2.1682 -0.7836
   45MOL   H22716155   0.917   1.686   4.821 -1.0243 -1.3141  0.1961
   45MOL   H22816156   0.892   1.627   4.982 -1.3260 -0.1342 -0.8916
   45MOL   H22916157   1.142   1.693   5.037 -0.9285 -0.3396  0.2369
   45MOL   H23016158   1.262   1.810   4.904  1.3300 -0.5123 -1.4202
   45MOL   H23116159   1.199   1.687   4.794 -3.5624 -0.5971 -0.7227
   45MOL   H23216160   1.135   1.861   4.792 -1.6098 -0.4423 -0.2327
   45MOL   H23316161   1.104   1.926   5.034  0.9937 -1.8951 -1.6057
   45MOL   H23416162   0.954   1.906   4.957 -0.0240  0.6987 -0.6133
   45MOL   H23516163   0.980   1.831   5.120 -1.8663  0.3293 -1.4925
   45MOL   C23616164   0.899   1.430   4.758  0.6320  0.0504 -0.4138
   45MOL   C23716165   0.831   1.494   4.634 -0.4393  0.6703 -1.1179
   45MOL   C23816166   0.702   1.415   4.601 -0.0625 -0.4400 -0.3415
   45MOL   C23916167   0.582   1.467   4.687  0.5726  0.9714  0.2785
   45MOL   C24016168   0.535   1.611   4.663 -1.2611  0.2378 -0.3568
   45MOL   C24116169   0.463   1.374   4.666 -0.0420  0.0138 -0.2459
   45MOL   H24216170   0.822   1.412   4.834  0.2969  0.8837 -0.5507
   45MOL   H24316171   0.924   1.330   4.723 -1.1212 -0.5663  0.0033
   45MOL   H24416172   0.804   1.594   4.668 -1.3745  0.0043  0.1542
   45MOL   H24516173   0.728   1.310   4.618 -0.7611 -0.3885  1.1135
   45MOL   H24616174   0.685   1.418   4.494 -2.0217 -2.9359 -0.1561
   45MOL   H24716175   0.608   1.454   4.792  1.3826 -2.0246 -0.2484
   45MOL   H24816176   0.442   1.622   4.718 -0.5387  0.9412  0.7400
   45MOL   H24916177   0.507   1.648   4.564 -1.9749  2.0882  0.5258
   45MOL   H25016178   0.609   1.680   4.703  1.1613 -0.7875 -2.8864
   45MOL   H25116179   0.495   1.270   4.676  1.5884  0.3548 -1.5535
   45MOL   H25216180   0.432   1.385   4.562 -3.3718 -3.7138  0.2629
   45MOL   H25316181   0.375   1.394   4.726  0.1633 -2.6005  0.9779
   45MOL   C25416182   0.920   1.502   4.511  0.3583  0.6294 -0.7150
   45MOL   C25516183   0.915   1.641   4.438 -0.0722  0.6842  0.1882
   45MOL   C25616184   0.986   1.751   4.515 -0.3724  0.3907 -0.1481
   45MOL   C25716185   0.962   1.891   4.464 -0.3446 -0.0036  0.0486
   45MOL   C25816186   1.060   1.988   4.522 -0.4725  0.3334 -0.1374
   45MOL   C25916187   0.816   1.938   4.485  0.3687  0.0633  0.7408
   45MOL   H26016188   1.020   1.463   4.528 -0.0219  0.0126  0.1103
   45MOL   H26116189   0.883   1.432   4.436  2.3054 -0.3865 -0.7575
   45MOL   H26216190   0.809   1.664   4.432  0.3109  2.3382 -0.5745
   45MOL   H26316191   1.090   1.719   4.506 -0.9387 -1.0044 -2.1197
   45MOL   H26416192   0.977   1.740   4.623  1.0994  1.4859  0.1008
   45MOL   H26516193   0.974   1.891   4.355 -1.4830 -1.2580 -0.0872
   45MOL   H26616194   1.161   1.947   4.516  0.1872  1.2056  3.5237
   45MOL   H26716195   1.047   2.011   4.628  0.4832  0.3936 -0.0326
   45MOL   H26816196   1.073   2.081   4.468 -1.1867  0.9974  0.8070
   45MOL   H26916197   0.815   2.046   4.467 -1.6830 -0.2795 -1.6111
   45MOL   H27016198   0.748   1.897   4.410 -2.0860 -0.7349  3.3147
   45MOL   H27116199   0.785   1.925   4.588 -0.0902  1.0269  0.7305
   45MOL   C27216200   0.987   1.611   4.301  0.0745 -0.1438 -0.0618
   45MOL   C27316201   0.903   1.556   4.181 -0.1550 -0.0616  0.2892
   45MOL   C27416202   0.796   1.665   4.127 -0.8497 -0.3642  0.0177
   45MOL   C27516203   0.654   1.616   4.104 -0.0730  0.2494  0.5423
   45MOL   C27616204   0.570   1.707   4.011  0.3528 -0.5359 -0.1738
   45MOL   C27716205   0.588   1.604   4.243 -0.4549  0.1123  0.1666
   45MOL   H27816206   1.022   1.710   4.273  0.6736 -0.3062  0.0993
   45MOL   H27916207   1.080   1.555   4.312  0.6208  0.7423 -0.1309
   45MOL   H28016208   0.843   1.472   4.218  2.2591 -1.7520  0.4558
   45MOL   H28116209   0.841   1.684   4.030 -0.4736  0.4000  0.3359
   45MOL   H28216210   0.808   1.759   4.182  0.5985  0.7785 -2.1718
   45MOL   H28316211   0.655   1.516   4.063 -1.4245  0.8684 -1.0369
   45MOL   H28416212   0.462   1.689   4.010  0.3463 -0.4491 -1.6921
   45MOL   H28516213   0.575   1.808   4.052  0.3647 -0.0430 -1.3686
   45MOL   H28616214   0.602   1.700   3.907  1.5976 -2.2129  0.3096
   45MOL   H28716215   0.487   1.563   4.245 -0.1715 -0.5585  0.5635
   45MOL   H28816216   0.640   1.530   4.303 -1.7006  0.5476  1.8416
   45MOL   H28916217   0.584   1.704   4.288 -0.8479  0.1198  0.1197
   45MOL   C29016218   0.996   1.508   4.073 -0.5184 -0.3168  0.6373
   45MOL   C29116219   0.944   1.446   3.934 -0.0456 -0.4195  0.4506
   45MOL   C29216220   1.055   1.441   3.816 -0.0520 -0.2888 -0.0100
   45MOL   C29316221   1.123   1.573   3.770 -0.4132 -0.1506  0.1405
   45MOL   C29416222   1.237   1.528   3.674 -0.4694  0.4211  0.8136
   45MOL   C29516223   1.028   1.664   3.691  0.2119  0.0811 -0.5283
   45MOL   H29616224   1.050   1.600   4.049 -4.2359  2.2821  1.7455
   45MOL   H29716225   1.076   1.450   4.119  2.9993  1.7822 -2.4442
   45MOL   H29816226   0.866   1.510   3.893 -0.0166 -2.2138 -2.5877
   45MOL   H29916227   1.012   1.405   3.723 -2.3446  2.0372  0.1227
   45MOL   H30016228   1.133   1.370   3.847  0.1500 -0.0171  0.1063
   45MOL   H30116229   1.161   1.622   3.860  0.8538 -0.0946 -0.4054
   45MOL   H30216230   1.296   1.611   3.635  0.2602 -0.5122 -0.0755
   45MOL   H30316231   1.213   1.484   3.577  4.7004  2.1496 -1.4325
   45MOL   H30416232   1.311   1.469   3.728  0.0993  1.9735  1.7663
   45MOL   H30516233   0.997   1.611   3.601 -1.3964 -1.1113  0.6785
   45MOL   H30616234   1.080   1.756   3.669  0.4494  0.0380 -0.1564
   45MOL   H30716235   0.946   1.693   3.757 -0.3421  0.3457 -1.3354
   45MOL   C30816236   0.900   1.300   3.961 -0.0996 -0.0678  0.0950
   45MOL   C30916237   0.828   1.217   3.845  0.2113  0.2010 -0.0223
   45MOL   C31016238   0.870   1.068   3.864  0.4560 -0.2463  0.3390
   45MOL   C31116239   0.887   0.988   3.733 -0.7533 -0.0986 -0.1076
   45MOL   C31216240   1.010   1.032   3.650 -0.1379  0.2496 -0.4392
   45MOL   C31316241   0.909   0.848   3.779 -0.7464 -0.1335  0.5831
   45MOL   H31416242   0.987   1.238   3.984 -0.3663 -1.0491 -1.4738
   45MOL   H31516243   0.830   1.278   4.042  1.0988 -2.0082  0.6555
   45MOL   H31616244   0.875   1.255   3.754 -1.5013 -0.8382 -1.3637
   45MOL   H31716245   0.793   1.025   3.928  0.1037  1.3357  0.9952
   45MOL   H31816246   0.966   1.046   3.910  1.2504 -0.6363 -1.4453
   45MOL   H31916247   0.794   0.996   3.676 -0.1884  0.2178 -1.0043
   45MOL   H32016248   1.038   0.969   3.565  0.0815 -0.0166 -0.1711
   45MOL   H32116249   1.094   1.030   3.719 -0.2844  0.6678 -0.2428
   45MOL   H32216250   1.005   1.138   3.625  0.4438  0.4298  0.2115
   45MOL   H32316251   0.991   0.844   3.851 -0.6362  1.7355  0.5747
   45MOL   H32416252   0.823   0.796   3.822 -1.3089  1.0663  0.9130
   45MOL   H32516253   0.934   0.782   3.695 -4.0255 -0.1772 -0.4263
   45MOL   C32616254   0.679   1.243   3.836  0.0341 -0.9614  0.3499
   45MOL   C32716255   0.611   1.203   3.697  0.3164 -0.2835 -0.4787
   45MOL   C32816256   0.523   1.321   3.653  0.2012  0.3909  0.9091
   45MOL   C32916257   0.590   1.432   3.568 -0.3958 -0.9064  0.4110
   45MOL   C33016258   0.610   1.382   3.424 -0.7297  0.3065 -0.5938
   45MOL   C33116259   0.511   1.558   3.589  0.1376  0.4504  0.0268
   45MOL   H33216260   0.673   1.352   3.839 -1.9955 -1.0247 -0.3947
   45MOL   H33316261   0.631   1.208   3.927 -1.8291  1.7945  0.5019
   45MOL   H33416262   0.682   1.177   3.618  0.5969 -0.1867 -0.2607
   45MOL   H33516263   0.442   1.277   3.594  0.3370 -0.8948  1.6591
   45MOL   H33616264   0.478   1.371   3.739 -1.2200 -1.2954  1.1759
   45MOL   H33716265   0.691   1.451   3.606 -0.1017  0.2771 -0.9241
   45MOL   H33816266   0.681   1.448   3.373  1.7326 -0.9205  1.1418
   45MOL   H33916267   0.521   1.399   3.363 -1.3677 -0.7235  0.0390
   45MOL   H34016268   0.641   1.278   3.417 -0.9734  0.0450  1.7792
   45MOL   H34116269   0.406   1.560   3.558 -0.7276  1.3911  2.9235
   45MOL   H34216270   0.507   1.580   3.695  0.5062  0.0869  0.1182
   45MOL   H34316271   0.572   1.625   3.528  1.2486 -0.8579 -0.3318
   45MOL   C34416272   0.534   1.073   3.729 -0.7452  0.4026 -0.2374
   45MOL   C34516273   0.493   0.992   3.603 -0.8350 -0.5218  0.0908
   45MOL   C34616274   0.454   0.843   3.630 -0.3562 -0.3713  0.2817
   45MOL   C34716275   0.488   0.745   3.511 -0.3636 -0.4248 -0.5182
   45MOL   C34816276   0.407   0.617   3.523  0.2464  0.1907 -0.3769
   45MOL   C34916277   0.635   0.725   3.508  0.5624 -0.3421 -0.5200
   45MOL   H35016278   0.446   1.082   3.792 -0.4844 -1.8634  0.5140
   45MOL   H35116279   0.594   1.008   3.793 -2.2074 -2.1518 -1.3605
   45MOL   H35216280   0.576   1.003   3.534 -1.2346  2.8460  0.0545
   45MOL   H35316281   0.502   0.809   3.721 -2.1748  1.0603  1.8224
   45MOL   H35416282   0.347   0.843   3.648 -0.5303  1.1884 -0.6457
   45MOL   H35516283   0.458   0.786   3.415  1.1519 -0.2287 -0.9189
   45MOL   H35616284   0.441   0.531   3.466  0.0220 -0.6969  0.8061
   45MOL   H35716285   0.389   0.594   3.628 -1.2931 -0.6718 -0.8169
   45MOL   H35816286   0.310   0.649   3.486  0.4196  3.8262  2.0427
   45MOL   H35916287   0.648   0.654   3.427 -0.5120 -0.3469 -0.7050
   45MOL   H36016288   0.677   0.688   3.601  0.5050  0.3477 -0.2156
   45MOL   H36116289   0.677   0.824   3.488  0.7334 -0.2676  0.1776
   45MOL   H36216290   0.409   1.043   3.557  0.0824  1.5304  0.6326
   46MOL     C116291   5.195   6.753   7.716  0.2954 -0.2640  0.2595
   46MOL     C216292   5.041   6.759   0.007 -1.4157  0.2891 -0.5984
   46MOL     C316293   4.999   6.888   0.055  0.1421 -0.5752 -0.1608
   46MOL     C416294   5.019   7.004   7.702  0.0143 -1.5296 -0.1061
   46MOL     C516295   4.968   7.135   0.005 -0.1509 -0.7528  0.1533
   46MOL     C616296   4.950   6.978   7.567 -0.2763  0.3691  0.3575
   46MOL     H716297   5.252   6.667   7.751  1.1295 -0.5547 -1.7204
   46MOL     H816298   5.188   6.746   7.607  2.3591 -1.6132  0.1787
   46MOL     H916299   4.991   6.732   7.667  0.1754  2.1592 -2.0566
   46MOL    H1016300   4.894   6.900   0.079 -0.0291 -0.0913 -1.1062
   46MOL    H1116301   5.064   6.909   0.139  1.6618  2.2299 -1.9478
   46MOL    H1216302   5.124   7.009   7.677 -0.4065  2.4520 -1.3903
   46MOL    H1316303   4.977   7.214   7.682  1.8245  0.0116  1.1497
   46MOL    H1416304   4.870   7.130   0.051  0.3696 -0.6483  1.3092
   46MOL    H1516305   5.026   7.169   0.091 -0.0469 -0.7106  0.0666
   46MOL    H1616306   4.960   6.877   7.530  2.5061  0.7616 -0.0514
   46MOL    H1716307   4.996   7.046   7.496  1.5767 -0.0865  1.1156
   46MOL    H1816308   4.842   6.992   7.571 -0.2338  0.7484  0.1981
   46MOL    H1916309   5.250   6.845   7.732 -0.5585  0.3345 -0.2291
   46MOL    C2016310   5.006   6.658   0.105 -1.1414 -0.7091  0.6952
   46MOL    C2116311   4.859   6.618   0.131  1.0364  0.2341  0.0545
   46MOL    C2216312   4.789   6.602   7.747 -0.2182  0.4350  0.1893
   46MOL    C2316313   4.702   6.725   7.685  0.1830 -0.4736 -0.8123
   46MOL    C2416314   4.678   6.711   7.537 -0.2567  0.4369 -0.2309
   46MOL    C2516315   4.565   6.749   0.003 -0.3181  0.3583  0.3489
   46MOL    H2616316   5.052   6.565   0.072 -1.0085  1.0310 -4.4641
   46MOL    H2716317   5.053   6.682   0.200 -1.2087 -2.9280  1.3065
   46MOL    H2816318   4.817   6.694   0.197  0.8119 -1.2438  1.6679
   46MOL    H2916319   4.715   6.523   0.007  0.5636 -0.2551  0.4459
   46MOL    H3016320   4.859   6.566   7.672  1.3355  2.7802  0.4421
   46MOL    H3116321   4.765   6.814   7.689 -1.0530  0.3819  0.1224
   46MOL    H3216322   4.643   6.612   7.507  1.2442  0.2771 -1.5440
   46MOL    H3316323   4.770   6.712   7.478 -1.1943 -2.5514 -1.8596
   46MOL    H3416324   4.613   6.790   7.500  0.0992  0.6778 -0.3426
   46MOL    H3516325   4.500   6.663   7.741  0.4754 -0.8209  3.4952
   46MOL    H3616326   4.567   6.766   0.110 -2.2011  0.1029  0.4326
   46MOL    H3716327   4.527   6.844   7.717  0.0882  1.6030  2.9228
   46MOL    C3816328   4.854   6.485   0.216  0.1633 -0.2274 -0.0130
   46MOL    C3916329   4.710   6.458   0.286 -0.5801  0.6291 -0.0322
   46MOL    C4016330   4.676   6.553   0.399  0.1001 -0.5225  0.0386
   46MOL    C4116331   4.779   6.559   0.520  0.1612  0.4656 -0.7766
   46MOL    C4216332   4.717   6.586   0.664 -0.0396 -0.0260  0.2730
   46MOL    C4316333   4.885   6.675   0.505  0.1465 -0.1455 -0.2112
   46MOL    H4416334   4.936   6.478   0.287 -2.5010  1.1241  3.3264
   46MOL    H4516335   4.876   6.412   0.139  1.0808 -1.2686  1.2232
   46MOL    H4616336   4.630   6.488   0.219  0.6613  2.1257 -0.8611
   46MOL    H4716337   4.584   6.508   0.437 -0.3711  0.9711  0.7122
   46MOL    H4816338   4.657   6.652   0.360 -0.1743  0.0304  1.5204
   46MOL    H4916339   4.831   6.464   0.535 -0.4182  0.1280 -0.9358
   46MOL    H5016340   4.610   6.568   0.668 -0.0729 -1.2469 -3.7640
   46MOL    H5116341   4.765   6.525   0.740  0.1508 -0.4594 -0.1905
   46MOL    H5216342   4.727   6.688   0.701  0.0653 -0.4535  1.4204
   46MOL    H5316343   4.964   6.659   0.579 -0.4859 -2.4425  0.0092
   46MOL    H5416344   4.846   6.772   0.534 -0.1323 -0.0577 -0.8847
   46MOL    H5516345   4.925   6.690   0.405  0.6237 -3.3266 -0.5539
   46MOL    C5616346   4.695   6.310   0.325 -0.0596  0.5905  0.2409
   46MOL    C5716347   4.548   6.250   0.329  0.3755 -0.0601 -1.0527
   46MOL    C5816348   4.488   6.251   0.474  0.2545  0.0796  0.0659
   46MOL    C5916349   4.550   6.152   0.580  0.9583  1.4574  0.4163
   46MOL    C6016350   4.429   6.070   0.639 -0.2544  0.2576  0.1481
   46MOL    C6116351   4.627   6.228   0.686 -0.0398 -0.8082 -0.3268
   46MOL    H6216352   4.750   6.290   0.417  3.1682 -0.4108 -1.8057
   46MOL    H6316353   4.741   6.245   0.249 -1.1974  1.4278 -1.1895
   46MOL    H6416354   4.479   6.316   0.276  1.6127 -0.0126 -2.6540
   46MOL    H6516355   4.483   6.353   0.513  0.1997  0.0661  0.0928
   46MOL    H6616356   4.381   6.234   0.465  0.4079 -1.9628  1.5955
   46MOL    H6716357   4.612   6.086   0.519 -0.4134  0.4936  0.0290
   46MOL    H6816358   4.469   6.001   0.713  1.2223 -0.0405 -0.8893
   46MOL    H6916359   4.390   6.014   0.554 -1.1624 -1.7900  1.8611
   46MOL    H7016360   4.345   6.129   0.673 -0.0951  1.7671 -1.9589
   46MOL    H7116361   4.690   6.162   0.747 -2.8025 -2.7169  0.5581
   46MOL    H7216362   4.552   6.284   0.741 -0.9584 -0.5173 -1.8768
   46MOL    H7316363   4.692   6.302   0.639 -2.9674  2.4861  0.6167
   46MOL    C7416364   4.532   6.110   0.263  0.4353  0.0503  0.1864
   46MOL    C7516365   4.473   6.116   0.115 -0.6137 -0.6585  0.4497
   46MOL    C7616366   4.438   5.978   0.057 -0.9322  0.1968 -0.3078
   46MOL    C7716367   4.288   5.945   0.054  0.0752  0.0042  0.2517
   46MOL    C7816368   4.225   5.924   0.194  0.4285 -0.2585 -1.4193
   46MOL    C7916369   4.265   5.821   7.719  0.4584 -0.0457 -0.5614
   46MOL    H8016370   4.461   6.048   0.317  1.5334 -2.4847 -1.2028
   46MOL    H8116371   4.626   6.054   0.272  0.6001  0.4047  0.7140
   46MOL    H8216372   4.382   6.177   0.117  0.4701  0.9743  0.7418
   46MOL    H8316373   4.489   5.967   7.714  1.7912  0.0114  1.1082
   46MOL    H8416374   4.487   5.898   0.113 -0.4912 -0.6340 -1.8485
   46MOL    H8516375   4.252   6.039   0.011  0.9623  0.8621  1.3206
   46MOL    H8616376   4.264   5.837   0.246  0.8860  1.4678  1.2112
   46MOL    H8716377   4.116   5.922   0.180  0.5897 -0.2466 -2.8252
   46MOL    H8816378   4.241   6.012   0.255  0.1385 -0.0499 -1.6369
   46MOL    H8916379   4.268   5.848   7.613  1.6919 -2.2619 -1.1334
   46MOL    H9016380   4.341   5.746   7.738 -0.8078 -1.0875  0.4210
   46MOL    H9116381   4.164   5.788   7.744  1.6964 -2.0282  2.0226
   46MOL    C9216382   4.577   6.186   0.029 -0.0164  0.0558  0.5733
   46MOL    C9316383   4.540   6.228   7.637 -0.0823 -0.0287 -0.5403
   46MOL    C9416384   4.442   6.356   7.638 -0.0770 -0.5047  0.5868
   46MOL    C9516385   4.366   6.388   7.507  0.0148 -0.1434 -0.8452
   46MOL    C9616386   4.233   6.315   7.493  1.1903 -0.2923 -0.0670
   46MOL    C9716387   4.318   6.536   7.496  0.2557 -0.1133  0.9315
   46MOL    H9816388   4.627   6.272   0.073  0.1673 -0.2682  1.0052
   46MOL    H9916389   4.656   6.111   0.017  0.3366  0.0719  2.5825
   46MOL   H10016390   4.476   6.156   7.586 -1.1818 -0.0189  0.7821
   46MOL   H10116391   4.514   6.437   7.650 -0.8659  0.1252  1.1096
   46MOL   H10216392   4.379   6.365   7.727  0.9615  2.8057  1.0897
   46MOL   H10316393   4.430   6.362   7.423  1.5820 -1.0058  0.6040
   46MOL   H10416394   4.169   6.321   7.581  0.2135 -1.2323 -0.7013
   46MOL   H10516395   4.241   6.207   7.481 -0.9080 -0.7058  1.9114
   46MOL   H10616396   4.173   6.340   7.405 -0.2188 -1.3408  0.5812
   46MOL   H10716397   4.235   6.569   7.559  0.2295  0.5864  0.5368
   46MOL   H10816398   4.278   6.553   7.396  0.4727  1.7978  1.1495
   46MOL   H10916399   4.402   6.604   7.513  0.0888  0.2295  0.3992
   46MOL   C11016400   4.671   6.246   7.557  0.1307 -0.2064 -0.0542
   46MOL   C11116401   4.726   6.119   7.491  0.3568  0.2379 -0.0341
   46MOL   C11216402   4.633   6.074   7.375  0.2051  0.2078 -0.7100
   46MOL   C11316403   4.658   5.918   7.333 -0.4560  0.0521 -0.7282
   46MOL   C11416404   4.605   5.900   7.188 -0.5351  0.0074  1.0643
   46MOL   C11516405   4.594   5.817   7.428  0.3286  0.1496 -0.1515
   46MOL   H11616406   4.749   6.283   7.623  0.9849  0.6268 -1.4817
   46MOL   H11716407   4.663   6.328   7.485 -0.9394  0.5314  0.8940
   46MOL   H11816408   4.720   6.049   7.574 -1.7169  2.5161  1.8027
   46MOL   H11916409   4.656   6.143   7.294  1.8687  2.5695  1.6710
   46MOL   H12016410   4.529   6.089   7.406  0.3359  0.9868 -0.6467
   46MOL   H12116411   4.763   5.895   7.317 -0.5569 -1.3205  0.5463
   46MOL   H12216412   4.625   5.796   7.165 -0.5394  0.0675  0.7823
   46MOL   H12316413   4.670   5.957   7.122  0.0019  0.2685  1.8179
   46MOL   H12416414   4.498   5.918   7.178 -0.7621 -1.9754 -0.4574
   46MOL   H12516415   4.600   5.711   7.402 -1.7898 -0.1015  0.3197
   46MOL   H12616416   4.488   5.839   7.433 -0.0219 -1.8155  1.6454
   46MOL   H12716417   4.621   5.836   7.532  0.8596 -2.8003  0.2840
   46MOL   C12816418   4.874   6.138   7.437 -0.3244 -0.1866  0.1721
   46MOL   C12916419   4.989   6.146   7.545  0.5770 -0.2939  0.1749
   46MOL   C13016420   5.126   6.200   7.484 -0.2450  0.0172 -0.0239
   46MOL   C13116421   5.125   6.358   7.441 -0.4225 -0.7913 -0.4151
   46MOL   C13216422   5.138   6.458   7.555  0.4267 -0.4732 -0.3380
   46MOL   C13316423   5.230   6.379   7.327 -0.4148  0.0101  0.3949
   46MOL   H13416424   4.877   6.228   7.376 -3.3300 -0.4327 -0.4187
   46MOL   H13516425   4.921   6.064   7.374  0.2299 -0.6107  1.0675
   46MOL   H13616426   4.963   6.214   7.626  3.9442 -0.5911  1.5861
   46MOL   H13716427   5.199   6.189   7.564  0.4982  0.7280 -0.5954
   46MOL   H13816428   5.157   6.146   7.395  1.1873  0.9026 -0.0826
   46MOL   H13916429   5.024   6.377   7.405 -1.2621 -1.6392  1.4077
   46MOL   H14016430   5.102   6.557   7.527 -0.2412 -1.2616 -2.3456
   46MOL   H14116431   5.239   6.468   7.594 -0.3592  0.0552  1.6292
   46MOL   H14216432   5.085   6.420   7.642 -0.8333  0.1524 -0.8178
   46MOL   H14316433   5.330   6.359   7.365  0.5271  1.8490 -1.0517
   46MOL   H14416434   5.206   6.322   7.237  0.2409  2.0437 -1.1000
   46MOL   H14516435   5.234   6.478   7.280 -1.8315 -0.6515 -1.1671
   46MOL   C14616436   5.011   6.022   7.626 -0.2190 -0.3916  0.2433
   46MOL   C14716437   5.086   6.035   0.013  0.0054 -0.5319  0.5485
   46MOL   C14816438   5.107   5.891   0.075 -0.5269 -1.1276 -0.5861
   46MOL   C14916439   5.240   5.831   0.052  0.1253 -0.2009  0.1760
   46MOL   C15016440   5.356   5.895   0.128 -0.3306 -0.4077 -0.3282
   46MOL   C15116441   5.234   5.680   0.093  0.3452  0.1324  0.0519
   46MOL   H15216442   5.066   5.950   7.566 -3.2309 -2.4671 -0.1650
   46MOL   H15316443   4.913   5.988   7.661 -0.0961 -0.1586  0.8263
   46MOL   H15416444   5.182   6.081   7.745 -1.0629  1.7550  0.5432
   46MOL   H15516445   5.085   5.889   0.182 -1.2581  0.4130 -0.6916
   46MOL   H15616446   5.028   5.824   0.041 -0.8626 -1.6787  1.2289
   46MOL   H15716447   5.270   5.830   7.700  1.7570  0.1084  0.6223
   46MOL   H15816448   5.367   6.000   0.100  1.9158 -0.8984 -1.4326
   46MOL   H15916449   5.457   5.863   0.103  0.0335  1.9724 -2.1068
   46MOL   H16016450   5.349   5.885   0.237 -0.5575 -0.9323 -0.3910
   46MOL   H16116451   5.143   5.646   0.044 -0.1944  1.1865  0.3095
   46MOL   H16216452   5.230   5.668   0.202  0.0283 -0.5367 -0.0344
   46MOL   H16316453   5.314   5.627   0.041 -0.9756 -0.1772 -1.6970
   46MOL   C16416454   5.010   6.122   0.122 -0.1583  0.0711  0.2563
   46MOL   C16516455   5.101   6.176   0.235 -0.4161 -0.3323  0.8181
   46MOL   C16616456   5.187   6.291   0.178 -0.2729  0.9783  0.5541
   46MOL   C16716457   5.301   6.341   0.260  0.1793 -0.5441 -0.1351
   46MOL   C16816458   5.427   6.251   0.255  0.1785 -0.6211 -0.0983
   46MOL   C16916459   5.346   6.478   0.215  0.2298  0.0095  0.0732
   46MOL   H17016460   4.961   6.206   0.073  2.8035  0.0698 -2.9281
   46MOL   H17116461   4.927   6.061   0.156 -0.6746 -0.0941 -1.2967
   46MOL   H17216462   5.173   6.100   0.264 -2.0910 -2.3660 -0.2362
   46MOL   H17316463   5.221   6.252   0.082 -0.4805 -0.7568  1.1673
   46MOL   H17416464   5.113   6.366   0.151 -1.5318  0.2026  1.7989
   46MOL   H17516465   5.277   6.356   0.365 -0.8252  0.9136 -0.5640
   46MOL   H17616466   5.480   6.263   0.161  0.8833 -2.1563  0.0902
   46MOL   H17716467   5.397   6.149   0.279 -1.2490 -0.8390 -2.6412
   46MOL   H17816468   5.503   6.281   0.328  0.4819  3.3257 -1.8761
   46MOL   H17916469   5.278   6.563   0.217  0.3713  0.1113  0.7012
   46MOL   H18016470   5.364   6.461   0.109 -3.1738 -1.0777 -0.3984
   46MOL   H18116471   5.437   6.508   0.268  0.6747 -1.9197  0.4458
   46MOL   C18216472   5.020   6.222   0.359  0.3756 -0.0656 -0.0353
   46MOL   C18316473   5.053   6.130   0.481  0.4109 -0.0958  0.0631
   46MOL   C18416474   5.027   6.210   0.617  0.3049  0.0915 -0.4840
   46MOL   C18516475   5.125   6.325   0.662  0.1194 -0.3541  0.0809
   46MOL   C18616476   5.090   6.371   0.806  0.4649 -0.2519  0.3014
   46MOL   C18716477   5.278   6.284   0.665 -0.4297 -0.6951  0.4469
   46MOL   H18816478   4.916   6.214   0.328  0.3621  0.4297 -0.1383
   46MOL   H18916479   5.031   6.327   0.387  0.5606 -0.2079  0.4342
   46MOL   H19016480   5.159   6.103   0.484  0.3616 -0.4446 -1.1306
   46MOL   H19116481   5.017   6.135   0.694 -2.1240 -0.2079 -1.0428
   46MOL   H19216482   4.929   6.258   0.614  1.0474  1.8938  2.0929
   46MOL   H19316483   5.111   6.405   0.589 -1.6315 -0.9259 -0.2314
   46MOL   H19416484   5.158   6.454   0.825 -1.9194  1.5923  1.2010
   46MOL   H19516485   5.111   6.288   0.873 -0.8148 -1.3973 -0.6923
   46MOL   H19616486   4.986   6.402   0.820  0.3711 -1.4110  2.3481
   46MOL   H19716487   5.297   6.201   0.733 -0.5255 -2.0044 -1.0872
   46MOL   H19816488   5.346   6.364   0.694  0.4450 -2.0264  2.1456
   46MOL   H19916489   5.320   6.254   0.569 -1.0221  0.8459 -0.3081
   46MOL   C20016490   4.970   6.002   0.479  0.0174 -0.6441  0.2238
   46MOL   C20116491   5.021   5.882   0.571 -0.1582 -0.1312  0.8458
   46MOL   C20216492   5.151   5.814   0.513 -0.8241  0.4931 -0.0082
   46MOL   C20316493   5.213   5.705   0.606 -0.3773  0.4580  0.2523
   46MOL   C20416494   5.308   5.619   0.523 -0.3861  0.3656 -0.3158
   46MOL   C20516495   5.278   5.759   0.737 -0.5504 -0.1521 -0.2592
   46MOL   H20616496   4.946   5.968   0.378  2.5022 -0.2440 -0.5510
   46MOL   H20716497   4.868   6.024   0.511  0.9262 -0.0796  2.8205
   46MOL   H20816498   5.049   5.922   0.668  4.4706  1.4001 -0.9853
   46MOL   H20916499   5.126   5.773   0.415  0.5758 -0.9634  0.2243
   46MOL   H21016500   5.230   5.884   0.489  0.9911 -1.1295  1.0799
   46MOL   H21116501   5.132   5.647   0.651 -0.5350 -0.4627 -1.1984
   46MOL   H21216502   5.255   5.581   0.436 -0.1271 -1.7913  0.4351
   46MOL   H21316503   5.359   5.547   0.587 -0.1406  2.4714  1.9354
   46MOL   H21416504   5.384   5.680   0.474 -0.5341  0.0465 -0.9365
   46MOL   H21516505   5.335   5.680   0.787 -1.7274 -1.0230 -0.2772
   46MOL   H21616506   5.199   5.776   0.811 -0.8030 -0.5322 -0.4389
   46MOL   H21716507   5.343   5.845   0.724 -1.1785  0.3797  0.1265
   46MOL   C21816508   4.902   5.786   0.596  0.4466  0.4795  0.3230
   46MOL   C21916509   4.867   5.764   0.740  0.0930  0.1899 -0.1796
   46MOL   C22016510   4.801   5.630   0.775  0.6552  0.3373 -0.4593
   46MOL   C22116511   4.893   5.504   0.772  0.2042  0.5530  0.2996
   46MOL   C22216512   4.988   5.503   0.887 -0.3325 -0.0019  0.0568
   46MOL   C22316513   4.810   5.370   0.767  0.8333  0.9297 -0.1391
   46MOL   H22416514   4.813   5.804   0.536 -1.1878 -1.3798  2.1474
   46MOL   H22516515   4.933   5.692   0.551 -0.2565  1.5576 -2.5118
   46MOL   H22616516   4.963   5.773   0.790 -0.1724  3.1694 -0.1226
   46MOL   H22716517   4.757   5.641   0.874  1.4246  1.2920 -0.2234
   46MOL   H22816518   4.718   5.613   0.707  0.7349 -3.4543  0.2399
   46MOL   H22916519   4.947   5.508   0.677  1.4313 -2.6108  0.8038
   46MOL   H23016520   4.937   5.479   0.980 -1.1333 -0.6296 -0.5416
   46MOL   H23116521   5.065   5.428   0.870 -1.1405 -0.0229 -3.9314
   46MOL   H23216522   5.030   5.604   0.887 -1.4762  0.4750 -0.1722
   46MOL   H23316523   4.728   5.365   0.838 -0.0165  0.5773 -1.1406
   46MOL   H23416524   4.765   5.363   0.668 -1.6296 -1.0709  1.0638
   46MOL   H23516525   4.869   5.281   0.786  1.4981  1.1470 -1.1754
   46MOL   C23616526   4.788   5.884   0.800  1.1373 -0.2991  0.3152
   46MOL   C23716527   4.802   5.930   0.950 -0.3008  0.4844 -0.4154
   46MOL   C23816528   4.669   5.978   1.010 -0.3028 -0.1139  0.2135
   46MOL   C23916529   4.555   5.870   1.023 -0.6577 -1.0095 -0.0462
   46MOL   C24016530   4.565   5.781   1.145  0.1758  0.6905 -0.0248
   46MOL   C24116531   4.421   5.939   1.019  0.6595 -0.1974 -0.4386
   46MOL   H24216532   4.685   5.878   0.763  0.8627  3.0776  0.3876
   46MOL   H24316533   4.820   5.969   0.740  0.3443  0.6068  1.1586
   46MOL   H24416534   4.830   5.838   1.000 -1.0852 -0.3791 -1.5322
   46MOL   H24516535   4.629   6.069   0.964  1.7963  0.4106 -0.6522
   46MOL   H24616536   4.688   6.011   1.112  2.1942  1.2813 -0.6354
   46MOL   H24716537   4.551   5.804   0.936 -0.4753 -1.0960  0.0128
   46MOL   H24816538   4.557   5.837   1.238  1.2430 -1.1203  1.1880
   46MOL   H24916539   4.662   5.731   1.150  1.1874  2.6188  0.3537
   46MOL   H25016540   4.490   5.701   1.146  1.9775 -1.0421 -0.1940
   46MOL   H25116541   4.410   6.002   0.930 -1.9839  0.4397  0.2936
   46MOL   H25216542   4.405   5.991   1.114 -1.9508  1.2586 -1.5959
   46MOL   H25316543   4.339   5.868   1.009 -1.3134  2.0317 -0.7973
   46MOL   C25416544   4.925   6.027   0.976  0.5007 -0.4000  0.1118
   46MOL   C25516545   4.962   6.040   1.131  0.5302 -0.5782 -0.3124
   46MOL   C25616546   5.120   6.040   1.151 -0.1168 -0.3079 -0.4206
   46MOL   C25716547   5.180   5.896   1.141 -0.9571  0.0534  0.9898
   46MOL   C25816548   5.174   5.813   1.273 -0.6915 -0.2507 -0.1906
   46MOL   C25916549   5.323   5.899   1.085 -0.3378  0.3449  0.1943
   46MOL   H26016550   5.018   5.991   0.933 -1.0418 -1.5737 -2.3700
   46MOL   H26116551   4.899   6.126   0.939 -2.1969 -0.4310  1.7472
   46MOL   H26216552   4.912   5.953   1.173  1.2609 -0.1463  1.5119
   46MOL   H26316553   5.139   6.072   1.254 -1.5380 -1.7853  0.3233
   46MOL   H26416554   5.166   6.112   1.084 -0.4543 -0.0363 -0.3599
   46MOL   H26516555   5.120   5.848   1.064 -1.8473 -0.0622  1.7563
   46MOL   H26616556   5.200   5.708   1.263 -1.3936 -0.4510  0.0139
   46MOL   H26716557   5.081   5.830   1.328 -0.9300 -3.6791  0.5759
   46MOL   H26816558   5.246   5.835   1.351 -2.3165  0.2271  1.2168
   46MOL   H26916559   5.366   5.799   1.079  3.7069  2.0506 -0.2212
   46MOL   H27016560   5.327   5.946   0.987 -1.4541 -0.4864 -0.2696
   46MOL   H27116561   5.384   5.956   1.155 -1.9508  1.9075  0.3670
   46MOL   C27216562   4.911   6.172   1.200  0.6688 -0.2572  0.2359
   46MOL   C27316563   4.892   6.160   1.351 -0.5691  0.6304  0.5172
   46MOL   C27416564   4.911   6.301   1.426 -0.3364 -0.1471  0.7989
   46MOL   C27516565   5.064   6.323   1.469 -0.2734 -0.1594  0.2223
   46MOL   C27616566   5.066   6.422   1.589 -0.0122 -0.7679  0.2315
   46MOL   C27716567   5.145   6.397   1.356  0.7349 -0.4206 -0.1226
   46MOL   H27816568   4.980   6.253   1.177 -1.1251  0.9088 -1.1126
   46MOL   H27916569   4.819   6.211   1.157  0.2376 -0.3401  1.0693
   46MOL   H28016570   4.969   6.088   1.378 -0.2148  1.3089  1.3353
   46MOL   H28116571   4.841   6.305   1.510  0.3028  1.4316  1.2757
   46MOL   H28216572   4.878   6.383   1.362 -0.6889 -0.6202  0.3671
   46MOL   H28316573   5.107   6.227   1.496  2.8211  0.7009 -1.3588
   46MOL   H28416574   5.156   6.418   1.651 -0.0169  0.2726  0.3158
   46MOL   H28516575   5.033   6.521   1.557  0.0394 -0.0980  2.1636
   46MOL   H28616576   4.984   6.404   1.658 -0.5247 -0.6805 -0.3559
   46MOL   H28716577   5.157   6.328   1.273  1.1060 -0.5850  0.0662
   46MOL   H28816578   5.094   6.478   1.303  2.5707  0.3806 -0.7234
   46MOL   H28916579   5.244   6.422   1.395  1.3641  0.7740 -2.3476
   46MOL   C29016580   4.761   6.093   1.379  0.3637  0.0750 -0.6140
   46MOL   C29116581   4.739   6.037   1.519  0.1319 -0.1040 -0.6289
   46MOL   C29216582   4.587   6.021   1.545 -0.1401 -0.3564 -0.2621
   46MOL   C29316583   4.543   6.043   1.686  0.5812  0.5216  0.7048
   46MOL   C29416584   4.556   6.188   1.727 -0.4564 -0.4399  0.4701
   46MOL   C29516585   4.397   5.997   1.705 -0.1370 -0.1049 -0.4200
   46MOL   H29616586   4.683   6.166   1.354  0.9967  0.6339 -0.9691
   46MOL   H29716587   4.744   6.006   1.317  0.8448 -0.0723 -0.5404
   46MOL   H29816588   4.779   6.112   1.588 -2.0342  2.1650 -1.7627
   46MOL   H29916589   4.553   5.921   1.519  1.5115 -1.1684  0.6538
   46MOL   H30016590   4.541   6.099   1.485  0.6729  0.3288 -0.0148
   46MOL   H30116591   4.602   5.972   1.744 -0.1999 -2.1519 -1.6412
   46MOL   H30216592   4.482   6.248   1.675  2.7800  2.5512 -0.8714
   46MOL   H30316593   4.647   6.233   1.688 -0.4252 -0.7216  0.2144
   46MOL   H30416594   4.550   6.206   1.835  0.1034 -0.7627  0.5627
   46MOL   H30516595   4.382   6.015   1.812 -0.6073  3.0626 -0.9806
   46MOL   H30616596   4.374   5.892   1.687 -0.7559  0.1446 -1.0897
   46MOL   H30716597   4.325   6.057   1.650 -0.5071 -2.3582 -2.5049
   46MOL   C30816598   4.819   5.904   1.542 -0.0955 -0.1163  0.4481
   46MOL   C30916599   4.879   5.894   1.683  0.3962 -0.0335 -0.4285
   46MOL   C31016600   4.920   5.747   1.717  0.4815  0.2514  0.6319
   46MOL   C31116601   4.807   5.643   1.736  0.0971 -1.1090  0.1966
   46MOL   C31216602   4.854   5.496   1.768  0.0926  0.7434 -0.0369
   46MOL   C31316603   4.707   5.676   1.845  0.1666  0.1922 -0.4132
   46MOL   H31416604   4.749   5.820   1.533  0.2123 -0.5083  1.5908
   46MOL   H31516605   4.895   5.892   1.466 -0.4015 -1.0879  0.2857
   46MOL   H31616606   4.810   5.917   1.764  0.6700 -0.8394  0.0370
   46MOL   H31716607   4.976   5.760   1.810 -0.6875  1.3153  1.1993
   46MOL   H31816608   4.993   5.706   1.648  0.8416 -0.2218  1.2890
   46MOL   H31916609   4.756   5.641   1.640  2.3689 -0.8318 -1.0637
   46MOL   H32016610   4.773   5.424   1.760  1.4662 -0.7111 -0.9060
   46MOL   H32116611   4.896   5.482   1.868 -0.6091  2.6147  0.5556
   46MOL   H32216612   4.924   5.456   1.695 -1.1717 -2.6797  0.5443
   46MOL   H32316613   4.617   5.616   1.851  0.0051  0.6392  2.1739
   46MOL   H32416614   4.755   5.669   1.943  2.0087 -1.4956 -1.4035
   46MOL   H32516615   4.667   5.777   1.836  2.3294  1.0567 -0.6108
   46MOL   C32616616   5.001   5.991   1.688 -0.0568  0.4683 -0.4520
   46MOL   C32716617   5.089   5.989   1.822  0.5320 -0.5129 -0.5257
   46MOL   C32816618   5.102   6.134   1.883 -0.4074 -0.6604 -0.8531
   46MOL   C32916619   4.973   6.215   1.912 -0.4680 -0.2938  0.1619
   46MOL   C33016620   4.876   6.132   1.996  0.1599  0.0728 -0.0009
   46MOL   C33116621   4.994   6.355   1.973  0.6679 -0.2291  0.2172
   46MOL   H33216622   4.985   6.095   1.660 -0.6869 -0.1470 -2.4483
   46MOL   H33316623   5.056   5.971   1.596 -1.6654  2.3049 -1.8669
   46MOL   H33416624   5.039   5.928   1.897  0.9565  0.0107  0.1980
   46MOL   H33516625   5.152   6.125   1.979 -1.2114  2.5905 -0.0566
   46MOL   H33616626   5.168   6.199   1.824 -0.6538  0.3764 -0.0051
   46MOL   H33716627   4.934   6.225   1.810 -0.9132 -0.8101  0.2831
   46MOL   H33816628   4.786   6.191   2.016  0.8058  0.3742  2.2570
   46MOL   H33916629   4.906   6.122   2.101 -1.9981  2.3186  0.8780
   46MOL   H34016630   4.856   6.034   1.954  0.7575  0.1379 -0.4485
   46MOL   H34116631   5.015   6.348   2.080 -1.9197 -0.7288  0.7161
   46MOL   H34216632   5.076   6.408   1.923  1.1139 -0.2713  0.8943
   46MOL   H34316633   4.913   6.426   1.958 -0.0661 -1.6033 -2.5955
   46MOL   C34416634   5.230   5.926   1.803 -0.2119  0.7637 -0.5483
   46MOL   C34516635   5.312   5.883   1.929 -0.0768 -0.1721 -0.4413
   46MOL   C34616636   5.438   5.798   1.895  0.6458  0.5996 -0.2622
   46MOL   C34716637   5.496   5.721   2.020  0.0931  0.9465 -0.2011
   46MOL   C34816638   5.527   5.814   2.134  0.2826  0.2164 -0.6277
   46MOL   C34916639   5.621   5.634   1.991 -0.5660  0.1805 -0.7886
   46MOL   H35016640   5.292   6.003   1.758 -1.6892  2.3134  0.0416
   46MOL   H35116641   5.218   5.841   1.735 -1.4606 -0.7936  1.5601
   46MOL   H35216642   5.246   5.812   1.978 -1.8161  1.4142 -0.4358
   46MOL   H35316643   5.398   5.739   1.813  1.0120 -0.5125  0.3454
   46MOL   H35416644   5.515   5.856   1.845 -0.4490  4.8245  2.6679
   46MOL   H35516645   5.417   5.653   2.053  3.1814 -1.9764  1.4576
   46MOL   H35616646   5.567   5.758   2.218 -0.4763 -0.8854 -0.9997
   46MOL   H35716647   5.600   5.891   2.109 -0.3881  0.5104 -1.7128
   46MOL   H35816648   5.428   5.850   2.162  1.8572  1.3488  4.0306
   46MOL   H35916649   5.703   5.704   1.976 -1.0788  0.1813 -3.9120
   46MOL   H36016650   5.611   5.574   1.901 -1.5442 -0.8122 -0.0283
   46MOL   H36116651   5.648   5.567   2.073 -0.9677  0.2080 -0.6263
   46MOL   H36216652   5.327   5.965   1.999 -0.3947 -2.2395  2.1244
   47MOL     C116653   4.943   5.667   7.475  0.0081  0.2519  0.7748
   47MOL     C216654   4.864   5.565   7.554 -0.4213  0.4589  1.0396
   47MOL     C316655   4.827   5.601   7.701  0.1479 -0.3360  0.1145
   47MOL     C416656   4.708   5.537   0.014  0.0835 -0.4857  0.6284
   47MOL     C516657   4.577   5.596   7.727  0.1992 -0.1596  0.3110
   47MOL     C616658   4.717   5.547   0.170 -0.1907  0.5278 -0.4464
   47MOL     H716659   4.926   5.770   7.506 -1.4140  0.0779  0.6285
   47MOL     H816660   5.050   5.647   7.468  0.0260  0.5720 -0.0109
   47MOL     H916661   4.764   5.561   7.511  1.0696  1.0363 -2.6647
   47MOL    H1016662   4.909   5.565   0.011  1.0980  0.1676 -0.8241
   47MOL    H1116663   4.834   5.708   7.722  0.6022 -0.3952  0.2560
   47MOL    H1216664   4.708   5.433   7.732 -0.0568  0.3099 -1.8936
   47MOL    H1316665   4.496   5.567   0.041 -0.3978  1.1912  0.1919
   47MOL    H1416666   4.581   5.705   7.721 -1.8347  0.2598  4.7803
   47MOL    H1516667   4.553   5.562   7.627  2.0148  0.0113 -0.2007
   47MOL    H1616668   4.734   5.648   0.207 -0.5038  0.2967  0.3359
   47MOL    H1716669   4.799   5.492   0.218 -0.8256  0.0139  0.0553
   47MOL    H1816670   4.628   5.499   0.211  0.8558 -0.6739  0.4583
   47MOL    H1916671   4.919   5.660   7.369  2.3199 -1.8397  0.3620
   47MOL    C2016672   4.932   5.427   7.543 -0.1247  0.2353  0.5182
   47MOL    C2116673   4.891   5.348   7.421  0.0301  0.2675  0.1696
   47MOL    C2216674   5.006   5.273   7.369  0.1842  0.0338  0.0552
   47MOL    C2316675   5.126   5.347   7.294  0.2096 -0.3398  0.5760
   47MOL    C2416676   5.247   5.261   7.270 -0.5373  0.2613  0.1512
   47MOL    C2516677   5.087   5.428   7.170  0.3480 -0.4138 -0.8072
   47MOL    H2616678   5.041   5.439   7.550 -0.2144  0.7360  1.0632
   47MOL    H2716679   4.914   5.369   7.634 -0.6970  1.3279  1.1062
   47MOL    H2816680   4.861   5.421   7.345 -1.4054 -2.5932 -2.1044
   47MOL    H2916681   4.956   5.198   7.307  0.5574 -2.0474  2.1994
   47MOL    H3016682   5.051   5.219   7.452  0.6810  0.0148 -0.2253
   47MOL    H3116683   5.167   5.420   7.364  1.6930  0.2713 -0.9047
   47MOL    H3216684   5.217   5.172   7.214  1.5229  0.6703 -1.6686
   47MOL    H3316685   5.298   5.228   7.361  1.9410 -0.2702 -1.3724
   47MOL    H3416686   5.321   5.316   7.212 -1.5098  0.5863 -0.7908
   47MOL    H3516687   5.181   5.470   7.133 -0.8961  0.5738 -2.9219
   47MOL    H3616688   5.044   5.375   7.085 -0.1828 -0.0177 -0.7838
   47MOL    H3716689   5.027   5.518   7.184  0.7825 -0.1888 -0.3646
   47MOL    C3816690   4.767   5.253   7.453 -0.2611  0.0587  0.2797
   47MOL    C3916691   4.675   5.259   7.324  0.0936  0.6162  0.0573
   47MOL    C4016692   4.592   5.388   7.316 -0.1805 -0.0235 -0.3564
   47MOL    C4116693   4.524   5.418   7.178 -0.5282  0.4743  0.0062
   47MOL    C4216694   4.637   5.460   7.082  0.2142  0.1211  0.4654
   47MOL    C4316695   4.422   5.537   7.187  0.2456 -0.4947 -0.9247
   47MOL    H4416696   4.702   5.281   7.535  0.8098  0.8737  0.8573
   47MOL    H4516697   4.802   5.153   7.479  0.4466  0.2936  0.2481
   47MOL    H4616698   4.743   5.252   7.239 -0.9799 -0.4512 -0.7171
   47MOL    H4716699   4.648   5.474   7.351  0.5571 -0.9860  0.8313
   47MOL    H4816700   4.526   5.391   7.402 -0.1763 -0.0936 -0.3515
   47MOL    H4916701   4.474   5.339   7.122 -1.0254  2.0716 -1.8812
   47MOL    H5016702   4.717   5.385   7.072 -0.3797 -0.2879 -1.3978
   47MOL    H5116703   4.607   5.465   6.977  1.7999 -0.5127 -0.0450
   47MOL    H5216704   4.674   5.561   7.098 -1.0943  0.9134 -1.3329
   47MOL    H5316705   4.329   5.517   7.240  1.2772  1.1425  1.6032
   47MOL    H5416706   4.389   5.555   7.085 -0.2086  2.5536 -0.2851
   47MOL    H5516707   4.471   5.624   7.231  0.1179  0.2918 -2.3190
   47MOL    C5616708   4.587   5.128   7.324 -0.2957  0.2208  0.0315
   47MOL    C5716709   4.457   5.128   7.406  0.9426  0.3601 -0.4216
   47MOL    C5816710   4.449   5.118   7.561  0.7291 -0.1545  0.0095
   47MOL    C5916711   4.309   5.134   7.619  0.2777  0.3701 -1.8533
   47MOL    C6016712   4.263   5.278   7.621  0.4653 -0.1931  0.1814
   47MOL    C6116713   4.299   5.085   0.017  0.1796 -0.5998  0.3403
   47MOL    H6216714   4.650   5.042   7.346 -1.5413 -0.7957 -0.3882
   47MOL    H6316715   4.569   5.126   7.217  3.9508 -0.2691 -0.7511
   47MOL    H6416716   4.398   5.216   7.380 -0.4600 -1.1565 -2.5602
   47MOL    H6516717   4.475   5.014   7.582  1.1884  0.1030  0.7216
   47MOL    H6616718   4.518   5.190   7.605 -1.1694  0.6589  1.7437
   47MOL    H6716719   4.230   5.072   7.575  1.0506 -0.9281 -1.4225
   47MOL    H6816720   4.164   5.287   7.664  1.3783 -1.1185  2.5350
   47MOL    H6916721   4.265   5.318   7.520 -1.5384  0.7886  0.5095
   47MOL    H7016722   4.324   5.333   7.692  1.7545 -2.1538  0.6421
   47MOL    H7116723   4.196   5.086   0.053 -0.8557  1.0450 -2.5101
   47MOL    H7216724   4.344   5.157   0.086  1.5097  1.0654 -2.1909
   47MOL    H7316725   4.332   4.982   0.032  0.6041 -0.8422 -2.1125
   47MOL    C7416726   4.376   5.007   7.341 -0.2250  0.3488  0.1833
   47MOL    C7516727   4.245   5.024   7.270 -0.3145  0.0340 -0.4429
   47MOL    C7616728   4.171   4.885   7.259 -0.1621  0.5263 -0.1271
   47MOL    C7716729   4.100   4.824   7.375 -0.2342 -0.1223 -0.3628
   47MOL    C7816730   4.064   4.681   7.340  0.1720  0.1758  0.2143
   47MOL    C7916731   3.973   4.901   7.412 -0.0939  0.8164 -0.0013
   47MOL    H8016732   4.352   4.934   7.418  2.6152 -0.7592  0.0610
   47MOL    H8116733   4.435   4.952   7.267  0.9691  0.3248  1.1480
   47MOL    H8216734   4.180   5.095   7.321 -0.5567 -0.8201  0.4625
   47MOL    H8316735   4.100   4.896   7.178  1.4705 -0.5359 -1.7338
   47MOL    H8416736   4.239   4.808   7.223  1.1333  2.0740 -1.0987
   47MOL    H8516737   4.168   4.807   7.458 -2.2917  1.6803  1.7860
   47MOL    H8616738   4.152   4.617   7.338  0.8261  1.1177 -1.2546
   47MOL    H8716739   4.014   4.679   7.244  0.5920  2.0927 -0.0578
   47MOL    H8816740   3.995   4.636   7.412  0.7706  0.5673  1.0464
   47MOL    H8916741   3.890   4.882   7.344 -0.1276 -0.9606  0.5171
   47MOL    H9016742   3.949   4.877   7.515 -2.1526 -0.2127 -0.7108
   47MOL    H9116743   3.986   5.008   7.393 -0.5612  0.3929 -2.9090
   47MOL    C9216744   4.253   5.092   7.137 -0.0347  0.1733  0.1783
   47MOL    C9316745   4.130   5.169   7.082 -0.0020 -0.3046  0.4845
   47MOL    C9416746   4.112   5.309   7.140 -0.1454  0.2565 -0.0054
   47MOL    C9516747   3.974   5.377   7.141 -0.1972 -0.3087 -0.6751
   47MOL    C9616748   3.902   5.344   7.275 -0.8448 -0.4047  0.1534
   47MOL    C9716749   3.977   5.529   7.130  0.2220  0.2225  0.0548
   47MOL    H9816750   4.332   5.166   7.151  1.3689 -0.4632 -3.7134
   47MOL    H9916751   4.287   5.019   7.064  0.1355  0.0523  0.3810
   47MOL   H10016752   4.047   5.107   7.114  1.4172 -3.1103 -0.9687
   47MOL   H10116753   4.176   5.370   7.075  0.6165  0.7942  1.2287
   47MOL   H10216754   4.160   5.320   7.237 -0.6795 -0.8412  0.3796
   47MOL   H10316755   3.906   5.334   7.067 -1.4425 -1.5386  1.1335
   47MOL   H10416756   3.878   5.238   7.273  1.7238 -1.0061 -0.5470
   47MOL   H10516757   3.800   5.381   7.290 -0.4397  1.3339 -1.1646
   47MOL   H10616758   3.961   5.372   7.363  1.4618 -0.9457 -1.1831
   47MOL   H10716759   4.043   5.580   7.200 -0.8313 -1.8006  2.5720
   47MOL   H10816760   3.880   5.561   7.167 -0.0376  0.2672 -0.6488
   47MOL   H10916761   3.996   5.560   7.027  1.9045  0.0054  0.2784
   47MOL   C11016762   4.121   5.169   6.926 -0.2983  0.3567 -0.0742
   47MOL   C11116763   4.086   5.036   6.854  0.5753  0.3245  0.1851
   47MOL   C11216764   3.937   5.006   6.857  0.0321  0.5526  0.6244
   47MOL   C11316765   3.911   4.856   6.832 -0.0081 -0.0454 -0.2387
   47MOL   C11416766   3.761   4.844   6.795 -0.6438 -0.5404  0.1180
   47MOL   C11516767   3.936   4.765   6.952 -0.7478  0.0178  0.4069
   47MOL   H11616768   4.216   5.202   6.884 -0.7815  0.4060 -1.1624
   47MOL   H11716769   4.054   5.244   6.884  0.4927  0.6422 -0.8273
   47MOL   H11816770   4.149   4.960   6.901  1.0447  0.9214  0.5206
   47MOL   H11916771   3.885   5.075   6.792 -2.4613 -2.9949 -1.3396
   47MOL   H12016772   3.899   5.022   6.958 -0.8998 -1.7373  0.6882
   47MOL   H12116773   3.952   4.814   6.740  1.6089 -1.9805  1.3181
   47MOL   H12216774   3.741   4.740   6.770  0.2518 -0.2844 -1.7732
   47MOL   H12316775   3.747   4.917   6.716 -1.1169  0.7949  1.4029
   47MOL   H12416776   3.682   4.849   6.869  0.0480  0.1674  0.8245
   47MOL   H12516777   3.881   4.787   7.044 -1.5653  0.7235 -0.2477
   47MOL   H12616778   4.043   4.768   6.975 -0.8154  3.3648  0.5436
   47MOL   H12716779   3.922   4.658   6.939  2.8905 -0.5395  0.5555
   47MOL   C12816780   4.145   5.050   6.707  0.0637  0.5224  0.4101
   47MOL   C12916781   4.294   5.014   6.699  0.2667  0.2182  0.1977
   47MOL   C13016782   4.359   5.089   6.574 -0.3456 -0.3812  0.5621
   47MOL   C13116783   4.399   5.240   6.582 -0.1769 -0.0420 -0.0665
   47MOL   C13216784   4.500   5.269   6.691 -0.0601  0.0965 -0.1269
   47MOL   C13316785   4.454   5.288   6.439 -0.2696 -0.5129 -0.1346
   47MOL   H13416786   4.132   5.154   6.676  0.7900  0.5108  0.0544
   47MOL   H13516787   4.087   4.995   6.633  2.0203 -0.5598 -0.3693
   47MOL   H13616788   4.351   5.040   6.789 -0.2177 -0.9349  0.8412
   47MOL   H13716789   4.447   5.028   6.554  1.2882  1.8222  0.8292
   47MOL   H13816790   4.297   5.085   6.485  2.6058 -0.4254 -1.5793
   47MOL   H13916791   4.311   5.301   6.603 -0.9967 -1.2838  0.1390
   47MOL   H14016792   4.449   5.277   6.787 -0.5625  1.5301 -0.4958
   47MOL   H14116793   4.546   5.365   6.670  0.3159 -0.2480 -0.9339
   47MOL   H14216794   4.572   5.187   6.694 -0.1417  0.0436  0.4468
   47MOL   H14316795   4.534   5.229   6.396  1.0625  1.0076  0.2221
   47MOL   H14416796   4.364   5.281   6.377 -0.0031 -0.3910 -0.5351
   47MOL   H14516797   4.494   5.389   6.443  0.2499 -0.7329  0.2934
   47MOL   C14616798   4.317   4.860   6.680  0.4748  0.2081 -0.4808
   47MOL   C14716799   4.449   4.804   6.725  0.3723 -0.2513  0.5685
   47MOL   C14816800   4.483   4.667   6.657 -0.0843 -0.1240  0.3050
   47MOL   C14916801   4.479   4.657   6.504  0.3043  0.5096 -0.1010
   47MOL   C15016802   4.570   4.759   6.426 -0.8653 -0.3016  0.2014
   47MOL   C15116803   4.501   4.521   6.450 -1.0285 -0.4174  0.1878
   47MOL   H15216804   4.274   4.832   6.583  0.0493 -1.8821  0.2942
   47MOL   H15316805   4.245   4.824   6.753  0.9085  3.0937  1.4507
   47MOL   H15416806   4.519   4.873   6.679 -2.1946  1.4603 -0.9250
   47MOL   H15516807   4.584   4.641   6.687 -0.7875 -2.7450  0.5181
   47MOL   H15616808   4.424   4.588   6.704 -1.3436  0.1879 -0.7247
   47MOL   H15716809   4.379   4.681   6.467  0.5000  1.0850 -0.2716
   47MOL   H15816810   4.540   4.862   6.446  1.2922  0.4253 -0.1611
   47MOL   H15916811   4.582   4.753   6.318 -1.8494  0.5192  0.0375
   47MOL   H16016812   4.672   4.749   6.462  0.0828  1.4639 -1.8449
   47MOL   H16116813   4.514   4.524   6.342 -2.1651  2.2038  0.0756
   47MOL   H16216814   4.419   4.450   6.460 -1.0678 -0.5121 -0.7668
   47MOL   H16316815   4.593   4.477   6.488 -1.1646  0.1503  1.2009
   47MOL   C16416816   4.462   4.800   6.874  0.1558 -0.6195  0.2281
   47MOL   C16516817   4.609   4.823   6.930 -0.7308  0.5645  0.5535
   47MOL   C16616818   4.656   4.971   6.938  0.0377  0.4095  0.2974
   47MOL   C16716819   4.811   4.995   6.914 -0.0549 -0.0064  0.2414
   47MOL   C16816820   4.874   4.936   6.786  0.0373  0.1183 -0.1101
   47MOL   C16916821   4.848   5.142   6.928  0.1285 -0.4945  0.0528
   47MOL   H17016822   4.390   4.867   6.921  0.8694 -0.3540  0.9623
   47MOL   H17116823   4.427   4.703   6.909 -0.3618 -0.2376  0.7831
   47MOL   H17216824   4.666   4.766   6.856 -2.0618 -1.3577  0.9558
   47MOL   H17316825   4.612   5.023   6.852 -1.1780 -2.2079 -0.7033
   47MOL   H17416826   4.616   5.035   7.017  2.5774  1.1158  1.0334
   47MOL   H17516827   4.868   4.960   7.001  0.9580  0.5186 -0.2061
   47MOL   H17616828   4.892   4.830   6.803 -0.0900  0.1889  0.4625
   47MOL   H17716829   4.968   4.988   6.769 -0.7740  2.0756  1.1864
   47MOL   H17816830   4.811   4.947   6.698  0.5102 -1.2465 -0.6404
   47MOL   H17916831   4.811   5.203   6.846 -0.9731 -0.6230  0.4567
   47MOL   H18016832   4.955   5.163   6.937  0.0430  0.6051 -1.3071
   47MOL   H18116833   4.805   5.194   7.013 -0.5561 -1.9365  0.6013
   47MOL   C18216834   4.600   4.763   7.074  0.0750  0.0654 -0.0418
   47MOL   C18316835   4.684   4.633   7.088  0.1834 -0.5118  0.5690
   47MOL   C18416836   4.669   4.583   7.231 -0.6465  0.4939  0.1952
   47MOL   C18516837   4.798   4.593   7.311  0.0971 -0.3811 -0.6205
   47MOL   C18616838   4.827   4.738   7.342 -0.1472 -0.5808 -1.2878
   47MOL   C18716839   4.790   4.515   7.448  0.0046 -0.1478 -0.3749
   47MOL   H18816840   4.499   4.750   7.115 -0.9574 -1.7162 -2.9714
   47MOL   H18916841   4.639   4.838   7.142 -2.4884  0.1289  1.4272
   47MOL   H19016842   4.782   4.657   7.046 -1.2541  0.7964 -2.1903
   47MOL   H19116843   4.640   4.479   7.220 -1.5601  0.7818 -0.2164
   47MOL   H19216844   4.582   4.623   7.283 -0.2453 -1.8088  2.7516
   47MOL   H19316845   4.882   4.541   7.264  0.0623  0.5218 -1.6944
   47MOL   H19416846   4.927   4.745   7.384  0.3816 -1.5635 -2.3395
   47MOL   H19516847   4.755   4.777   7.414 -0.0555  1.8645 -2.4983
   47MOL   H19616848   4.823   4.804   7.256  1.0514  1.5836  0.2783
   47MOL   H19716849   4.763   4.410   7.445 -2.7653  0.5830 -2.2602
   47MOL   H19816850   4.732   4.566   7.525  0.2849 -0.8173  0.2778
   47MOL   H19916851   4.893   4.517   7.485 -0.1355  1.4633  0.0043
   47MOL   C20016852   4.639   4.513   6.996  0.3678 -0.8779 -0.0429
   47MOL   C20116853   4.724   4.383   6.991 -0.1260 -0.2652 -0.0130
   47MOL   C20216854   4.857   4.415   6.918  0.2641 -0.3005 -0.8902
   47MOL   C20316855   4.962   4.310   6.950 -0.5482 -0.0412 -0.6720
   47MOL   C20416856   5.072   4.288   6.844 -0.2836 -0.5006  1.3184
   47MOL   C20516857   5.023   4.313   7.089  0.0372 -0.3118 -0.4280
   47MOL   H20616858   4.646   4.547   6.893  1.9368 -1.6751 -0.2182
   47MOL   H20716859   4.538   4.492   7.031  0.6665 -0.1169  1.3247
   47MOL   H20816860   4.742   4.347   7.092  2.9542 -0.1142 -0.4677
   47MOL   H20916861   4.836   4.416   6.811  1.3707 -0.2480 -1.1092
   47MOL   H21016862   4.897   4.515   6.932  0.1681 -0.0050 -2.6241
   47MOL   H21116863   4.904   4.218   6.949 -3.2767  1.5966  0.0951
   47MOL   H21216864   5.030   4.275   6.745 -1.1086  0.7995  1.4916
   47MOL   H21316865   5.145   4.213   6.878 -0.7491 -0.9924  1.2391
   47MOL   H21416866   5.138   4.374   6.831 -0.7966 -0.1515  1.0577
   47MOL   H21516867   4.945   4.278   7.156  0.6907 -0.2660  0.3629
   47MOL   H21616868   5.060   4.408   7.127  0.5637 -0.7499  0.1805
   47MOL   H21716869   5.118   4.262   7.108  0.7817  0.8339 -1.0257
   47MOL   C21816870   4.634   4.269   6.920 -0.3227  0.3475  0.4849
   47MOL   C21916871   4.552   4.180   7.012 -0.6658  0.0870  0.0938
   47MOL   C22016872   4.649   4.082   7.078  0.4035  0.2055 -0.2882
   47MOL   C22116873   4.612   4.037   7.222  0.3231 -0.1825  0.0248
   47MOL   C22216874   4.686   3.921   7.276 -0.8852  0.4692 -0.8238
   47MOL   C22316875   4.631   4.160   7.316  0.5845  0.7906 -0.2748
   47MOL   H22416876   4.566   4.323   6.854  1.5512  1.9005 -0.2247
   47MOL   H22516877   4.690   4.211   6.847 -2.5184 -0.1347 -0.8511
   47MOL   H22616878   4.508   4.246   7.087  0.0645  1.4252 -0.6331
   47MOL   H22716879   4.664   3.989   7.023  0.4362  0.1301 -0.1517
   47MOL   H22816880   4.745   4.133   7.085  0.3793  0.2040  0.0819
   47MOL   H22916881   4.506   4.014   7.225  0.3863 -0.6250 -0.8967
   47MOL   H23016882   4.666   3.841   7.205  1.1300 -0.1825 -0.6976
   47MOL   H23116883   4.790   3.955   7.278 -0.1240 -1.8430  0.9431
   47MOL   H23216884   4.659   3.898   7.379 -2.5853 -2.1948 -1.8236
   47MOL   H23316885   4.585   4.157   7.415  1.1483 -0.6367 -0.0512
   47MOL   H23416886   4.735   4.188   7.332  0.6489  1.2344 -1.3947
   47MOL   H23516887   4.578   4.246   7.274 -0.5066 -0.7489 -2.1220
   47MOL   C23616888   4.444   4.092   6.950 -0.5194  0.2119  0.2983
   47MOL   C23716889   4.310   4.157   6.910 -0.4409 -1.2356 -1.1088
   47MOL   C23816890   4.223   4.186   7.032  0.7236 -0.8792 -0.5906
   47MOL   C23916891   4.114   4.290   7.003 -0.2319  0.2295  0.7236
   47MOL   C24016892   4.004   4.289   7.111 -0.0884  0.6813  0.0249
   47MOL   C24116893   4.173   4.435   6.997 -0.1082 -0.9644  0.3293
   47MOL   H24216894   4.411   4.016   7.021 -0.2977 -1.0718 -0.9450
   47MOL   H24316895   4.494   4.034   6.873  0.7513 -0.5827  1.6836
   47MOL   H24416896   4.331   4.256   6.870  1.2205 -0.9649  0.3217
   47MOL   H24516897   4.279   4.241   7.109 -2.5126  0.5594  0.8287
   47MOL   H24616898   4.198   4.090   7.078 -1.2189  0.6441  1.7015
   47MOL   H24716899   4.058   4.265   6.913 -0.0743  2.9794 -0.1772
   47MOL   H24816900   4.054   4.319   7.203  1.5848 -1.6065 -0.0979
   47MOL   H24916901   3.951   4.194   7.116  1.2095 -0.1307 -1.1606
   47MOL   H25016902   3.927   4.366   7.103 -0.7922 -0.1943 -2.2459
   47MOL   H25116903   4.260   4.445   7.061  1.2192 -1.9924 -1.2703
   47MOL   H25216904   4.093   4.505   7.021  0.4423  0.5150 -2.0239
   47MOL   H25316905   4.209   4.468   6.899 -2.1516 -1.1334 -0.5054
   47MOL   C25416906   4.242   4.070   6.805  0.8011 -0.0408  0.1811
   47MOL   C25516907   4.223   3.921   6.852  0.0978 -1.0868  0.9918
   47MOL   C25616908   4.080   3.869   6.818  0.3482  0.1804 -0.7873
   47MOL   C25716909   3.963   3.928   6.900 -0.0070  0.0890  0.1996
   47MOL   C25816910   3.959   3.861   7.040  0.9921  0.2235  0.2526
   47MOL   C25916911   3.840   3.887   6.812 -0.3012  0.1662 -0.1027
   47MOL   H26016912   4.144   4.116   6.792  0.1966 -0.9326  1.4992
   47MOL   H26116913   4.300   4.077   6.713 -1.2756  1.1889 -1.0650
   47MOL   H26216914   4.234   3.920   6.961 -0.2056 -0.5192  1.0302
   47MOL   H26316915   4.093   3.761   6.827  0.5168  0.1374 -1.4675
   47MOL   H26416916   4.071   3.896   6.713  1.8254  1.5390 -0.5757
   47MOL   H26516917   3.973   4.036   6.910  0.5437 -0.0006  0.6840
   47MOL   H26616918   4.055   3.883   7.084 -0.1398  0.6582  2.5683
   47MOL   H26716919   3.934   3.755   7.035 -1.3034  0.7505 -0.0844
   47MOL   H26816920   3.896   3.903   7.118  2.3264  2.3611  0.1911
   47MOL   H26916921   3.753   3.929   6.862 -0.1427 -0.7668  0.9543
   47MOL   H27016922   3.848   3.925   6.710  2.0673 -1.2194 -0.4740
   47MOL   H27116923   3.818   3.780   6.811  2.8172 -0.5135 -1.9821
   47MOL   C27216924   4.331   3.832   6.789  0.6633  0.1092  0.0800
   47MOL   C27316925   4.409   3.737   6.895  0.5763  0.2294 -0.2997
   47MOL   C27416926   4.302   3.643   6.971 -0.3930  0.7480 -0.2518
   47MOL   C27516927   4.359   3.574   7.097  0.4206 -0.2010 -0.5885
   47MOL   C27616928   4.251   3.488   7.157 -0.5571  0.0505  0.1183
   47MOL   C27716929   4.411   3.675   7.195 -0.9348  0.0160 -0.0893
   47MOL   H27816930   4.273   3.769   6.721  0.2579  0.7602 -0.1747
   47MOL   H27916931   4.401   3.886   6.725  1.3058 -0.3577  0.3853
   47MOL   H28016932   4.462   3.805   6.962 -1.0651  1.2159  0.0160
   47MOL   H28116933   4.258   3.570   6.902 -1.4211  1.1153  0.0112
   47MOL   H28216934   4.224   3.713   6.999  0.3880  2.2718 -1.8130
   47MOL   H28316935   4.440   3.507   7.069 -0.2038 -0.9162 -0.6832
   47MOL   H28416936   4.290   3.425   7.237 -0.0011  0.1406 -0.0776
   47MOL   H28516937   4.175   3.551   7.204 -0.3064 -0.2307  0.9005
   47MOL   H28616938   4.198   3.422   7.089  1.1471 -0.4165 -0.7847
   47MOL   H28716939   4.409   3.647   7.300 -1.0221  3.3899  0.8597
   47MOL   H28816940   4.514   3.694   7.168 -1.1772  0.2443 -0.8654
   47MOL   H28916941   4.370   3.775   7.183 -1.3307 -0.2462 -0.9850
   47MOL   C29016942   4.512   3.644   6.826 -0.0714 -0.3561 -0.5667
   47MOL   C29116943   4.659   3.685   6.810  0.3217  0.6809 -0.0259
   47MOL   C29216944   4.742   3.574   6.736  0.0800  0.2251  0.3613
   47MOL   C29316945   4.736   3.438   6.801  0.0655 -0.1273  0.3234
   47MOL   C29416946   4.832   3.340   6.723 -0.3710  0.6442  0.1709
   47MOL   C29516947   4.783   3.441   6.955 -0.2880 -0.6637 -0.4355
   47MOL   H29616948   4.506   3.545   6.872 -1.0970 -0.7150 -1.4571
   47MOL   H29716949   4.476   3.638   6.724  0.5283  3.2425 -1.0524
   47MOL   H29816950   4.707   3.692   6.908  0.6538 -1.6044  0.0001
   47MOL   H29916951   4.846   3.604   6.736  0.2150 -0.2411  0.3998
   47MOL   H30016952   4.705   3.570   6.633 -0.4300 -0.2047  0.5528
   47MOL   H30116953   4.636   3.393   6.796  0.7743 -1.4425 -2.7719
   47MOL   H30216954   4.934   3.379   6.714  1.3110 -2.8839  2.4837
   47MOL   H30316955   4.797   3.334   6.621  0.2120 -2.3392  0.1098
   47MOL   H30416956   4.829   3.241   6.770 -0.9833 -0.7020 -2.6132
   47MOL   H30516957   4.697   3.476   7.012  0.3579  1.6656 -0.8253
   47MOL   H30616958   4.873   3.500   6.974 -1.8967  2.1243 -1.1694
   47MOL   H30716959   4.795   3.339   6.989  2.9143  0.1497  1.1623
   47MOL   C30816960   4.679   3.827   6.743  0.0778  0.2953 -0.0355
   47MOL   C30916961   4.827   3.872   6.707 -0.2051 -0.2986 -0.2631
   47MOL   C31016962   4.833   4.008   6.634  0.2426  0.4359 -0.3159
   47MOL   C31116963   4.844   3.998   6.481  0.0860  0.7577  0.5960
   47MOL   C31216964   4.792   4.138   6.433 -0.4648  0.4873 -0.0560
   47MOL   C31316965   4.975   3.949   6.422 -0.4247 -0.1103 -0.2331
   47MOL   H31416966   4.629   3.836   6.646 -1.4044 -2.7355  0.3845
   47MOL   H31516967   4.632   3.897   6.811 -1.7177  0.1707 -1.0966
   47MOL   H31616968   4.883   3.796   6.653  2.1968 -0.8619  2.8656
   47MOL   H31716969   4.912   4.072   6.673  0.3565  0.3575 -0.4160
   47MOL   H31816970   4.740   4.060   6.658  0.7402  0.8222  0.7815
   47MOL   H31916971   4.776   3.920   6.447 -0.0525  1.5136 -0.8936
   47MOL   H32016972   4.763   4.147   6.328 -0.8180 -0.5191 -0.0568
   47MOL   H32116973   4.852   4.223   6.464  1.5403 -0.3578 -1.5427
   47MOL   H32216974   4.690   4.153   6.468 -0.6706 -0.4088 -0.2606
   47MOL   H32316975   4.995   3.857   6.476 -3.7152 -0.2046  0.9263
   47MOL   H32416976   4.973   3.920   6.316  2.9733 -1.8061  0.0949
   47MOL   H32516977   5.064   4.011   6.435 -0.1601 -0.9445  2.1228
   47MOL   C32616978   4.915   3.896   6.835  0.0334  0.6023  0.5937
   47MOL   C32716979   5.075   3.907   6.821  0.6775  0.3679 -0.4461
   47MOL   C32816980   5.134   3.776   6.758 -0.2682 -0.0636 -0.3097
   47MOL   C32916981   5.287   3.782   6.730 -0.0316  0.1142 -0.0155
   47MOL   C33016982   5.342   3.647   6.691  0.6346  0.8903 -0.4420
   47MOL   C33116983   5.330   3.881   6.624 -0.3508 -0.4631  0.3550
   47MOL   H33216984   4.907   3.808   6.899  0.1972  0.0682 -0.1264
   47MOL   H33316985   4.879   3.987   6.884 -2.6926 -1.5483  2.7939
   47MOL   H33416986   5.103   3.988   6.754  1.6571 -0.3128 -0.8643
   47MOL   H33516987   5.114   3.692   6.825  1.0444  0.5166  0.8405
   47MOL   H33616988   5.088   3.752   6.663 -1.2594  0.0799  0.1284
   47MOL   H33716989   5.337   3.805   6.824  1.5916  1.9015 -1.2621
   47MOL   H33816990   5.299   3.590   6.609  1.5541  0.7653 -0.8423
   47MOL   H33916991   5.332   3.565   6.763 -2.0737  2.0278  0.5161
   47MOL   H34016992   5.451   3.654   6.683  0.9818  0.2476  2.7796
   47MOL   H34116993   5.290   3.849   6.528 -1.8835  1.5537  0.2826
   47MOL   H34216994   5.291   3.982   6.639 -1.0615 -0.4478 -1.4540
   47MOL   H34316995   5.438   3.888   6.615 -0.0896 -2.3163  1.8286
   47MOL   C34416996   5.145   3.943   6.954  0.0236 -0.1862  0.9492
   47MOL   C34516997   5.122   3.849   7.070 -0.6354  0.4320 -0.5773
   47MOL   C34616998   5.189   3.898   7.199  0.0017  0.0632 -0.8991
   47MOL   C34716999   5.155   3.812   7.325 -0.0409  0.0682  0.0839
   47MOL   C34817000   5.211   3.885   7.442  0.3704 -0.3827 -0.3066
   47MOL   C34917001   5.218   3.679   7.304 -0.4473  0.0601  0.4172
   47MOL   H35017002   5.101   4.040   6.978  1.4240  1.0445 -1.3202
   47MOL   H35117003   5.253   3.957   6.944  0.2939 -0.9637  2.5571
   47MOL   H35217004   5.176   3.758   7.046 -1.1134 -0.1378  0.4430
   47MOL   H35317005   5.297   3.898   7.189  0.0949  0.0064  0.0317
   47MOL   H35417006   5.170   4.004   7.214  1.3439  0.2415 -0.4016
   47MOL   H35517007   5.048   3.811   7.348 -0.0508  2.3778  0.2986
   47MOL   H35617008   5.189   3.825   7.531  1.7908  1.4959  1.3702
   47MOL   H35717009   5.320   3.892   7.437  0.2707  1.1119 -0.5664
   47MOL   H35817010   5.178   3.987   7.462  1.3095 -0.5453  2.3885
   47MOL   H35917011   5.326   3.683   7.291 -0.4050 -0.0579  0.7252
   47MOL   H36017012   5.178   3.633   7.214 -1.2981 -0.3570  1.0044
   47MOL   H36117013   5.185   3.606   7.378  1.2078 -0.9442  0.1965
   47MOL   H36217014   5.015   3.832   7.084 -0.3149  0.1241  1.7385
   48MOL     C117015   7.682   4.679   4.591 -0.5162  0.4812  0.1857
   48MOL     C217016   7.547   4.714   4.655  0.6246  0.2500 -0.6075
   48MOL     C317017   7.551   4.823   4.763 -0.4041  0.7348 -0.2487
   48MOL     C417018   7.613   4.963   4.728  0.1622 -0.0226  0.1122
   48MOL     C517019   7.615   5.048   4.858  0.1000 -0.1359 -0.4921
   48MOL     C617020   7.539   5.044   4.621 -0.2165  0.1094  0.5107
   48MOL     H717021   7.672   4.596   4.522 -0.1251 -0.6376  1.4595
   48MOL     H817022   7.725   4.760   4.532 -0.1590 -0.0012 -0.2209
   48MOL     H917023   7.486   4.746   4.570 -1.6311 -1.3727  0.3335
   48MOL    H1017024   7.448   4.830   4.798 -0.0040 -3.0196  1.9472
   48MOL    H1117025   7.606   4.780   4.847 -0.8737  0.2046 -0.2122
   48MOL    H1217026   7.712   4.937   4.691 -0.5501  0.0656 -1.8903
   48MOL    H1317027   7.516   5.055   4.904  0.7679 -3.0433  1.5487
   48MOL    H1417028   7.664   4.987   4.934  0.6454 -1.0285 -1.5417
   48MOL    H1517029   7.671   5.140   4.840 -0.4282  0.1645 -0.6283
   48MOL    H1617030   7.432   5.046   4.640 -0.5790 -0.3931 -1.3250
   48MOL    H1717031   7.532   5.000   4.521 -0.8917 -0.9442  1.0087
   48MOL    H1817032   7.588   5.141   4.611  0.3156 -0.3556 -1.7201
   48MOL    H1917033   0.001   4.646   4.667 -1.6601 -1.0074  0.6100
   48MOL    C2017034   7.484   4.588   4.712  0.2786  0.3263  0.4224
   48MOL    C2117035   7.330   4.597   4.747  0.0999 -0.7918  0.3906
   48MOL    C2217036   7.237   4.654   4.630 -0.0220  0.6122  0.1676
   48MOL    C2317037   7.232   4.575   4.494  0.6563  0.3272  0.2260
   48MOL    C2417038   7.090   4.577   4.434 -0.1599 -0.0794  0.4848
   48MOL    C2517039   7.327   4.618   4.383 -0.4983  0.0400  0.3268
   48MOL    H2617040   7.495   4.511   4.636 -2.5585  2.4340 -2.2584
   48MOL    H2717041   7.532   4.554   4.803 -1.8109  0.6341  1.6795
   48MOL    H2817042   7.316   4.666   4.830 -1.0663 -1.6894  0.9674
   48MOL    H2917043   7.261   4.758   4.606  1.3201  0.4148  0.6272
   48MOL    H3017044   7.140   4.667   4.679  0.8047  0.8202  1.7744
   48MOL    H3117045   7.234   4.468   4.516 -0.7405  0.6348  1.9236
   48MOL    H3217046   7.087   4.505   4.353 -1.9380  1.0899 -0.5234
   48MOL    H3317047   7.077   4.677   4.391  0.0755 -0.0530  0.4727
   48MOL    H3417048   7.016   4.556   4.510 -0.2437 -0.1450  0.3854
   48MOL    H3517049   7.331   4.718   4.342  0.9094 -0.5034 -0.9138
   48MOL    H3617050   7.431   4.610   4.413 -0.7402  1.0446  1.4715
   48MOL    H3717051   7.317   4.554   4.295  0.7112  0.0843  0.1560
   48MOL    C3817052   7.284   4.455   4.802 -1.0032  0.1302  0.3309
   48MOL    C3917053   7.325   4.419   4.951  0.3071 -0.5539  0.3611
   48MOL    C4017054   7.282   4.276   4.995 -0.4647 -0.2863  0.2210
   48MOL    C4117055   7.333   4.159   4.915  0.6414 -0.0809 -0.8889
   48MOL    C4217056   7.230   4.046   4.904  0.2149 -0.7251  0.6805
   48MOL    C4317057   7.460   4.113   4.971  0.4220  0.1366  0.5312
   48MOL    H4417058   7.331   4.382   4.737  2.1106  2.6387 -0.4076
   48MOL    H4517059   7.176   4.447   4.791 -0.9827  1.5781 -1.0637
   48MOL    H4617060   7.434   4.412   4.948  0.2363 -1.4403 -0.3356
   48MOL    H4717061   7.173   4.283   4.987 -0.2945  1.3934 -0.8495
   48MOL    H4817062   7.299   4.256   5.101 -0.0694 -1.9829 -0.1449
   48MOL    H4917063   7.349   4.190   4.812  0.2393  0.6620 -0.7263
   48MOL    H5017064   7.194   4.028   5.005  0.7724 -0.1075  0.9912
   48MOL    H5117065   7.151   4.063   4.831  2.2755  0.9099 -1.2631
   48MOL    H5217066   7.279   3.952   4.878  0.6858 -0.6528  1.2886
   48MOL    H5317067   7.441   4.085   5.074  0.4171 -0.6652  0.3105
   48MOL    H5417068   7.537   4.190   4.961  0.6449 -0.4166 -2.4572
   48MOL    H5517069   7.494   4.020   4.926 -1.7672  0.1310 -1.1964
   48MOL    C5617070   7.280   4.524   5.060  0.0674  0.7170  0.4610
   48MOL    C5717071   7.389   4.612   5.125 -0.3268 -0.3305  0.1069
   48MOL    C5817072   7.512   4.525   5.176  0.2497 -0.5269  0.0650
   48MOL    C5917073   7.630   4.596   5.253 -0.1477  0.3793  0.4804
   48MOL    C6017074   7.695   4.701   5.173 -0.4378 -0.1308 -0.2182
   48MOL    C6117075   7.729   4.485   5.297 -0.0002  0.4281  0.4201
   48MOL    H6217076   7.231   4.479   5.147  3.3519 -2.7076  0.6895
   48MOL    H6317077   7.199   4.579   5.012 -0.0164  0.5999  0.4704
   48MOL    H6417078   7.444   4.663   5.046  0.0061  3.8391  2.8638
   48MOL    H6517079   7.472   4.450   5.244 -0.5000 -1.9490 -1.8971
   48MOL    H6617080   7.542   4.464   5.091  0.6586 -0.9056  0.4808
   48MOL    H6717081   7.588   4.633   5.347  0.7080  0.9174  0.6540
   48MOL    H6817082   7.740   4.663   5.081  2.2709 -0.3473  1.1456
   48MOL    H6917083   0.019   4.749   5.234 -0.3173 -0.6537  0.0473
   48MOL    H7017084   7.635   4.789   5.151  0.7064  0.3678 -1.4044
   48MOL    H7117085   7.750   4.425   5.208  0.4463 -0.0680  0.8645
   48MOL    H7217086   7.677   4.422   5.369  0.4788  1.1320  1.3954
   48MOL    H7317087   0.070   4.520   5.341  0.5138  1.6187 -1.5375
   48MOL    C7417088   7.339   4.706   5.240  0.2890 -0.4080 -0.5109
   48MOL    C7517089   7.223   4.800   5.219  0.1753 -0.5005 -0.0922
   48MOL    C7617090   7.253   4.879   5.087 -0.2549 -0.1626  1.2120
   48MOL    C7717091   7.144   4.969   5.034 -0.3201 -0.4578  0.1780
   48MOL    C7817092   7.027   4.885   4.973 -0.4083 -0.7082 -0.1907
   48MOL    C7917093   7.187   5.079   4.931 -0.3184 -0.4663  0.1719
   48MOL    H8017094   7.423   4.765   5.277 -0.3873  2.4600 -3.3634
   48MOL    H8117095   7.308   4.644   5.325  1.4665 -2.1218 -1.3139
   48MOL    H8217096   7.129   4.746   5.204 -0.4739  0.0868  1.7149
   48MOL    H8317097   7.343   4.936   5.113 -0.0093  0.6306 -1.2178
   48MOL    H8417098   7.278   4.819   5.000 -0.8661  2.0465 -0.5381
   48MOL    H8517099   7.111   5.031   5.117 -0.8725 -0.7735  0.1986
   48MOL    H8617100   6.934   4.936   4.950  0.1862  0.0162 -1.0314
   48MOL    H8717101   6.997   4.798   5.032  0.2952 -0.5504  0.4144
   48MOL    H8817102   7.068   4.846   4.880  1.4603 -0.2868  0.4298
   48MOL    H8917103   7.206   5.025   4.838  1.7392 -1.4447  1.1469
   48MOL    H9017104   7.112   5.157   4.916 -0.6767 -1.2295 -2.1198
   48MOL    H9117105   7.278   5.135   4.947  0.2487 -0.5648 -2.4706
   48MOL    C9217106   7.192   4.893   5.340  0.4347  0.0981 -0.1307
   48MOL    C9317107   7.047   4.908   5.389 -0.4801  0.1535  0.3811
   48MOL    C9417108   6.990   4.777   5.444 -0.7292 -0.2975 -0.5119
   48MOL    C9517109   6.839   4.798   5.479  0.0934  0.4879 -0.7687
   48MOL    C9617110   6.732   4.801   5.369  0.4652 -0.1048 -0.4121
   48MOL    C9717111   6.798   4.690   5.580  0.5273  0.5376  0.0057
   48MOL    H9817112   7.252   4.855   5.423 -0.7794 -1.2489  0.1444
   48MOL    H9917113   7.227   4.993   5.317 -0.1208 -0.0560 -1.7064
   48MOL   H10017114   6.996   4.949   5.302 -1.1729 -0.9287  0.2648
   48MOL   H10117115   7.038   4.748   5.538 -1.6723  0.9186  0.3610
   48MOL   H10217116   7.004   4.696   5.372  0.0991  1.8601 -2.8430
   48MOL   H10317117   6.829   4.891   5.534 -0.6459 -0.3143  0.4833
   48MOL   H10417118   6.730   4.895   5.314  1.8195 -0.9086 -1.8608
   48MOL   H10517119   6.631   4.800   5.410 -0.0298  0.2805 -1.6076
   48MOL   H10617120   6.742   4.713   5.306 -2.1288  0.1164 -1.1799
   48MOL   H10717121   6.872   4.677   5.660 -0.8331  0.4201  1.2637
   48MOL   H10817122   6.796   4.594   5.528  1.0645  2.2982 -3.4300
   48MOL   H10917123   6.708   4.713   5.636  0.3359  0.5238 -0.3004
   48MOL   C11017124   7.056   5.020   5.509  0.1696  0.1315  0.4810
   48MOL   C11117125   6.980   5.149   5.478  0.4570  0.5684  0.0592
   48MOL   C11217126   6.993   5.257   5.586 -0.5887  0.7478  0.2997
   48MOL   C11317127   6.926   5.219   5.716 -0.1130 -0.2368  0.9423
   48MOL   C11417128   6.771   5.190   5.717 -0.5732  0.6497  0.0683
   48MOL   C11517129   6.960   5.323   5.823  0.3120  1.0454 -0.4740
   48MOL   H11617130   7.160   5.036   5.538 -0.0805 -0.3360  1.6513
   48MOL   H11717131   7.017   4.972   5.599  1.2016  0.6927  1.2360
   48MOL   H11817132   6.875   5.122   5.468  0.6672 -1.5303  2.9321
   48MOL   H11917133   6.948   5.348   5.544 -1.2162  0.9319  1.3645
   48MOL   H12017134   7.098   5.280   5.601  0.3953 -2.9124 -0.4642
   48MOL   H12117135   6.973   5.127   5.750  0.7926  0.5421  1.8088
   48MOL   H12217136   6.716   5.275   5.677 -3.3748 -1.8841 -1.6940
   48MOL   H12317137   6.746   5.173   5.821  1.4399  0.5149  0.5513
   48MOL   H12417138   6.740   5.109   5.651 -1.3956  1.4504 -0.5539
   48MOL   H12517139   6.889   5.406   5.817  0.8441  1.7172  1.8783
   48MOL   H12617140   7.061   5.363   5.814  1.1990 -1.3226 -1.3005
   48MOL   H12717141   6.948   5.275   5.920 -1.9659 -1.5634 -1.9754
   48MOL   C12817142   7.015   5.223   5.347  0.7515  0.1645  0.1345
   48MOL   C12917143   6.893   5.288   5.274  0.0174 -0.5475  0.8913
   48MOL   C13017144   6.815   5.185   5.186 -0.7287 -0.5434 -0.0616
   48MOL   C13117145   6.665   5.210   5.166 -0.3666 -0.0029  0.0173
   48MOL   C13217146   6.599   5.126   5.058  0.2729 -0.2511  0.0012
   48MOL   C13317147   6.598   5.191   5.301  0.3649 -0.3948 -0.0596
   48MOL   H13417148   7.048   5.148   5.275  1.5847 -0.1986  0.8871
   48MOL   H13517149   7.102   5.287   5.361  0.4933  0.6829 -0.5853
   48MOL   H13617150   6.828   5.313   5.357  0.6536  0.7767  1.0106
   48MOL   H13717151   6.872   5.177   5.093  1.7721  0.1376  1.3454
   48MOL   H13817152   6.827   5.088   5.236 -0.8598 -0.8253 -0.5779
   48MOL   H13917153   6.654   5.316   5.141  1.9672  0.7418  1.8690
   48MOL   H14017154   6.634   5.135   4.955  2.4647 -0.3248  0.7316
   48MOL   H14117155   6.490   5.122   5.058  0.2849 -0.5914  0.7626
   48MOL   H14217156   6.620   5.021   5.078  3.1586  0.2003 -0.4493
   48MOL   H14317157   6.637   5.109   5.361  0.6873  0.0712  0.3766
   48MOL   H14417158   6.609   5.283   5.360 -0.1472  0.3168 -1.0487
   48MOL   H14517159   6.489   5.187   5.300  0.3755 -0.4656 -1.3905
   48MOL   C14617160   6.928   5.419   5.205 -0.0285  0.3375  0.5539
   48MOL   C14717161   6.934   5.545   5.298 -0.8190 -0.4324  0.0512
   48MOL   C14817162   6.791   5.598   5.312 -0.4217 -0.0758 -0.8499
   48MOL   C14917163   6.762   5.681   5.437  0.5650 -0.3895  0.3757
   48MOL   C15017164   6.619   5.728   5.417  0.2715  0.0598  0.4934
   48MOL   C15117165   6.778   5.599   5.563 -0.3360  0.3409  0.2867
   48MOL   H15217166   6.867   5.435   5.116 -0.2611 -0.0968  0.6321
   48MOL   H15317167   7.026   5.398   5.165 -0.3211  0.5173 -0.2551
   48MOL   H15417168   6.963   5.505   5.395 -0.9401  0.3292  0.4024
   48MOL   H15517169   6.759   5.644   5.219  0.3958 -0.7597 -1.4694
   48MOL   H15617170   6.724   5.514   5.327 -1.1919  0.5659 -0.6291
   48MOL   H15717171   6.817   5.775   5.436  0.0249 -0.0459  1.5659
   48MOL   H15817172   6.588   5.799   5.493 -0.2713 -0.6220  0.9162
   48MOL   H15917173   6.550   5.645   5.430 -0.1590  0.2226 -0.6568
   48MOL   H16017174   6.602   5.775   5.320  0.9509 -0.3806  0.1498
   48MOL   H16117175   6.734   5.667   5.637 -1.2478  0.4453 -0.3386
   48MOL   H16217176   6.883   5.596   5.591 -0.5155  0.3463  0.9511
   48MOL   H16317177   6.739   5.498   5.561  1.8589 -0.5038 -1.3371
   48MOL   C16417178   7.023   5.652   5.235 -0.0754  0.0179  0.1728
   48MOL   C16517179   7.176   5.639   5.243 -0.2613  0.3268  0.0819
   48MOL   C16617180   7.251   5.709   5.125  0.0832  0.0272  0.4808
   48MOL   C16717181   7.261   5.635   4.986 -0.0155 -0.0974 -0.0314
   48MOL   C16817182   7.256   5.734   4.870 -0.0824  0.5647 -0.1377
   48MOL   C16917183   7.398   5.560   4.984 -0.1374 -0.2790 -0.0350
   48MOL   H17017184   7.008   5.648   5.127  1.6413 -0.1789 -0.0641
   48MOL   H17117185   7.002   5.756   5.260  0.5450  0.2927 -0.4322
   48MOL   H17217186   7.197   5.532   5.236 -0.0601  0.3690  0.0325
   48MOL   H17317187   7.195   5.801   5.110 -1.0701 -0.5846  0.9512
   48MOL   H17417188   7.347   5.753   5.152 -0.2306  0.8851  0.2060
   48MOL   H17517189   7.192   5.552   4.977  1.5767 -1.5258  0.7346
   48MOL   H17617190   7.326   5.818   4.875  0.0676  0.5528 -1.6835
   48MOL   H17717191   7.158   5.779   4.855  0.1979  1.3087  0.2205
   48MOL   H17817192   7.268   5.676   4.778  0.3094 -1.9796  1.4867
   48MOL   H17917193   7.414   5.508   4.890 -0.7778 -0.7370  0.1008
   48MOL   H18017194   7.412   5.480   5.057  1.3272  1.9623  2.2190
   48MOL   H18117195   7.480   5.632   4.989 -1.3754  1.1689 -0.1525
   48MOL   C18217196   7.224   5.682   5.384  0.1360  0.3105  0.0723
   48MOL   C18317197   7.358   5.616   5.429  0.4328  0.6274 -0.0697
   48MOL   C18417198   7.419   5.701   5.541  0.0644 -0.3325 -0.2652
   48MOL   C18517199   7.506   5.819   5.499  0.3666 -0.2145  0.1422
   48MOL   C18617200   7.528   5.928   5.604  0.2702  0.1001 -0.6694
   48MOL   C18717201   7.644   5.786   5.435  1.0029 -0.4248 -0.2425
   48MOL   H18817202   7.147   5.685   5.461  0.5301 -0.5692  0.5079
   48MOL   H18917203   7.254   5.786   5.372  1.2314 -0.0374 -0.2700
   48MOL   H19017204   7.431   5.626   5.349  1.4469  0.2423  0.7836
   48MOL   H19117205   7.484   5.653   5.614  1.7747  2.1102 -0.1376
   48MOL   H19217206   7.335   5.738   5.600  2.0414  0.5280  2.1133
   48MOL   H19317207   7.465   5.870   5.413  2.1702  1.1186  0.0326
   48MOL   H19417208   7.574   6.016   5.558 -0.0830  0.1371 -0.9581
   48MOL   H19517209   7.595   5.897   5.684 -0.4440 -2.2770 -0.9526
   48MOL   H19617210   7.434   5.957   5.652  0.1267  0.4737 -1.1643
   48MOL   H19717211   7.627   5.768   5.329  2.4093 -1.7430 -0.2578
   48MOL   H19817212   7.679   5.685   5.459  1.1195  0.1143  2.0221
   48MOL   H19917213   7.725   5.857   5.447  2.7786 -2.4802  0.3018
   48MOL   C20017214   7.329   5.474   5.487  0.2409  0.2087 -0.0781
   48MOL   C20117215   7.444   5.391   5.548 -0.3870 -0.1165 -0.0442
   48MOL   C20217216   7.481   5.265   5.450  0.1304  0.2010  0.4785
   48MOL   C20317217   7.531   5.300   5.307  0.1533  0.2096  0.3246
   48MOL   C20417218   7.667   5.368   5.299  0.4655  0.4134  0.2758
   48MOL   C20517219   7.528   5.182   5.214  0.7052 -0.6366 -0.1174
   48MOL   H20617220   7.285   5.415   5.407  1.8524  0.1652 -0.9340
   48MOL   H20717221   7.245   5.475   5.557  0.4774  1.3596  0.1986
   48MOL   H20817222   7.535   5.450   5.539  0.2679 -0.9871  0.7323
   48MOL   H20917223   7.564   5.226   5.508 -0.8186  1.0679  2.4792
   48MOL   H21017224   7.393   5.200   5.447 -0.6208  1.2064  0.3504
   48MOL   H21117225   7.461   5.372   5.265  1.7711 -0.2672 -3.3938
   48MOL   H21217226   7.736   5.295   5.342 -0.6054  1.2913  3.6100
   48MOL   H21317227   7.665   5.458   5.360 -2.8770 -0.8892  2.2191
   48MOL   H21417228   7.703   5.390   5.199  2.0263  0.9910  0.9395
   48MOL   H21517229   7.427   5.150   5.189  1.7571 -3.0128 -1.4920
   48MOL   H21617230   7.592   5.103   5.253 -0.8500 -1.5620  0.6181
   48MOL   H21717231   7.568   5.218   5.120  0.1992 -0.2703 -0.1958
   48MOL   C21817232   7.411   5.354   5.697  0.0478  0.0859 -0.2310
   48MOL   C21917233   7.518   5.281   5.776  0.7042 -0.4244 -0.5811
   48MOL   C22017234   7.451   5.234   5.904  0.1417 -0.5917  0.1655
   48MOL   C22117235   7.394   5.088   5.909 -0.1755 -0.7751  0.5431
   48MOL   C22217236   7.377   5.024   6.046 -0.5718  0.2361 -0.7057
   48MOL   C22317237   7.267   5.070   5.824  0.6336  0.7164 -0.4704
   48MOL   H22417238   7.384   5.438   5.760  1.7320 -0.7420  1.6762
   48MOL   H22517239   7.326   5.286   5.690 -1.0522  1.4884 -0.5683
   48MOL   H22617240   7.544   5.191   5.721 -0.8968 -1.0083 -0.3964
   48MOL   H22717241   7.531   5.237   5.978  2.6737 -1.8767 -2.4222
   48MOL   H22817242   7.379   5.304   5.946 -0.5089 -0.5645 -0.9791
   48MOL   H22917243   7.468   5.032   5.852 -2.5396 -3.4580 -0.0473
   48MOL   H23017244   7.335   5.099   6.113 -2.2255 -1.0481 -0.2694
   48MOL   H23117245   7.327   4.927   6.041  1.0275 -0.6485  0.0880
   48MOL   H23217246   7.470   4.985   6.087 -0.9009 -0.6601 -0.8040
   48MOL   H23317247   7.210   4.982   5.855 -2.1018  2.7033  0.3225
   48MOL   H23417248   7.198   5.146   5.862  1.2186  1.2725 -0.5202
   48MOL   H23517249   7.285   5.054   5.717  0.8189  1.4067 -0.5422
   48MOL   C23617250   7.655   5.361   5.787  0.5610  0.6197 -0.6828
   48MOL   C23717251   0.027   5.270   5.799 -0.4981  0.0478 -0.2335
   48MOL   C23817252   0.133   5.317   5.904 -0.3127  0.1657  0.4597
   48MOL   C23917253   0.107   5.297   6.054 -0.3576 -0.0820  0.0783
   48MOL   C24017254   0.103   5.148   6.085 -0.3250 -0.2592 -0.7567
   48MOL   C24117255   0.207   5.371   6.152  0.1831 -0.0375  0.4811
   48MOL   H24217256   7.635   5.427   5.872 -0.3184 -1.2163  0.5871
   48MOL   H24317257   7.665   5.424   5.699 -2.5890  0.9742 -0.8370
   48MOL   H24417258   7.750   5.168   5.820  0.9770 -0.1398  0.9793
   48MOL   H24517259   0.143   5.425   5.888 -2.1432  0.1781 -0.8195
   48MOL   H24617260   0.236   5.286   5.885 -0.1866  0.2379  1.0315
   48MOL   H24717261   0.013   5.352   6.062  0.1782  1.0568 -1.1655
   48MOL   H24817262   0.011   5.097   6.059 -0.2586 -1.6556  1.5949
   48MOL   H24917263   0.099   5.124   6.192 -3.0059 -2.9000 -1.3768
   48MOL   H25017264   0.174   5.092   6.025 -0.6293  0.1186 -1.4770
   48MOL   H25117265   0.188   5.381   6.258 -0.5441  2.7740  0.1164
   48MOL   H25217266   0.226   5.473   6.120  0.4180 -0.6109 -1.2788
   48MOL   H25317267   0.306   5.327   6.144  0.5980  0.8627  0.6557
   48MOL   C25417268   0.091   5.256   5.668 -0.0296  1.0812  0.0223
   48MOL   C25517269   0.176   5.132   5.661  0.4305  0.8019  0.4325
   48MOL   C25617270   0.087   5.021   5.593  0.1454  0.4995  0.5388
   48MOL   C25717271   0.124   4.875   5.646  0.8411 -0.2180  0.2836
   48MOL   C25817272   0.079   4.751   5.556  1.2102 -0.3518 -0.1109
   48MOL   C25917273   0.065   4.857   5.789 -0.0349 -0.4432  0.0990
   48MOL   H26017274   0.010   5.247   5.596 -0.8242 -0.8231  1.1026
   48MOL   H26117275   0.137   5.345   5.625  0.0106  0.4282 -1.2942
   48MOL   H26217276   0.189   5.091   5.761  0.2397 -1.9457 -0.6302
   48MOL   H26317277   0.103   5.032   5.486  0.8259 -2.2802  0.3081
   48MOL   H26417278   7.734   5.041   5.607  0.0935  1.2744 -0.8961
   48MOL   H26517279   0.231   4.853   5.647  1.2610  1.5601 -1.4156
   48MOL   H26617280   0.129   4.748   5.459 -0.6248 -1.6215 -1.0494
   48MOL   H26717281   7.724   4.735   5.545  1.4460 -0.3158 -2.7171
   48MOL   H26817282   0.122   4.661   5.600  0.5470 -1.5133 -1.7992
   48MOL   H26917283   7.711   4.874   5.804  0.5064  1.1847  2.3779
   48MOL   H27017284   0.088   4.757   5.826  2.2363  0.7704  2.1876
   48MOL   H27117285   0.114   4.922   5.862  0.7680 -0.0512 -0.7788
   48MOL   C27217286   0.306   5.145   5.584 -0.3973 -0.4592  0.1997
   48MOL   C27317287   0.411   5.237   5.648  0.0165  0.1931  0.7647
   48MOL   C27417288   0.471   5.162   5.771 -1.0726  0.0309 -0.0786
   48MOL   C27517289   0.584   5.238   5.850  0.1511  0.0378  0.1955
   48MOL   C27617290   0.640   5.145   5.963  0.7229 -0.2253 -0.0851
   48MOL   C27717291   0.544   5.371   5.915  0.1847 -0.1235  0.1737
   48MOL   H27817292   0.354   5.047   5.571 -0.2457 -0.8251  3.1648
   48MOL   H27917293   0.281   5.187   5.487 -1.9717  0.7059  1.0996
   48MOL   H28017294   0.362   5.328   5.684 -0.8606 -0.0074  0.1080
   48MOL   H28117295   0.522   5.069   5.745  1.6223  0.6744  2.6783
   48MOL   H28217296   0.391   5.140   5.842  1.7590 -1.3570  2.7841
   48MOL   H28317297   0.672   5.258   5.789  0.3797  0.3640  0.6333
   48MOL   H28417298   0.626   5.039   5.942  2.9693 -0.5466 -0.0907
   48MOL   H28517299   0.746   5.148   5.989  0.9497  1.4602 -1.0936
   48MOL   H28617300   0.581   5.154   6.054  0.1622  0.0888 -0.4796
   48MOL   H28717301   0.451   5.362   5.971 -0.1946  2.8420  0.1071
   48MOL   H28817302   0.626   5.415   5.972 -0.3587  0.6476  0.3767
   48MOL   H28917303   0.525   5.454   5.846  0.6600  0.8303  1.1721
   48MOL   C29017304   0.526   5.276   5.547 -0.3030 -0.3489 -0.1304
   48MOL   C29117305   0.485   5.371   5.434 -0.8859 -0.5514  1.2758
   48MOL   C29217306   0.486   5.518   5.499  0.0732 -0.4217  0.6820
   48MOL   C29317307   0.384   5.614   5.434 -0.0494  0.0012  0.4650
   48MOL   C29417308   0.246   5.570   5.482  0.0098  0.3251  0.5856
   48MOL   C29517309   0.409   5.763   5.459 -0.4023 -0.0745  0.0897
   48MOL   H29617310   0.609   5.313   5.608 -2.3491  1.1260  1.8571
   48MOL   H29717311   0.581   5.188   5.513  0.1047 -0.3021  0.4009
   48MOL   H29817312   0.382   5.347   5.408 -1.0994 -1.7543  3.1701
   48MOL   H29917313   0.582   5.567   5.485  0.7549 -0.9287  3.2483
   48MOL   H30017314   0.486   5.523   5.608 -0.3630 -0.2235  0.6712
   48MOL   H30117315   0.398   5.592   5.328  2.2234  0.4330  0.6386
   48MOL   H30217316   0.239   5.542   5.587 -1.1679  1.6689  0.8743
   48MOL   H30317317   0.221   5.476   5.433  0.3842 -0.4776  1.8913
   48MOL   H30417318   0.169   5.646   5.475  1.4507  1.9412  1.6445
   48MOL   H30517319   0.463   5.800   5.372  1.0531 -0.2183  0.9185
   48MOL   H30617320   0.452   5.783   5.557  0.4436  0.4032 -0.3798
   48MOL   H30717321   0.314   5.817   5.454 -1.1899 -1.4764 -0.6537
   48MOL   C30817322   0.586   5.359   5.315  0.0510 -0.1425 -0.3708
   48MOL   C30917323   0.563   5.234   5.222  0.7367 -0.9148  0.4106
   48MOL   C31017324   0.450   5.278   5.122  0.1672  0.0131 -0.6901
   48MOL   C31117325   0.395   5.158   5.048 -0.7898 -0.3118 -1.2988
   48MOL   C31217326   0.298   5.062   5.129  0.8233 -0.3414 -0.0509
   48MOL   C31317327   0.322   5.217   4.925  0.4502  0.0094 -0.2524
   48MOL   H31417328   0.580   5.457   5.268  1.5038  0.6206  0.9383
   48MOL   H31517329   0.690   5.366   5.349 -0.9227  0.2042  2.7183
   48MOL   H31617330   0.524   5.165   5.296 -1.1000 -0.9310 -0.5270
   48MOL   H31717331   0.502   5.342   5.051  0.4523 -1.1832 -1.5866
   48MOL   H31817332   0.365   5.338   5.154 -0.7857 -2.8806  2.4792
   48MOL   H31917333   0.470   5.088   5.010 -0.9797 -2.4871  2.1080
   48MOL   H32017334   0.341   5.015   5.217  1.8815  0.0497 -0.3400
   48MOL   H32117335   0.266   4.982   5.062  0.5686  0.5163 -0.9734
   48MOL   H32217336   0.206   5.114   5.155  2.5934  1.6855  2.4129
   48MOL   H32317337   0.259   5.304   4.948 -1.2963 -1.4857  0.7270
   48MOL   H32417338   0.389   5.244   4.843  2.3654  2.3912  2.0083
   48MOL   H32517339   0.257   5.142   4.880  0.9947 -0.8752  0.4369
   48MOL   C32617340   0.687   5.178   5.159  0.0118 -1.2850 -0.2270
   48MOL   C32717341   0.792   5.119   5.267  0.4781  0.0672 -0.9137
   48MOL   C32817342   0.936   5.129   5.215  0.3785 -0.0315  0.3362
   48MOL   C32917343   0.991   5.269   5.164 -0.4379 -0.0407 -0.1527
   48MOL   C33017344   0.980   5.387   5.260  0.4724  0.1667 -0.0117
   48MOL   C33117345   1.137   5.255   5.124  0.4837  0.1263  0.1923
   48MOL   H33217346   0.737   5.262   5.111  2.3238 -1.5956  1.4850
   48MOL   H33317347   0.663   5.096   5.092  1.6614 -1.0889 -1.0876
   48MOL   H33417348   0.800   5.192   5.348  0.1995 -0.4325 -0.4290
   48MOL   H33517349   1.003   5.088   5.291 -0.2392  1.0708  1.5003
   48MOL   H33617350   0.944   5.067   5.126 -1.8086  0.3965 -0.2035
   48MOL   H33717351   0.945   5.286   5.067  1.5649 -1.4022 -1.3727
   48MOL   H33817352   1.034   5.475   5.225 -2.2596  1.7868 -0.3626
   48MOL   H33917353   0.993   5.367   5.366 -0.7320 -0.4194  0.0416
   48MOL   H34017354   0.881   5.430   5.243  0.1389 -0.6433 -0.1570
   48MOL   H34117355   1.171   5.346   5.075 -0.6679  0.6116  0.2895
   48MOL   H34217356   1.196   5.222   5.209  0.5510 -0.0389  0.0830
   48MOL   H34317357   1.139   5.174   5.050 -2.1818 -1.4539  1.7729
   48MOL   C34417358   0.747   4.977   5.310  0.2064 -0.2072  0.2473
   48MOL   C34517359   0.808   4.927   5.441 -0.5124  0.2532 -0.1190
   48MOL   C34617360   0.780   4.777   5.479  0.1756 -0.9017  0.3122
   48MOL   C34717361   0.848   4.728   5.601  0.0948  0.6263  0.2556
   48MOL   C34817362   0.817   4.578   5.606  0.5547  0.5468  0.8941
   48MOL   C34917363   0.808   4.808   5.723  0.2832  0.5948  0.2363
   48MOL   H35017364   0.769   4.906   5.230  1.6601 -1.0420  1.3500
   48MOL   H35117365   0.640   4.970   5.325  0.2239  0.3221  0.6367
   48MOL   H35217366   0.765   4.980   5.527 -2.5292 -0.6765 -0.5195
   48MOL   H35317367   0.675   4.754   5.497  0.1224  0.0160  1.1671
   48MOL   H35417368   0.812   4.711   5.397  1.2177 -1.0094  0.8053
   48MOL   H35517369   0.952   4.756   5.582  0.6522 -1.2957  0.3300
   48MOL   H35617370   0.712   4.564   5.633 -0.6957  1.1257 -3.3986
   48MOL   H35717371   0.850   4.525   5.517  0.9523 -2.5078  2.7841
   48MOL   H35817372   0.878   4.538   5.687 -0.8013  0.2234  1.7869
   48MOL   H35917373   0.865   4.784   5.813 -3.1197  1.5231  2.7818
   48MOL   H36017374   0.702   4.790   5.742  0.0606  0.4834 -1.0932
   48MOL   H36117375   0.829   4.914   5.718  0.6890  0.3983 -2.8103
   48MOL   H36217376   0.914   4.950   5.446 -0.4933 -0.0353  0.9133
   49MOL     C117377   3.296   0.266   3.142  0.2619  0.0095  0.2376
   49MOL     C217378   3.210   0.383   3.198  0.0053  0.1028 -0.3216
   49MOL     C317379   3.151   0.351   3.342  0.2609 -0.0370 -0.0744
   49MOL     C417380   3.274   0.334   3.438  0.6149 -0.4021  0.1732
   49MOL     C517381   3.232   0.248   3.566  0.0533 -0.0722  0.3593
   49MOL     C617382   3.343   0.471   3.475  1.2118  0.4577  0.2087
   49MOL     H717383   3.393   0.275   3.189  0.0482 -0.1354  0.7056
   49MOL     H817384   3.253   0.167   3.158 -0.4227  0.4647  1.2290
   49MOL     H917385   3.282   0.464   3.209 -0.3682  0.1137  2.5134
   49MOL    H1017386   3.087   0.435   3.370  0.6273  0.2235 -0.0058
   49MOL    H1117387   3.089   0.262   3.333  1.3658 -0.7739 -0.4529
   49MOL    H1217388   3.344   0.260   3.399  2.6235 -0.2017  3.2594
   49MOL    H1317389   3.173   0.311   3.632  2.4095  2.1824  0.4209
   49MOL    H1417390   3.181   0.155   3.541 -1.2889  0.6143  0.5131
   49MOL    H1517391   3.325   0.223   3.618 -1.0698 -0.8769  1.9838
   49MOL    H1617392   3.429   0.455   3.540  2.5449 -3.6801 -2.3922
   49MOL    H1717393   3.271   0.546   3.507  1.1525  0.0686  1.0185
   49MOL    H1817394   3.376   0.517   3.382 -1.7389  1.6113 -0.3225
   49MOL    H1917395   3.305   0.259   3.033  2.1876 -0.5411  0.4161
   49MOL    C2017396   3.110   0.426   3.093 -0.2290 -0.1119 -0.6348
   49MOL    C2117397   3.046   0.564   3.095 -0.1748  0.7795 -0.5950
   49MOL    C2217398   3.153   0.669   3.083 -0.2717 -0.3060 -0.4769
   49MOL    C2317399   3.197   0.741   3.212  0.4193 -0.6217 -0.2204
   49MOL    C2417400   3.357   0.748   3.230 -1.0178 -0.0271  0.6031
   49MOL    C2517401   3.138   0.884   3.208 -0.6322  0.3873 -0.1254
   49MOL    H2617402   3.152   0.425   2.993  0.1415 -0.0544 -0.4781
   49MOL    H2717403   3.036   0.346   3.089 -1.8756  1.4037 -2.1028
   49MOL    H2817404   3.014   0.565   3.199  1.6855 -1.8693  0.0466
   49MOL    H2917405   3.117   0.746   3.015 -1.0612 -1.3654 -1.2791
   49MOL    H3017406   3.242   0.636   3.028  0.6771  0.0953  0.7946
   49MOL    H3117407   3.164   0.681   3.296 -0.9721  0.9957  0.3960
   49MOL    H3217408   3.406   0.658   3.193 -0.5466  0.6258 -0.3906
   49MOL    H3317409   3.380   0.772   3.334 -2.9958  2.1986  0.5564
   49MOL    H3417410   3.398   0.831   3.172 -0.0706 -0.4114  0.7072
   49MOL    H3517411   3.030   0.883   3.221 -0.7378  1.0654 -0.8913
   49MOL    H3617412   3.182   0.936   3.293  0.7936  2.4726 -2.0856
   49MOL    H3717413   3.154   0.941   3.116  0.2124  2.0743  1.0487
   49MOL    C3817414   2.936   0.573   2.988 -0.3284  0.1054 -0.1512
   49MOL    C3917415   2.811   0.487   3.014 -0.4877 -0.1032 -0.2686
   49MOL    C4017416   2.738   0.459   2.874  0.0728  0.3839  0.0016
   49MOL    C4117417   2.811   0.380   2.767 -0.4918 -0.3750  0.6732
   49MOL    C4217418   2.724   0.351   2.647  0.2198 -0.5159  1.0001
   49MOL    C4317419   2.878   0.252   2.824 -0.4861  0.0912  0.0035
   49MOL    H4417420   2.992   0.547   2.898 -1.8455 -0.2955 -1.0118
   49MOL    H4517421   2.899   0.676   2.983  0.3965  0.3239 -1.2768
   49MOL    H4617422   2.840   0.390   3.054  0.5343  0.9636  1.5988
   49MOL    H4717423   2.700   0.550   2.829  0.7763  0.5432 -0.2759
   49MOL    H4817424   2.641   0.410   2.886  0.6582 -0.8857 -0.3485
   49MOL    H4917425   2.886   0.449   2.727 -0.6882 -0.8032 -0.4355
   49MOL    H5017426   2.630   0.319   2.693 -1.1268 -0.4247 -1.5729
   49MOL    H5117427   2.710   0.442   2.590 -1.5625  0.5041  2.9854
   49MOL    H5217428   2.761   0.270   2.583 -0.0957  0.3232 -0.2581
   49MOL    H5317429   2.821   0.168   2.864 -0.4867  0.1708  0.1706
   49MOL    H5417430   2.946   0.283   2.903 -1.2604 -0.9282  1.0908
   49MOL    H5517431   2.938   0.205   2.747 -3.5905  0.1971 -2.5930
   49MOL    C5617432   2.715   0.551   3.111  0.1620  0.2525  0.4091
   49MOL    C5717433   2.600   0.462   3.159  0.5082  0.2441 -0.1625
   49MOL    C5817434   2.483   0.554   3.206  0.2284  0.0724  0.2898
   49MOL    C5917435   2.394   0.612   3.096 -0.8700  0.5265  0.3133
   49MOL    C6017436   2.296   0.725   3.144 -0.4910 -0.0960 -0.5322
   49MOL    C6117437   2.318   0.497   3.032 -0.0330  0.2287  0.6149
   49MOL    H6217438   2.677   0.649   3.082 -0.0827  0.4727  1.4660
   49MOL    H6317439   2.772   0.576   3.200 -0.5301 -0.3189  1.0205
   49MOL    H6417440   2.563   0.403   3.075  2.3323 -0.3219 -0.5804
   49MOL    H6517441   2.426   0.504   3.284  3.1820 -1.0693  1.8028
   49MOL    H6617442   2.522   0.644   3.254 -1.0236  1.2571 -0.8656
   49MOL    H6717443   2.461   0.648   3.018 -0.2336 -1.3955 -0.0560
   49MOL    H6817444   2.259   0.710   3.246 -0.9210 -2.2666 -0.9780
   49MOL    H6917445   2.216   0.762   3.080 -1.1450  0.8566  0.8161
   49MOL    H7017446   2.347   0.820   3.154 -0.4245  0.0262 -1.8967
   49MOL    H7117447   2.377   0.425   2.976 -0.2901  0.1935  0.3893
   49MOL    H7217448   2.234   0.534   2.974 -0.2542  0.4699  1.0854
   49MOL    H7317449   2.274   0.425   3.101  1.2848  1.2886  2.6147
   49MOL    C7417450   2.636   0.358   3.261 -0.1770 -0.6797 -0.1022
   49MOL    C7517451   2.674   0.210   3.219  0.4733  0.4021 -0.0429
   49MOL    C7617452   2.538   0.138   3.199 -0.4426  0.0599  0.0694
   49MOL    C7717453   2.537   0.053   3.067  0.0341 -0.8190 -0.1305
   49MOL    C7817454   2.494   0.141   2.952  0.6093  0.0773 -0.6557
   49MOL    C7917455   2.439   7.690   3.074  0.0962  0.4197 -0.3860
   49MOL    H8017456   2.564   0.370   3.342 -1.1054  0.9636 -1.1469
   49MOL    H8117457   2.723   0.398   3.312  0.1318 -1.7057  0.1769
   49MOL    H8217458   2.734   0.218   3.128 -0.6664 -1.9639 -1.0556
   49MOL    H8317459   2.527   0.070   3.284  0.8829 -0.2520  0.0049
   49MOL    H8417460   2.457   0.211   3.202  0.7771  1.4320 -0.0713
   49MOL    H8517461   2.638   0.014   3.054 -0.7589 -3.1292  0.4245
   49MOL    H8617462   2.484   0.090   2.856  0.9403 -1.6624  0.2099
   49MOL    H8717463   2.570   0.214   2.923  0.1315  0.6223 -0.5224
   49MOL    H8817464   2.396   0.186   2.964  0.3627 -0.7202  0.4657
   49MOL    H8917465   2.443   7.628   2.984  0.6509 -0.4599  0.2281
   49MOL    H9017466   2.477   7.618   3.147 -3.2163 -1.2984 -0.2428
   49MOL    H9117467   2.335   7.716   3.096 -0.4643  0.9723 -3.5386
   49MOL    C9217468   2.749   0.137   3.330  0.2467  0.1035  0.3325
   49MOL    C9317469   2.801   7.743   3.300 -0.0041 -0.1145 -0.2944
   49MOL    C9417470   2.899   7.751   3.171 -0.3102 -0.4181  0.0562
   49MOL    C9517471   2.953   7.614   3.125 -0.1257  0.4040  0.2810
   49MOL    C9617472   2.849   7.552   3.026 -0.4993 -0.0839  0.0348
   49MOL    C9717473   3.088   7.637   3.058  0.0352 -0.2782  0.1968
   49MOL    H9817474   2.837   0.196   3.358  0.3425  1.0069 -1.7702
   49MOL    H9917475   2.681   0.141   3.414 -0.0651 -1.9372  0.2033
   49MOL   H10017476   2.718   7.676   3.277 -0.5532  0.3488  0.3519
   49MOL   H10117477   2.978   0.070   3.193 -0.6918 -0.3947  1.4295
   49MOL   H10217478   2.843   0.039   3.087  0.5973 -1.4439 -1.0573
   49MOL   H10317479   2.962   7.539   3.203 -0.4891 -0.3270 -0.3736
   49MOL   H10417480   2.863   7.447   3.003  1.8050  0.3126 -0.5650
   49MOL   H10517481   2.834   7.610   2.935 -1.7061 -0.4706 -0.0082
   49MOL   H10617482   2.753   7.552   3.077  0.0826 -0.3055  1.1492
   49MOL   H10717483   3.081   7.709   2.976  1.0677  0.1375  0.4654
   49MOL   H10817484   3.123   7.540   3.024 -0.0947 -0.0915 -0.4880
   49MOL   H10917485   3.165   7.664   3.130  0.6560 -2.8954  0.5401
   49MOL   C11017486   2.878   7.689   3.425 -0.3825 -0.5964  0.2136
   49MOL   C11117487   2.792   7.649   3.549  0.8408 -0.5062  0.8352
   49MOL   C11217488   2.707   7.519   3.528  0.1994 -0.9966 -0.7926
   49MOL   C11317489   2.568   7.531   3.453  0.4231 -0.6033 -0.5443
   49MOL   C11417490   2.466   7.627   3.524 -0.4206  0.0626 -1.0568
   49MOL   C11517491   2.508   7.394   3.424  0.6785  0.3203  0.1020
   49MOL   H11617492   2.949   0.011   3.461 -1.3049 -0.7118  2.3652
   49MOL   H11717493   2.944   7.605   3.402 -0.1992 -0.3220 -0.2713
   49MOL   H11817494   2.723   7.731   3.566  1.0768 -0.1173 -0.0748
   49MOL   H11917495   2.678   7.478   3.626 -0.2717  2.6353  0.6592
   49MOL   H12017496   2.769   7.445   3.478 -1.2826 -4.2956  2.0078
   49MOL   H12117497   2.572   7.563   3.349 -0.6554  0.6683 -0.1992
   49MOL   H12217498   2.504   7.729   3.535 -0.2767 -0.3341  2.9703
   49MOL   H12317499   2.443   7.595   3.626 -0.9079  0.6298 -0.9827
   49MOL   H12417500   2.375   7.648   3.467  0.7786  1.8429 -2.3647
   49MOL   H12517501   2.489   7.337   3.514  1.7904  0.3711  0.3782
   49MOL   H12617502   2.570   7.321   3.370  3.3124  2.7152 -0.2041
   49MOL   H12717503   2.419   7.399   3.362  0.6091  2.0729  0.3438
   49MOL   C12817504   2.883   7.623   3.673 -0.5014  0.1671  0.2071
   49MOL   C12917505   2.931   0.004   3.743  0.7027  0.3892 -0.8588
   49MOL   C13017506   3.067   7.742   3.814  0.2400  0.0124  0.6318
   49MOL   C13117507   3.071   7.651   3.941 -0.0941 -0.8546 -0.2626
   49MOL   C13217508   3.175   7.533   3.936  0.0318 -0.6656 -0.7732
   49MOL   C13317509   3.080   7.734   4.069  0.1942 -0.0078 -0.8414
   49MOL   H13417510   2.970   7.565   3.643  0.8622  2.1482  0.1918
   49MOL   H13517511   2.833   7.556   3.743  0.1603 -1.7978 -1.1621
   49MOL   H13617512   2.948   0.078   3.665 -1.2067  2.9225  1.0605
   49MOL   H13717513   3.129   7.695   3.738 -0.7423 -0.4345  0.0851
   49MOL   H13817514   3.103   0.089   3.841 -1.9089  0.8498  0.6015
   49MOL   H13917515   2.978   7.594   3.952 -0.2049 -0.4143  1.1324
   49MOL   H14017516   3.276   7.570   3.952 -0.1461 -1.0479  1.3706
   49MOL   H14117517   3.171   7.474   3.844  2.7241 -1.2821 -0.5228
   49MOL   H14217518   3.151   7.459   4.012  2.6683 -0.0929  0.6609
   49MOL   H14317519   3.070   7.663   4.151  1.1302  0.2878 -0.4678
   49MOL   H14417520   3.179   0.026   4.076  0.4673 -0.9502  2.0282
   49MOL   H14517521   2.996   0.051   4.066 -0.7168 -1.0348  0.5828
   49MOL   C14617522   2.820   0.064   3.837  0.7164 -0.0287  0.1787
   49MOL   C14717523   2.811   0.218   3.868  0.2171  0.2571 -0.3751
   49MOL   C14817524   2.707   0.240   3.987  0.5832  0.5157 -0.4340
   49MOL   C14917525   2.749   0.237   4.129 -0.1727 -0.3649 -1.0934
   49MOL   C15017526   2.862   0.328   4.168 -0.1072  0.0905  1.0922
   49MOL   C15117527   2.623   0.272   4.216 -0.2028 -0.3306  0.2866
   49MOL   H15217528   2.835   0.030   3.940  1.8264 -0.3332 -0.0755
   49MOL   H15317529   2.725   0.031   3.796 -0.3123  0.4070  2.1342
   49MOL   H15417530   2.910   0.243   3.907 -0.8856  0.3807  2.4260
   49MOL   H15517531   2.654   0.334   3.969  0.5264  0.3184 -1.3196
   49MOL   H15617532   2.635   0.160   3.969  1.0072 -0.0609  0.3770
   49MOL   H15717533   2.775   0.137   4.161 -1.1650  0.8445  3.8463
   49MOL   H15817534   2.836   0.434   4.160 -0.0145  0.1278  1.2908
   49MOL   H15917535   2.953   0.312   4.111 -1.7314 -0.8877 -1.3170
   49MOL   H16017536   2.904   0.314   4.267 -0.5321 -0.1235  1.2416
   49MOL   H16117537   2.525   0.235   4.184 -0.1135 -1.0253  0.8033
   49MOL   H16217538   2.614   0.380   4.212 -2.9830 -0.5237 -0.2299
   49MOL   H16317539   2.646   0.239   4.317 -0.6139 -2.8056 -0.3721
   49MOL   C16417540   2.784   0.292   3.731  0.3431  0.5139 -0.1150
   49MOL   C16517541   2.786   0.449   3.736 -0.5135  0.4931 -0.5559
   49MOL   C16617542   2.935   0.515   3.728 -0.1274 -0.5114 -0.6943
   49MOL   C16717543   2.948   0.648   3.802 -0.4304 -0.2045  0.0197
   49MOL   C16817544   2.919   0.657   3.946 -0.0319  0.2280  0.1187
   49MOL   C16917545   3.096   0.705   3.772  0.4311 -0.1135 -0.2821
   49MOL   H17017546   2.845   0.252   3.650 -1.2526 -0.9531 -0.6419
   49MOL   H17117547   2.691   0.270   3.677 -0.3208  1.5106  0.6066
   49MOL   H17217548   2.739   0.481   3.829 -2.7913 -1.9110 -0.8395
   49MOL   H17317549   3.001   0.445   3.779  0.6975  1.1297  0.5450
   49MOL   H17417550   2.965   0.505   3.624 -1.2499  3.0478 -1.4145
   49MOL   H17517551   2.884   0.718   3.749  0.0214  0.2938  0.1344
   49MOL   H17617552   2.818   0.626   3.970 -0.9521  0.8828 -2.7425
   49MOL   H17717553   2.923   0.762   3.973 -0.0273 -0.2368  2.0332
   49MOL   H17817554   2.998   0.602   3.999 -2.2672 -0.1819  3.1869
   49MOL   H17917555   3.163   0.640   3.827  1.9845  0.0076 -1.9607
   49MOL   H18017556   3.117   0.802   3.815 -1.3772 -0.6426  1.8899
   49MOL   H18117557   3.123   0.709   3.666  1.4708 -3.2010 -0.1952
   49MOL   C18217558   2.692   0.527   3.630 -0.2453  0.2832 -0.1614
   49MOL   C18317559   2.598   0.626   3.700 -0.4476  0.0912  0.2656
   49MOL   C18417560   2.549   0.726   3.583  0.3212  0.3749 -0.0293
   49MOL   C18517561   2.650   0.836   3.546  0.0221 -0.5695  0.9008
   49MOL   C18617562   2.592   0.915   3.424 -0.1127 -0.6665 -0.0856
   49MOL   C18717563   2.686   0.928   3.665  0.0093 -0.0485 -0.1641
   49MOL   H18817564   2.626   0.455   3.580 -1.4162  1.5727 -0.5230
   49MOL   H18917565   2.762   0.567   3.556 -0.9005 -0.7679 -1.3795
   49MOL   H19017566   2.667   0.667   3.773 -0.4222 -0.6981  0.6864
   49MOL   H19117567   2.452   0.768   3.611 -0.9514 -0.7806 -2.5190
   49MOL   H19217568   2.524   0.669   3.493  0.1025  1.0448 -0.3948
   49MOL   H19317569   2.739   0.778   3.524 -1.2576 -1.7390 -1.3814
   49MOL   H19417570   2.570   0.854   3.337 -1.5082 -0.2656 -0.0253
   49MOL   H19517571   2.666   0.985   3.386 -1.1113  2.0629  2.7122
   49MOL   H19617572   2.501   0.974   3.438  0.4923  0.6730 -1.6485
   49MOL   H19717573   2.590   0.969   3.698  0.0035  0.6983 -1.0712
   49MOL   H19817574   2.748   1.012   3.634 -0.8988  1.4306  1.8782
   49MOL   H19917575   2.737   0.886   3.751  0.8549 -0.5515 -0.9104
   49MOL   C20017576   2.484   0.553   3.771  0.2819 -0.7857  0.5521
   49MOL   C20117577   2.412   0.637   3.884  0.2995  0.0833 -0.3273
   49MOL   C20217578   2.502   0.672   4.006 -0.4303  0.2110  0.9624
   49MOL   C20317579   2.439   0.736   4.132  0.2268  0.4168  0.2008
   49MOL   C20417580   2.533   0.708   4.251 -0.7549 -0.3911 -0.4764
   49MOL   C20517581   2.414   0.889   4.109 -0.4653 -0.1532 -0.1399
   49MOL   H20617582   2.519   0.467   3.830 -1.0138 -0.1511  2.2824
   49MOL   H20717583   2.424   0.513   3.689  0.3730  1.4404 -0.6180
   49MOL   H20817584   2.382   0.731   3.838 -1.2010 -1.1211 -1.8488
   49MOL   H20917585   2.546   0.579   4.042  1.1143  0.2647 -0.7283
   49MOL   H21017586   2.592   0.727   3.976  0.4322 -0.5905  2.0380
   49MOL   H21117587   2.343   0.691   4.153  0.9017 -1.6115 -0.9835
   49MOL   H21217588   2.547   0.602   4.273  1.2950 -0.2799 -1.1062
   49MOL   H21317589   2.508   0.773   4.335 -0.4487  2.6063 -2.6208
   49MOL   H21417590   2.638   0.735   4.237 -1.6696  2.7224 -1.6635
   49MOL   H21517591   2.501   0.951   4.086 -0.2374 -1.3308 -2.5555
   49MOL   H21617592   2.367   0.938   4.195 -2.6546 -1.5893 -0.4822
   49MOL   H21717593   2.348   0.904   4.024 -3.4679  2.1642  2.5047
   49MOL   C21817594   2.280   0.554   3.927  0.0734  0.1028  0.3671
   49MOL   C21917595   2.168   0.534   3.816  0.3038  0.4598  0.3216
   49MOL   C22017596   2.084   0.663   3.798 -0.0487  0.4148  0.1076
   49MOL   C22117597   1.987   0.663   3.680 -0.4027  0.1334  1.0382
   49MOL   C22217598   1.890   0.779   3.682  0.7719  0.5525 -0.0352
   49MOL   C22317599   2.051   0.644   3.544 -0.0536  0.1690  0.2905
   49MOL   H22417600   2.308   0.469   3.990 -1.4018  0.0422  0.9714
   49MOL   H22517601   2.224   0.616   3.998  0.0495 -0.6937  1.0624
   49MOL   H22617602   2.216   0.505   3.722  1.3083 -4.5133  2.2253
   49MOL   H22717603   2.015   0.669   3.882  0.8127 -2.1339  1.0561
   49MOL   H22817604   2.147   0.751   3.803  0.5123 -0.0018  0.4792
   49MOL   H22917605   1.918   0.578   3.681 -1.3972  0.9311  2.6996
   49MOL   H23017606   1.825   0.782   3.769 -0.8811  0.1346 -1.2358
   49MOL   H23117607   1.936   0.875   3.660 -0.1814  0.7106 -1.3317
   49MOL   H23217608   1.810   0.769   3.609 -0.6016  2.4333  1.1800
   49MOL   H23317609   2.117   0.557   3.539 -1.8879 -1.2282 -0.3974
   49MOL   H23417610   1.973   0.628   3.469 -0.2669  0.8625  0.3596
   49MOL   H23517611   2.119   0.728   3.533  0.3965 -0.2642 -0.2384
   49MOL   C23617612   2.075   0.418   3.862  0.0498 -0.2627  0.1007
   49MOL   C23717613   2.137   0.275   3.878 -0.1175 -0.1157 -0.3613
   49MOL   C23817614   2.108   0.179   3.751 -0.2645  0.4809  0.2077
   49MOL   C23917615   2.178   0.226   3.623  0.8028 -0.5445 -0.5109
   49MOL   C24017616   2.326   0.184   3.609  0.3887  0.2272  0.0169
   49MOL   C24117617   2.100   0.179   3.498  0.0239  0.4794 -0.1008
   49MOL   H24217618   1.999   0.414   3.784 -0.3550 -1.0388  0.5221
   49MOL   H24317619   2.035   0.453   3.957 -0.1997  0.0690 -0.1246
   49MOL   H24417620   2.244   0.290   3.891 -0.5150  2.4578  0.2874
   49MOL   H24517621   2.003   0.156   3.734  0.0433 -1.8928  1.2078
   49MOL   H24617622   2.152   0.081   3.768  0.5632  0.9252  0.6303
   49MOL   H24717623   2.178   0.335   3.614 -0.3377 -0.4351  0.7053
   49MOL   H24817624   2.377   0.251   3.678 -0.9642  0.9752  0.3106
   49MOL   H24917625   2.378   0.189   3.514 -1.8381 -2.3563 -1.4237
   49MOL   H25017626   2.339   0.083   3.649 -1.2328 -0.2201 -0.5336
   49MOL   H25117627   2.150   0.221   3.411  3.6325 -1.3834  1.0017
   49MOL   H25217628   1.994   0.205   3.496 -0.2668 -0.6757 -0.0804
   49MOL   H25317629   2.115   0.072   3.487 -1.2807  0.1546  1.0745
   49MOL   C25417630   2.068   0.205   3.999  0.1815  0.2943 -0.1679
   49MOL   C25517631   2.115   0.065   4.046 -0.1544  0.5458 -0.7699
   49MOL   C25617632   2.266   0.049   4.076 -0.0310  0.2107 -0.5903
   49MOL   C25717633   2.321   7.656   4.052 -0.6796  0.0402 -0.5284
   49MOL   C25817634   2.432   7.619   4.157 -0.0059  0.1999  0.1708
   49MOL   C25917635   2.361   7.652   3.905 -0.2912 -0.3448 -0.5716
   49MOL   H26017636   2.059   0.260   4.093  0.3011  1.1743 -0.6774
   49MOL   H26117637   1.962   0.207   3.973 -0.3445 -1.0074  1.7265
   49MOL   H26217638   2.099   7.749   3.962  0.8350 -0.6099 -0.0423
   49MOL   H26317639   2.293   0.081   4.176  0.3510  0.2576 -0.7072
   49MOL   H26417640   2.326   0.123   4.022  0.0080 -0.3490 -1.3346
   49MOL   H26517641   2.240   7.587   4.073 -0.5098  0.5965  2.2165
   49MOL   H26617642   2.516   7.688   4.157  0.0628  0.1550 -1.7462
   49MOL   H26717643   2.466   7.517   4.138  2.0374  1.1385 -1.4055
   49MOL   H26817644   2.386   7.624   4.256  0.4872  4.7474  0.2650
   49MOL   H26917645   2.399   7.554   3.877  0.2089 -0.3235  0.0345
   49MOL   H27017646   2.277   7.654   3.835 -1.9681  0.4547  1.4041
   49MOL   H27117647   2.437   7.727   3.881 -0.0491 -0.5392 -0.4160
   49MOL   C27217648   2.031   0.004   4.160  1.2988  0.1121 -0.7083
   49MOL   C27317649   1.888   7.704   4.129  0.4572 -0.2557 -0.0194
   49MOL   C27417650   1.895   7.557   4.081 -0.8066 -0.0962  0.3410
   49MOL   C27517651   1.776   7.522   3.991  0.4834  0.4341  0.2713
   49MOL   C27617652   1.752   7.371   3.977  0.6259 -0.1660 -0.0724
   49MOL   C27717653   1.772   7.593   3.859  0.4581  0.4496 -0.2795
   49MOL   H27817654   2.076   7.664   4.198  1.8726  0.4347 -0.6091
   49MOL   H27917655   2.044   0.072   4.244  3.4641 -0.0071 -0.9115
   49MOL   H28017656   1.844   0.008   4.047 -2.0113  0.4944  1.7759
   49MOL   H28117657   1.897   7.492   4.168  0.6460 -0.1969  0.2560
   49MOL   H28217658   1.986   7.533   4.025  0.8116 -0.9785  3.2719
   49MOL   H28317659   1.688   7.554   4.047  0.3061  1.9466 -0.8432
   49MOL   H28417660   1.769   7.328   4.075  0.2663  0.0193  0.0720
   49MOL   H28517661   1.647   7.360   3.949  0.7581 -0.3235 -0.5151
   49MOL   H28617662   1.805   7.313   3.901  2.2392  0.6895  0.3636
   49MOL   H28717663   1.692   7.549   3.800  1.4886 -0.8631 -0.7333
   49MOL   H28817664   1.753   7.699   3.875 -0.7576  0.2355 -0.3111
   49MOL   H28917665   1.870   7.593   3.810 -0.0550  1.2877 -1.3114
   49MOL   C29017666   1.806   7.733   4.258  0.2302  0.3297 -0.4848
   49MOL   C29117667   1.761   0.126   4.274 -0.3513  0.3323 -1.0472
   49MOL   C29217668   1.628   0.144   4.194  0.1260 -0.3494  0.4318
   49MOL   C29317669   1.579   0.281   4.159 -0.1244  0.1166  0.2338
   49MOL   C29417670   1.669   0.365   4.069 -0.4300  0.0686  0.3436
   49MOL   C29517671   1.431   0.291   4.113  0.1735  0.3408  0.1622
   49MOL   H29617672   1.714   7.675   4.264  1.9778 -2.3653  0.9166
   49MOL   H29717673   1.871   7.702   4.339 -0.8616 -0.3352  0.1398
   49MOL   H29817674   1.838   0.183   4.221  0.0613 -0.8773 -1.7714
   49MOL   H29917675   1.545   0.103   4.251  0.2443 -0.3435  0.6113
   49MOL   H30017676   1.632   0.085   4.102  2.0590  0.1219  0.1923
   49MOL   H30117677   1.585   0.329   4.256 -0.9918 -0.6194  0.6660
   49MOL   H30217678   1.701   0.304   3.984 -0.0223  0.4987  0.1832
   49MOL   H30317679   1.767   0.381   4.112 -0.3292  1.6484 -0.4086
   49MOL   H30417680   1.645   0.468   4.041 -0.8841 -0.8918 -3.0968
   49MOL   H30517681   1.360   0.239   4.177 -0.6735  2.8441  1.3414
   49MOL   H30617682   1.415   0.266   4.009  0.5511 -1.8569  0.6213
   49MOL   H30717683   1.417   0.399   4.120  0.9150  0.4440  0.0699
   49MOL   C30817684   1.752   0.151   4.424 -0.0774 -0.4491  0.1776
   49MOL   C30917685   1.754   0.297   4.474  0.4205  1.0876  0.7477
   49MOL   C31017686   1.621   0.341   4.542  0.8049  0.2334 -1.1266
   49MOL   C31117687   1.588   0.495   4.562  0.2657  0.0457  0.3134
   49MOL   C31217688   1.551   0.550   4.427 -0.4800  0.0130 -0.2518
   49MOL   C31317689   1.480   0.506   4.668 -0.1271 -0.4561  0.2274
   49MOL   H31417690   1.663   0.096   4.456 -2.5199  3.3378  0.1559
   49MOL   H31517691   1.840   0.107   4.471 -0.1471 -1.5057 -0.6450
   49MOL   H31617692   1.768   0.361   4.386 -1.5857  1.8067  0.9171
   49MOL   H31717693   1.633   0.308   4.645  1.2386  1.1996 -0.8648
   49MOL   H31817694   1.533   0.286   4.510  1.7537 -2.4178  0.6535
   49MOL   H31917695   1.681   0.537   4.602  1.0771 -1.2379 -0.2009
   49MOL   H32017696   1.636   0.553   4.359 -0.0362  1.3580  0.3564
   49MOL   H32117697   1.520   0.655   4.429  1.1126  0.5206 -1.1743
   49MOL   H32217698   1.463   0.501   4.385 -0.5782 -1.1529  1.2806
   49MOL   H32317699   1.524   0.471   4.761  1.5341  0.9157 -0.0097
   49MOL   H32417700   1.441   0.606   4.688 -1.7272 -0.8896 -0.6737
   49MOL   H32517701   1.390   0.446   4.656 -1.0496  1.2418 -1.6438
   49MOL   C32617702   1.877   0.337   4.553 -0.0113 -0.1339  0.2799
   49MOL   C32717703   2.016   0.319   4.483 -0.0729  0.1684 -0.6060
   49MOL   C32817704   2.116   0.346   4.592 -1.0861  0.1137  1.1036
   49MOL   C32917705   2.266   0.351   4.561  0.2843  0.7807  0.7203
   49MOL   C33017706   2.355   0.354   4.689  0.4662  0.4239  0.2113
   49MOL   C33117707   2.304   0.233   4.469  0.6329 -0.0261 -0.3324
   49MOL   H33217708   1.876   0.294   4.654 -0.2289 -0.1303  0.2792
   49MOL   H33317709   1.860   0.442   4.575  2.8327  0.4088  0.0412
   49MOL   H33417710   2.037   0.216   4.457 -0.3822 -0.1694  0.4464
   49MOL   H33517711   2.082   0.439   4.639 -2.5953  0.2763 -0.2853
   49MOL   H33617712   2.121   0.270   4.670  1.6117  0.1445  1.0341
   49MOL   H33717713   2.280   0.445   4.506  1.2854  1.2628  1.7799
   49MOL   H33817714   2.345   0.267   4.753 -2.1926  0.3247 -0.2513
   49MOL   H33917715   2.329   0.437   4.754 -2.2943  0.2366 -0.5558
   49MOL   H34017716   2.457   0.362   4.653  1.0033 -1.4340  1.2564
   49MOL   H34117717   2.252   0.236   4.373 -2.4680  0.9282  1.3079
   49MOL   H34217718   2.410   0.239   4.442  0.9118 -1.6367  0.3574
   49MOL   H34317719   2.284   0.137   4.517 -1.7923  0.3303 -0.5771
   49MOL   C34417720   2.034   0.418   4.363  0.3753  0.1020  0.1854
   49MOL   C34517721   1.978   0.558   4.382 -0.4546 -0.3824  0.1937
   49MOL   C34617722   2.009   0.646   4.262  0.5153 -0.5027  0.2068
   49MOL   C34717723   2.000   0.794   4.301 -0.3773  0.0100  0.5545
   49MOL   C34817724   2.017   0.878   4.181  0.2591  0.1624 -0.6180
   49MOL   C34917725   2.104   0.833   4.394 -0.3367  1.0559 -0.0927
   49MOL   H35017726   1.984   0.364   4.283  2.3037  0.1647 -1.1154
   49MOL   H35117727   2.141   0.420   4.341  0.4834  0.5389  0.7351
   49MOL   H35217728   2.024   0.596   4.473  1.9548 -0.7734 -0.8197
   49MOL   H35317729   2.110   0.624   4.227  0.9273 -1.3990  1.9004
   49MOL   H35417730   1.939   0.621   4.182 -0.3951  1.3769  0.3853
   49MOL   H35517731   1.899   0.809   4.339 -0.6780  1.8617 -0.8926
   49MOL   H35617732   1.989   0.981   4.206 -0.2556  0.0913 -0.8888
   49MOL   H35717733   2.117   0.862   4.142  0.9384  1.2558  0.6052
   49MOL   H35817734   1.947   0.853   4.102  0.8895 -0.5406 -0.9566
   49MOL   H35917735   2.108   0.942   4.396 -1.0363  1.0636  1.0564
   49MOL   H36017736   2.202   0.801   4.359 -1.1273  1.4661 -2.7955
   49MOL   H36117737   2.100   0.795   4.496  0.4651  0.4677 -0.2698
   49MOL   H36217738   1.869   0.552   4.388 -0.5419 -0.9098 -1.6821
   50MOL     C117739   4.050   4.164   5.260  0.4215  0.0354 -0.0521
   50MOL     C217740   4.097   4.266   5.157 -0.7485  0.5335 -0.3142
   50MOL     C317741   3.975   4.299   5.054 -0.3871 -0.3006  0.2581
   50MOL     C417742   3.979   4.435   4.979  0.2970 -0.0134 -0.5643
   50MOL     C517743   4.098   4.448   4.887 -0.7428 -0.1951 -0.0342
   50MOL     C617744   3.973   4.562   5.065  0.6988 -0.2901 -0.2345
   50MOL     H717745   4.004   4.078   5.212 -0.3262  1.0031 -1.0944
   50MOL     H817746   4.139   4.126   5.310  0.4120 -1.5520 -1.1849
   50MOL     H917747   4.117   4.360   5.209 -0.1848  1.8665 -2.8623
   50MOL    H1017748   3.980   4.231   4.969  0.2047  0.4615 -0.3338
   50MOL    H1117749   3.884   4.299   5.113 -0.1184 -1.8095  0.6924
   50MOL    H1217750   3.886   4.444   4.923 -0.8675 -0.9098  1.1771
   50MOL    H1317751   4.076   4.530   4.819 -0.0459  2.7598  3.1764
   50MOL    H1417752   4.193   4.484   4.928 -0.8869  0.6675 -0.4482
   50MOL    H1517753   4.108   4.363   4.819 -0.7935 -1.4379  1.4870
   50MOL    H1617754   3.976   4.650   5.001  3.4190 -0.3204 -0.1779
   50MOL    H1717755   4.057   4.579   5.132  0.6370  0.1199 -0.2552
   50MOL    H1817756   3.883   4.558   5.127  1.0991 -0.4709  0.3347
   50MOL    H1917757   3.977   4.210   5.327  0.5980  1.7479 -1.0085
   50MOL    C2017758   4.218   4.214   5.082 -0.2522 -0.4497  0.1025
   50MOL    C2117759   4.356   4.252   5.145 -0.2852  0.3335  0.3892
   50MOL    C2217760   4.468   4.153   5.104 -0.0343  0.0917  0.0979
   50MOL    C2317761   4.437   4.005   5.147  0.4695 -0.5433 -0.2658
   50MOL    C2417762   4.550   3.917   5.092 -0.1106  0.7293 -0.6912
   50MOL    C2517763   4.437   3.981   5.297 -0.3816 -0.6728 -0.1897
   50MOL    H2617764   4.203   4.108   5.059 -0.9380 -0.6630  1.4991
   50MOL    H2717765   4.213   4.255   4.981  0.4771 -0.1010  0.2053
   50MOL    H2817766   4.348   4.239   5.253  1.0612 -0.1612  0.4379
   50MOL    H2917767   4.567   4.175   5.144  0.1919  0.3742 -0.6195
   50MOL    H3017768   4.480   4.162   4.996 -1.8472 -1.6597 -0.2633
   50MOL    H3117769   4.343   3.965   5.109 -0.4577  0.0506  1.3616
   50MOL    H3217770   4.523   3.812   5.104 -0.5530  0.9556  0.4019
   50MOL    H3317771   4.646   3.926   5.143 -1.2001 -2.8350  2.2337
   50MOL    H3417772   4.567   3.929   4.985 -0.2780 -0.4378 -0.8584
   50MOL    H3517773   4.534   3.986   5.348 -1.3138  0.1267  1.5560
   50MOL    H3617774   4.378   4.044   5.363 -0.0141  0.8598 -1.2782
   50MOL    H3717775   4.397   3.880   5.297 -0.4799 -0.6336  0.5860
   50MOL    C3817776   4.386   4.402   5.115  0.4078 -0.2293  0.4982
   50MOL    C3917777   4.505   4.475   5.190  0.0291  0.0490  0.0989
   50MOL    C4017778   4.476   4.630   5.206 -0.3035  0.5019  0.2212
   50MOL    C4117779   4.457   4.718   5.077 -0.0799 -0.6280  0.1807
   50MOL    C4217780   4.541   4.848   5.077  0.0607  0.0545  0.8614
   50MOL    C4317781   4.316   4.755   5.036 -0.0523  0.1428 -0.2970
   50MOL    H4417782   4.298   4.462   5.137  0.4663  0.3779 -0.8807
   50MOL    H4517783   4.405   4.414   5.009  0.2062 -0.6034  0.4230
   50MOL    H4617784   4.514   4.426   5.287  0.6071 -3.9333 -1.8738
   50MOL    H4717785   4.561   4.674   5.259 -0.6643 -0.8336  1.9849
   50MOL    H4817786   4.397   4.649   5.279 -0.4333 -0.5038  0.3506
   50MOL    H4917787   4.492   4.664   4.990  0.9968  2.7407 -1.5696
   50MOL    H5017788   4.545   4.891   4.977  1.5627  1.3216  1.4393
   50MOL    H5117789   4.503   4.918   5.151  1.7021  0.4565  1.3578
   50MOL    H5217790   4.648   4.837   5.098 -0.1822 -1.5560  1.3311
   50MOL    H5317791   4.256   4.664   5.031 -0.2370  0.1905  0.8085
   50MOL    H5417792   4.317   4.789   4.933  1.9297  0.5049 -0.1694
   50MOL    H5517793   4.273   4.831   5.101 -1.8228  0.5261 -1.8729
   50MOL    C5617794   4.645   4.457   5.122  0.6349  1.0210 -0.0940
   50MOL    C5717795   4.773   4.460   5.213 -0.0923  0.0576  0.1133
   50MOL    C5817796   4.901   4.532   5.156 -0.4137 -0.3620 -0.1174
   50MOL    C5917797   5.007   4.449   5.078  0.4017 -0.5083 -0.0556
   50MOL    C6017798   5.110   4.540   5.003 -0.0632  0.3266  0.1725
   50MOL    C6117799   4.947   4.369   4.956 -0.2309 -0.3605  0.3713
   50MOL    H6217800   4.662   4.534   5.046 -0.2575 -0.2342 -1.6086
   50MOL    H6317801   4.638   4.366   5.062  0.8763  0.1513  1.1717
   50MOL    H6417802   4.749   4.522   5.299  3.2580 -0.1413  1.2804
   50MOL    H6517803   4.872   4.612   5.088  0.1799 -0.2116 -0.2000
   50MOL    H6617804   4.956   4.576   5.239 -0.3211  0.8606 -0.8137
   50MOL    H6717805   5.065   4.382   5.142 -0.5130  1.2872  2.7692
   50MOL    H6817806   5.074   4.616   4.934 -0.9892  0.2641  0.5668
   50MOL    H6917807   5.193   4.488   4.956 -0.2472  1.3002 -1.2766
   50MOL    H7017808   5.170   4.596   5.076 -1.3448 -1.4939  2.6950
   50MOL    H7117809   4.918   4.270   4.993  3.5166 -2.1685 -1.2414
   50MOL    H7217810   5.025   4.338   4.885 -0.6391  0.4368 -0.4304
   50MOL    H7317811   4.872   4.425   4.900  2.7367  0.7369 -2.7114
   50MOL    C7417812   4.795   4.315   5.270  0.9428 -0.2638 -0.9381
   50MOL    C7517813   4.870   4.312   5.412 -0.0219 -0.4582 -0.4187
   50MOL    C7617814   4.999   4.229   5.409 -0.5262  0.3964  0.0716
   50MOL    C7717815   5.100   4.262   5.521  0.9345 -0.5783  0.3372
   50MOL    C7817816   5.176   4.387   5.498  0.3728  0.6169 -0.1559
   50MOL    C7917817   5.204   4.152   5.531 -0.5154 -0.0125 -0.5408
   50MOL    H8017818   4.834   4.242   5.199 -1.9187 -1.2227 -1.5908
   50MOL    H8117819   4.696   4.282   5.302  2.0776 -2.4500  0.3772
   50MOL    H8217820   4.893   4.415   5.441  0.5908 -0.3287 -1.3367
   50MOL    H8317821   4.973   4.123   5.402  3.2570 -0.5152 -1.1776
   50MOL    H8417822   5.058   4.247   5.319 -1.3936  2.4813 -0.1023
   50MOL    H8517823   5.051   4.268   5.618  1.9783 -1.0617  0.9103
   50MOL    H8617824   5.241   4.387   5.411  0.9683 -1.7782  0.2357
   50MOL    H8717825   5.231   4.406   5.590 -0.6876  0.7553  0.4614
   50MOL    H8817826   5.105   4.467   5.479  0.6888  0.9013 -0.1355
   50MOL    H8917827   5.269   4.147   5.443  2.1940  1.1078  1.3359
   50MOL    H9017828   5.276   4.178   5.608 -0.0108  2.0938 -1.6559
   50MOL    H9117829   5.163   4.051   5.538 -0.3567 -0.0628 -0.3547
   50MOL    C9217830   4.773   4.266   5.522 -0.7581  0.6227  0.1176
   50MOL    C9317831   4.691   4.382   5.586 -0.6745 -0.0025 -1.1262
   50MOL    C9417832   4.555   4.332   5.644 -0.2625 -0.2908 -0.1345
   50MOL    C9517833   4.432   4.339   5.547 -0.2211  0.0250 -0.9284
   50MOL    C9617834   4.318   4.257   5.606  0.0855 -0.0478 -0.0581
   50MOL    C9717835   4.376   4.484   5.533  0.2481 -0.6871 -0.2875
   50MOL    H9817836   4.707   4.186   5.490  0.8161 -0.4355 -0.5318
   50MOL    H9917837   4.831   4.226   5.605  1.2983 -0.6151 -1.8369
   50MOL   H10017838   4.662   4.453   5.509 -0.2132  0.3778 -0.9488
   50MOL   H10117839   4.524   4.397   5.726 -0.7142 -0.8158  0.1160
   50MOL   H10217840   4.559   4.232   5.687  2.6950 -0.2365 -0.1383
   50MOL   H10317841   4.456   4.289   5.454  1.0017  1.6071 -1.4890
   50MOL   H10417842   4.290   4.303   5.701 -1.1390  0.1010 -0.4860
   50MOL   H10517843   4.339   4.151   5.623 -1.3527 -0.1578  1.0988
   50MOL   H10617844   4.235   4.263   5.536 -2.0101 -0.6032  2.3133
   50MOL   H10717845   4.298   4.474   5.458  1.8492 -1.2203 -1.9316
   50MOL   H10817846   4.454   4.549   5.492  0.3281 -1.7843 -1.9277
   50MOL   H10917847   4.339   4.522   5.628 -2.2299 -0.9829 -1.0967
   50MOL   C11017848   4.773   4.445   5.699 -0.5847 -0.3721 -0.2227
   50MOL   C11117849   4.748   4.593   5.732 -0.6266 -0.3825 -0.3898
   50MOL   C11217850   4.778   4.628   5.882  0.3767  0.1932  0.8969
   50MOL   C11317851   4.693   4.572   5.993  0.3099  0.4364  0.0529
   50MOL   C11417852   4.547   4.634   6.005 -0.0074  0.2731  0.0086
   50MOL   C11517853   4.763   4.587   6.133 -0.9921 -0.6335  0.0738
   50MOL   H11617854   4.879   4.440   5.675 -0.1302 -2.5393  2.0967
   50MOL   H11717855   4.779   4.379   5.785 -0.4780  1.1579  0.9848
   50MOL   H11817856   4.644   4.608   5.704 -0.7202 -2.1326 -1.0284
   50MOL   H11917857   4.778   4.737   5.881  2.7307  0.2081 -0.9815
   50MOL   H12017858   4.884   4.601   5.887  0.2297 -0.4153  0.8158
   50MOL   H12117859   4.666   4.468   5.977 -0.7245  0.6199  0.5291
   50MOL   H12217860   4.508   4.621   5.904 -0.8512  1.7572  0.1290
   50MOL   H12317861   4.543   4.740   6.027  2.5428  0.5554 -0.7082
   50MOL   H12417862   4.489   4.571   6.073 -0.7208  3.1522  2.1362
   50MOL   H12517863   4.755   4.693   6.156  1.1176 -0.4549  0.1135
   50MOL   H12617864   4.862   4.543   6.142 -0.6753  0.4104  1.9498
   50MOL   H12717865   4.694   4.540   6.203 -0.7985 -2.5208 -0.9864
   50MOL   C12817866   4.822   4.683   5.628  0.0358 -0.6648 -0.5332
   50MOL   C12917867   4.781   4.833   5.614  0.1356 -0.2073 -0.7177
   50MOL   C13017868   4.645   4.842   5.550 -0.8162  0.1108  0.3718
   50MOL   C13117869   4.570   4.976   5.555 -0.3000  0.7803 -0.7380
   50MOL   C13217870   4.508   4.993   5.423  0.8614 -1.0160  0.2112
   50MOL   C13317871   4.459   4.973   5.660 -0.1399 -0.3423  0.5536
   50MOL   H13417872   4.816   4.642   5.528 -0.6063 -0.2604 -0.6648
   50MOL   H13517873   4.928   4.683   5.654 -0.3159  0.3068  1.0010
   50MOL   H13617874   4.770   4.865   5.717 -2.9073 -4.1047  0.2926
   50MOL   H13717875   4.650   4.810   5.446 -0.5033  0.4108  0.2963
   50MOL   H13817876   4.574   4.770   5.593  1.6533 -2.8593 -0.3327
   50MOL   H13917877   4.635   5.063   5.569  1.5387 -0.8409  1.2313
   50MOL   H14017878   4.447   4.907   5.395 -2.9926  2.4841 -2.9558
   50MOL   H14117879   4.570   5.024   5.339 -0.7750  0.0437 -0.6568
   50MOL   H14217880   4.430   5.069   5.437  1.1231 -0.6524 -0.2892
   50MOL   H14317881   4.397   5.063   5.667  1.5528  0.8288  0.8028
   50MOL   H14417882   4.390   4.893   5.636  0.3237 -0.4358 -0.5012
   50MOL   H14517883   4.493   4.943   5.759  2.7100  0.9534  0.0177
   50MOL   C14617884   4.890   4.908   5.540 -0.3911 -0.0716 -0.6181
   50MOL   C14717885   4.965   5.020   5.622  0.0064  0.6746  0.0843
   50MOL   C14817886   5.030   5.138   5.544  0.7819 -0.1253  0.4431
   50MOL   C14917887   4.935   5.266   5.515  0.1731  0.5506 -0.2180
   50MOL   C15017888   4.836   5.245   5.400  0.2681  0.2638 -0.4599
   50MOL   C15117889   4.864   5.331   5.642 -0.0843  0.5277 -0.2706
   50MOL   H15217890   4.845   4.970   5.463  2.8839  1.3327 -1.5070
   50MOL   H15317891   4.964   4.847   5.489  0.0256 -0.0446 -0.0490
   50MOL   H15417892   4.896   5.057   5.698 -0.0722  1.5894 -0.4280
   50MOL   H15517893   5.116   5.172   5.602  1.7740 -2.8728  0.6851
   50MOL   H15617894   5.065   5.100   5.448 -1.0149 -1.1064  0.1573
   50MOL   H15717895   4.996   5.345   5.472  0.2566 -0.4321 -1.9452
   50MOL   H15817896   4.884   5.222   5.305  1.3912 -0.8404  0.3552
   50MOL   H15917897   4.798   5.345   5.379  3.0622  1.2804 -0.9394
   50MOL   H16017898   4.752   5.181   5.428 -0.3872  0.5365 -1.8187
   50MOL   H16117899   4.790   5.260   5.678 -1.4344  2.0349  0.0004
   50MOL   H16217900   4.805   5.422   5.625 -1.3263 -0.1580  0.3670
   50MOL   H16317901   4.931   5.365   5.721 -0.9377  2.2028 -0.2278
   50MOL   C16417902   5.080   4.955   5.704 -0.0730 -0.7698  0.2431
   50MOL   C16517903   5.120   5.013   5.842 -0.0870 -1.0059  0.2918
   50MOL   C16617904   5.010   4.959   5.941 -1.0200  0.6425  0.2009
   50MOL   C16717905   5.000   5.032   6.073  0.4022 -0.2031 -0.3095
   50MOL   C16817906   4.978   5.182   6.064 -0.0283 -0.5617 -0.2466
   50MOL   C16917907   4.885   4.971   6.163 -0.4364 -0.1904 -0.5378
   50MOL   H17017908   5.060   4.851   5.730  0.7153 -1.2321 -0.9286
   50MOL   H17117909   5.177   4.950   5.653  0.1789 -1.0767  0.7451
   50MOL   H17217910   5.117   5.122   5.842  1.5061 -0.9190  2.4948
   50MOL   H17317911   4.913   4.950   5.894  0.3412  1.5498 -2.9209
   50MOL   H17417912   5.034   4.856   5.968 -1.3961  0.0540 -1.6353
   50MOL   H17517913   5.091   5.019   6.132  0.5997  1.7628 -0.1275
   50MOL   H17617914   5.067   5.236   6.031 -1.0400  0.4301 -1.4087
   50MOL   H17717915   4.939   5.230   6.154 -2.4461  0.2579 -1.6728
   50MOL   H17817916   4.900   5.213   5.995 -0.2039  0.2937  0.3198
   50MOL   H17917917   4.916   4.871   6.191  0.4025 -0.4844 -2.4576
   50MOL   H18017918   4.786   4.957   6.121 -0.1537 -1.3263 -0.8296
   50MOL   H18117919   4.864   5.022   6.257 -0.2361 -0.5113 -0.3159
   50MOL   C18217920   5.265   4.978   5.878 -0.4375 -0.3301  0.5509
   50MOL   C18317921   5.382   5.072   5.844 -0.0792 -0.6371  0.2393
   50MOL   C18417922   5.373   5.204   5.942  0.1793 -0.1480 -1.2058
   50MOL   C18517923   5.423   5.337   5.877 -0.0762 -0.1019  0.7330
   50MOL   C18617924   5.308   5.412   5.808  0.1500 -0.0912  0.0009
   50MOL   C18717925   5.497   5.421   5.989 -0.1610  0.5874 -0.0992
   50MOL   H18817926   5.276   4.881   5.831  0.7669  1.2252 -2.5455
   50MOL   H18917927   5.276   4.968   5.986  4.1887 -0.5757  0.1697
   50MOL   H19017928   5.363   5.105   5.742 -0.6525 -0.9138  0.2540
   50MOL   H19117929   5.424   5.178   6.035 -0.2026  0.1311 -0.9180
   50MOL   H19217930   5.272   5.223   5.976  0.9160 -0.1470  1.0963
   50MOL   H19317931   5.495   5.319   5.797  1.6463 -0.2544  2.2904
   50MOL   H19417932   5.341   5.512   5.781  1.7955 -0.4351  0.7090
   50MOL   H19517933   5.230   5.430   5.882  1.7096  0.0235  1.6379
   50MOL   H19617934   5.273   5.363   5.717  2.3405 -2.3541  0.3239
   50MOL   H19717935   5.419   5.447   6.061 -0.4630  2.6318 -1.1495
   50MOL   H19817936   5.534   5.509   5.938  2.4624 -1.2269 -1.4194
   50MOL   H19917937   5.582   5.373   6.037 -1.3237 -0.3390  1.0821
   50MOL   C20017938   5.517   4.998   5.872  0.4662 -0.1693  0.3928
   50MOL   C20117939   5.601   4.933   5.760 -0.3454  0.3772  0.6000
   50MOL   C20217940   5.745   4.912   5.806 -0.3037 -0.8042 -0.2392
   50MOL   C20317941   5.766   4.803   5.913 -0.6691 -0.4216  0.2678
   50MOL   C20417942   5.721   4.666   5.864 -0.4409  0.3627  0.3188
   50MOL   C20517943   5.909   4.801   5.956  0.0081 -0.1236 -0.2327
   50MOL   H20617944   5.497   4.929   5.954  0.1024 -0.0560  0.4041
   50MOL   H20717945   5.581   5.073   5.918 -1.1499  2.3837 -1.3526
   50MOL   H20817946   5.548   4.839   5.741 -1.7966  1.5759 -1.5000
   50MOL   H20917947   5.810   4.882   5.723 -0.6754  2.0130 -1.6040
   50MOL   H21017948   5.782   5.007   5.842 -1.1555  0.3428 -2.3096
   50MOL   H21117949   5.708   4.820   6.004 -2.1879  2.0639 -1.1179
   50MOL   H21217950   5.782   4.628   5.782  0.4404  2.0699  0.1630
   50MOL   H21317951   5.624   4.667   5.815  0.2475 -1.1767 -1.1144
   50MOL   H21417952   5.707   4.585   5.936 -0.8919 -0.2761 -0.4729
   50MOL   H21517953   5.936   4.901   5.991  2.3888 -0.8923  0.1509
   50MOL   H21617954   5.971   4.773   5.872 -0.7779 -0.3683 -0.7388
   50MOL   H21717955   5.921   4.736   6.042 -1.2869  1.5175  1.2402
   50MOL   C21817956   5.605   5.012   5.621  0.0758 -0.4220  0.6442
   50MOL   C21917957   5.516   4.947   5.511 -0.2092  0.5764 -0.0496
   50MOL   C22017958   5.601   4.834   5.435  0.9216 -0.7717  0.6203
   50MOL   C22117959   5.517   4.736   5.355  0.4421  0.6526 -0.0369
   50MOL   C22217960   5.605   4.639   5.285 -0.3808 -0.1260 -0.2958
   50MOL   C22317961   5.435   4.639   5.454  0.6256  1.0658  0.0281
   50MOL   H22417962   5.582   5.115   5.644  0.4943  0.0133 -0.8595
   50MOL   H22517963   5.706   5.021   5.580 -0.6961  0.9583 -0.9819
   50MOL   H22617964   5.431   4.902   5.563  1.1972  1.6556  3.3549
   50MOL   H22717965   5.656   4.890   5.360  1.1617 -2.7166 -0.6955
   50MOL   H22817966   5.670   4.786   5.505  0.3174 -0.1551  1.6468
   50MOL   H22917967   5.449   4.789   5.288 -2.3065 -1.2532  1.1380
   50MOL   H23017968   5.676   4.691   5.221  0.7758 -1.4215 -0.0914
   50MOL   H23117969   5.645   4.560   5.348 -3.0169 -1.6653 -0.4932
   50MOL   H23217970   5.540   4.591   5.212 -0.3607 -1.0681  0.2925
   50MOL   H23317971   5.489   4.617   5.546  1.0464 -0.2620 -0.5196
   50MOL   H23417972   5.338   4.684   5.472 -0.1700 -0.6425  0.0868
   50MOL   H23517973   5.413   4.546   5.403  2.4595  0.8207 -0.3712
   50MOL   C23617974   5.452   5.043   5.410 -0.6427 -0.2934  0.1373
   50MOL   C23717975   5.533   5.163   5.361 -0.3394  0.3463 -0.0308
   50MOL   C23817976   5.489   5.286   5.432  0.3953  0.0825 -0.7091
   50MOL   C23917977   5.597   5.397   5.435 -0.1383 -0.3230  0.3660
   50MOL   C24017978   5.534   5.534   5.483  0.0178 -0.4029 -0.0297
   50MOL   C24117979   5.716   5.359   5.525  0.1478  0.2404 -0.1875
   50MOL   H24217980   5.373   5.081   5.475 -1.0418  0.8917 -1.0305
   50MOL   H24317981   5.400   4.984   5.334  1.9631 -2.4136 -0.0506
   50MOL   H24417982   5.630   5.132   5.401 -1.4512 -1.7941  1.1160
   50MOL   H24517983   5.462   5.256   5.533  1.4103 -1.1170 -0.7679
   50MOL   H24617984   5.399   5.320   5.381 -0.7867 -0.1160  1.2256
   50MOL   H24717985   5.640   5.410   5.336 -2.4673  1.4786 -0.4699
   50MOL   H24817986   5.595   5.615   5.522 -0.7046  0.1202  0.0216
   50MOL   H24917987   5.451   5.509   5.549  1.0682  0.6994  1.7605
   50MOL   H25017988   5.486   5.579   5.396  1.4639 -1.3461 -1.3300
   50MOL   H25117989   5.760   5.266   5.488 -3.0444 -1.0117 -1.0637
   50MOL   H25217990   5.691   5.355   5.631 -1.4255 -0.5254 -0.5741
   50MOL   H25317991   5.796   5.431   5.510 -0.6739  0.8166 -2.0670
   50MOL   C25417992   5.534   5.170   5.208  0.1040  0.5482 -0.2180
   50MOL   C25517993   5.417   5.227   5.135  0.5251  0.1265  0.8870
   50MOL   C25617994   5.422   5.377   5.104  0.5777  0.1504  0.2302
   50MOL   C25717995   5.294   5.464   5.086 -0.7212 -0.3207 -0.2089
   50MOL   C25817996   5.326   5.609   5.047 -1.1712 -0.0833  0.3577
   50MOL   C25917997   5.207   5.465   5.219  0.4877 -0.0166  0.1817
   50MOL   H26017998   5.616   5.233   5.174 -1.2953  2.3237 -0.3396
   50MOL   H26117999   5.565   5.074   5.165 -0.8400 -0.0860  0.4906
   50MOL   H26218000   5.335   5.212   5.205  0.1558  1.0134  0.6576
   50MOL   H26318001   5.470   5.386   5.007 -0.6898  1.6368 -0.2793
   50MOL   H26418002   5.478   5.427   5.183 -0.1349 -1.4262  1.7499
   50MOL   H26518003   5.227   5.424   5.010  1.0430  0.6748 -2.3543
   50MOL   H26618004   5.239   5.675   5.048 -0.5165  0.7976  0.4702
   50MOL   H26718005   5.387   5.617   4.957 -1.0351 -0.8523  0.3777
   50MOL   H26818006   5.392   5.651   5.123  0.2710  1.8564 -1.8882
   50MOL   H26918007   5.247   5.531   5.296 -0.3376  0.8311 -0.1058
   50MOL   H27018008   5.111   5.511   5.195 -0.4304 -0.5154  2.6819
   50MOL   H27118009   5.171   5.369   5.257  1.3363  0.0718  1.2247
   50MOL   C27218010   5.390   5.145   5.002  0.5261  0.0520  0.6565
   50MOL   C27318011   5.311   5.016   5.016 -0.9891 -1.0180  0.5805
   50MOL   C27418012   5.164   5.036   5.067 -0.2112 -0.3259  0.3517
   50MOL   C27518013   5.088   4.918   5.132  0.4486  0.9692 -1.2568
   50MOL   C27618014   4.931   4.950   5.153  0.1363  0.4086 -0.4373
   50MOL   C27718015   5.144   4.865   5.262  0.4021  0.2260  0.2178
   50MOL   H27818016   5.343   5.219   4.937  0.2127 -0.6641  0.0750
   50MOL   H27918017   5.486   5.120   4.957 -0.3632 -1.6720 -0.2971
   50MOL   H28018018   5.358   4.963   5.099 -0.9253 -0.9746  0.5716
   50MOL   H28118019   5.107   5.060   4.978  3.1448 -1.3582 -2.1669
   50MOL   H28218020   5.154   5.131   5.120 -0.4595 -1.3461  2.1880
   50MOL   H28318021   5.075   4.843   5.054 -0.9350 -1.1209  0.8855
   50MOL   H28418022   4.908   5.043   5.204  1.3655  0.5941 -0.2210
   50MOL   H28518023   4.880   4.955   5.056 -0.5813  2.7100  0.0409
   50MOL   H28618024   4.882   4.874   5.214 -0.2705 -1.0711 -2.5224
   50MOL   H28718025   5.098   4.772   5.294  2.4046 -1.2022 -0.9942
   50MOL   H28818026   5.248   4.842   5.239  0.0152 -2.2673  0.8196
   50MOL   H28918027   5.146   4.935   5.345 -1.1448  1.3786 -0.6820
   50MOL   C29018028   5.310   4.932   4.883 -0.5353  0.0100  0.1328
   50MOL   C29118029   5.440   4.892   4.816 -0.0664 -0.2632 -0.0456
   50MOL   C29218030   5.523   4.792   4.907  0.0397  0.0369  0.1415
   50MOL   C29318031   5.677   4.799   4.892 -0.7243  0.8822  0.0933
   50MOL   C29418032   5.744   4.911   4.981 -0.2610  0.1954 -0.0276
   50MOL   C29518033   5.742   4.663   4.917  0.4931 -0.2160 -0.0942
   50MOL   H29618034   5.250   4.842   4.895  0.3040 -0.7715 -1.4333
   50MOL   H29718035   5.259   4.986   4.803 -2.4564 -0.5071  0.9543
   50MOL   H29818036   5.502   4.980   4.800  1.5509 -1.1412  1.2835
   50MOL   H29918037   5.485   4.691   4.896  1.5569 -0.6411  0.8871
   50MOL   H30018038   5.500   4.818   5.011 -1.0730 -1.3162  0.2419
   50MOL   H30118039   5.706   4.820   4.789 -2.7459 -0.0272 -0.6822
   50MOL   H30218040   5.704   4.888   5.080 -1.2130 -0.7388 -0.6221
   50MOL   H30318041   5.709   5.010   4.954  1.4730  1.1815  1.2557
   50MOL   H30418042   5.853   4.912   4.976 -0.2919  0.6893 -0.5645
   50MOL   H30518043   5.691   4.588   4.857  1.1022 -0.2365 -0.5962
   50MOL   H30618044   5.734   4.627   5.019  1.1513  2.7526  1.0567
   50MOL   H30718045   5.849   4.662   4.897  1.1084  1.8179  2.8181
   50MOL   C30818046   5.425   4.829   4.676 -0.2018 -0.4249  0.3051
   50MOL   C30918047   5.478   4.918   4.554 -0.2799 -0.2065  0.1909
   50MOL   C31018048   5.525   4.828   4.434 -0.0604  0.2559 -0.7407
   50MOL   C31118049   5.669   4.767   4.440 -0.0061 -0.1081 -0.4488
   50MOL   C31218050   5.697   4.667   4.332  0.0945 -0.3004 -0.4587
   50MOL   C31318051   5.782   4.874   4.434  0.0230 -0.6078  0.2830
   50MOL   H31418052   5.487   4.739   4.680 -0.4800 -0.6469 -0.2609
   50MOL   H31518053   5.326   4.784   4.662 -1.5824  2.2975  1.0439
   50MOL   H31618054   5.561   4.976   4.593  1.2914 -0.0247 -3.2562
   50MOL   H31718055   5.504   4.872   4.336 -3.2470 -1.1276 -0.7411
   50MOL   H31818056   5.467   4.738   4.453 -2.7147  1.9864 -0.3808
   50MOL   H31918057   5.685   4.733   4.543 -1.3134  1.2391  0.2305
   50MOL   H32018058   5.619   4.592   4.348  0.1999 -0.2445  0.3404
   50MOL   H32118059   5.795   4.620   4.339  0.0293 -0.0479  3.1107
   50MOL   H32218060   5.683   4.696   4.228 -0.3804 -1.1803 -0.6503
   50MOL   H32318061   5.754   4.932   4.345 -1.8025 -2.5681 -0.4785
   50MOL   H32418062   5.761   4.937   4.520  1.3028 -0.5751  0.5706
   50MOL   H32518063   5.887   4.847   4.433  0.7359  2.0264 -1.0126
   50MOL   C32618064   5.386   5.036   4.501  0.2054 -0.3109  0.3886
   50MOL   C32718065   5.472   5.155   4.447 -0.1750 -0.3830  0.0324
   50MOL   C32818066   5.445   5.287   4.517 -0.7058 -0.4505 -0.5546
   50MOL   C32918067   5.489   5.298   4.661  0.2389  0.0676 -0.3522
   50MOL   C33018068   5.638   5.272   4.683  0.2059  0.0775 -0.1383
   50MOL   C33118069   5.460   5.439   4.713  0.2420 -0.1518 -0.1590
   50MOL   H33218070   5.319   5.074   4.577 -2.2606 -1.5905 -1.0626
   50MOL   H33318071   5.310   4.992   4.436 -0.2817 -1.1077  1.4897
   50MOL   H33418072   5.575   5.125   4.463 -0.0181 -1.4048 -2.6359
   50MOL   H33518073   5.499   5.366   4.465 -0.3622 -2.0668 -2.7195
   50MOL   H33618074   5.340   5.317   4.511 -0.7696 -0.9351 -1.8547
   50MOL   H33718075   5.440   5.225   4.726  1.1067  1.2186  1.6562
   50MOL   H33818076   5.668   5.168   4.693  0.0887  0.0037 -0.5526
   50MOL   H33918077   5.662   5.313   4.781  1.1416 -0.2787 -0.2102
   50MOL   H34018078   5.696   5.320   4.604  1.0676 -0.5468  0.1150
   50MOL   H34118079   5.480   5.464   4.818 -0.3519 -0.7983  0.1098
   50MOL   H34218080   5.523   5.517   4.670  0.6082  0.1503  0.9030
   50MOL   H34318081   5.356   5.455   4.685  0.1592  0.0356  0.2526
   50MOL   C34418082   5.443   5.177   4.304  0.3498  0.2483  0.1140
   50MOL   C34518083   5.571   5.238   4.236 -0.2264 -0.0403 -0.1511
   50MOL   C34618084   5.568   5.255   4.085 -0.3350  0.2295  0.0489
   50MOL   C34718085   5.711   5.288   4.033 -0.1252 -0.4172 -0.2463
   50MOL   C34818086   5.764   5.427   4.065  0.4472 -0.3301 -0.0518
   50MOL   C34918087   5.731   5.262   3.880  0.1309 -0.6027 -0.5153
   50MOL   H35018088   5.348   5.232   4.303 -0.3698 -0.9842  0.3902
   50MOL   H35118089   5.409   5.090   4.249 -2.9751  2.1208 -0.9210
   50MOL   H35218090   5.645   5.160   4.253 -0.5531 -0.1834  0.6329
   50MOL   H35318091   5.543   5.158   4.042 -0.6092  0.1860  0.3008
   50MOL   H35418092   5.498   5.338   4.069  0.7929  1.0754 -0.5595
   50MOL   H35518093   5.777   5.216   4.081 -1.2695 -1.4408 -0.1840
   50MOL   H35618094   5.866   5.446   4.031 -0.1220 -0.5751 -1.9533
   50MOL   H35718095   5.702   5.509   4.029  1.5526  1.2062  1.4902
   50MOL   H35818096   5.777   5.440   4.172  4.3603 -1.7996 -0.2599
   50MOL   H35918097   5.654   5.308   3.819  1.0070  1.8192  0.1335
   50MOL   H36018098   5.716   5.155   3.866  0.4408 -1.0565  2.3953
   50MOL   H36118099   5.835   5.285   3.854 -0.1261  0.9339 -0.2661
   50MOL   H36218100   5.612   5.333   4.269 -2.6395  1.5476 -1.5919
   51MOL     C118101   5.478   0.117   4.485 -0.2186  0.6054 -0.0376
   51MOL     C218102   5.550   0.240   4.425  0.4665  0.0224  0.0974
   51MOL     C318103   5.639   0.300   4.540  0.7747 -0.4039  0.2413
   51MOL     C418104   5.769   0.379   4.494  0.0781 -0.9311 -0.3590
   51MOL     C518105   5.875   0.284   4.439 -0.2159  0.0617  0.3366
   51MOL     C618106   5.826   0.462   4.607  0.4084 -0.4494  0.3958
   51MOL     H718107   5.422   0.054   4.416  3.0631 -2.5352  0.0396
   51MOL     H818108   5.544   0.042   4.528 -0.8544 -0.9128 -1.6518
   51MOL     H918109   5.622   0.206   4.352  0.3849 -4.2513  1.8229
   51MOL    H1018110   5.573   0.352   4.610  1.6350 -0.7651  1.3416
   51MOL    H1118111   5.677   0.218   4.601  1.1322 -0.8441 -0.5667
   51MOL    H1218112   5.733   0.441   4.412 -1.9941 -0.8256  0.5967
   51MOL    H1318113   5.961   0.349   4.429 -1.1410  1.0865 -1.1536
   51MOL    H1418114   5.909   0.209   4.510 -0.9449  0.1877  0.8299
   51MOL    H1518115   5.852   0.242   4.341 -2.1727  2.4507 -0.3071
   51MOL    H1618116   5.882   0.399   4.677  0.0870  1.0687  2.0585
   51MOL    H1718117   5.745   0.519   4.653 -0.4302  0.5176 -2.1960
   51MOL    H1818118   5.903   0.533   4.575 -0.7443  2.2279  3.2209
   51MOL    H1918119   5.408   0.146   4.564  1.6122  1.1668  1.4106
   51MOL    C2018120   5.445   0.329   4.354 -1.2313  0.4890 -1.0714
   51MOL    C2118121   5.372   0.277   4.226 -0.3297 -0.6558 -0.4547
   51MOL    C2218122   5.257   0.381   4.175  0.0795 -0.1216  0.3572
   51MOL    C2318123   5.139   0.403   4.279 -0.2228 -0.9497  0.1432
   51MOL    C2418124   5.044   0.520   4.233  0.3601  0.1588 -0.2069
   51MOL    C2518125   5.059   0.268   4.297  0.1890 -0.1216 -0.6218
   51MOL    H2618126   5.375   0.348   4.436  0.5034 -3.3006  1.4695
   51MOL    H2718127   5.489   0.427   4.337  1.4108 -0.5870 -0.6028
   51MOL    H2818128   5.330   0.177   4.235 -1.2149 -0.3863 -1.4877
   51MOL    H2918129   5.196   0.348   4.091 -1.0714  1.5145  0.5244
   51MOL    H3018130   5.303   0.463   4.120 -1.3232  2.0806  2.3680
   51MOL    H3118131   5.177   0.438   4.375  1.8046  0.9771 -1.2971
   51MOL    H3218132   5.090   0.614   4.201  1.1700 -1.1235 -2.9896
   51MOL    H3318133   4.955   0.541   4.291  0.0172  2.4152 -1.4627
   51MOL    H3418134   5.001   0.485   4.139 -0.0931  0.8228 -0.2509
   51MOL    H3518135   5.025   0.230   4.200  1.0491  0.0062 -0.9841
   51MOL    H3618136   5.113   0.190   4.351  0.1179 -0.5969 -1.2329
   51MOL    H3718137   4.966   0.279   4.352 -0.3140  1.2624 -1.6993
   51MOL    C3818138   5.481   0.265   4.115  0.1879  0.4515  0.0056
   51MOL    C3918139   5.547   0.122   4.097  0.1565 -0.0344  0.0867
   51MOL    C4018140   5.698   0.134   4.085  0.7679 -0.3084 -0.8348
   51MOL    C4118141   5.764   0.201   3.951 -0.0022 -0.9998 -0.1577
   51MOL    C4218142   5.887   0.111   3.905  0.0511 -0.0391 -0.0306
   51MOL    C4318143   5.808   0.344   3.970  0.5578  0.3040  0.7374
   51MOL    H4418144   5.563   0.334   4.132  0.1189  0.1257  1.7601
   51MOL    H4518145   5.439   0.292   4.018  2.4064  3.4038 -0.2061
   51MOL    H4618146   5.535   0.080   4.197 -0.1100 -1.5798 -0.5713
   51MOL    H4718147   5.739   0.033   4.089  0.4907 -0.4347 -1.1688
   51MOL    H4818148   5.731   0.186   4.175  1.5604 -0.7727 -0.8433
   51MOL    H4918149   5.689   0.196   3.872 -2.7195 -0.7892  2.2945
   51MOL    H5018150   5.987   0.147   3.933 -1.2218  1.7576  2.3536
   51MOL    H5118151   5.877   0.005   3.925 -0.6121  0.0461  0.0773
   51MOL    H5218152   5.887   0.112   3.796  0.9091 -0.0139 -0.0356
   51MOL    H5318153   5.893   0.355   4.037  2.3743  1.8783 -1.7150
   51MOL    H5418154   5.723   0.399   4.010  1.0038  1.4796  0.0895
   51MOL    H5518155   5.847   0.387   3.878  1.4382 -0.6410  0.6558
   51MOL    C5618156   5.476   0.026   3.995  0.2062 -0.2053 -0.3502
   51MOL    C5718157   5.533   7.628   3.988 -0.7299 -0.2232 -0.1700
   51MOL    C5818158   5.472   7.555   3.865 -1.0774 -0.1319  0.0636
   51MOL    C5918159   5.574   7.575   3.746 -0.3406 -0.2935  0.3254
   51MOL    C6018160   5.505   7.539   3.614  0.2575  0.5842  0.8420
   51MOL    C6118161   5.694   7.473   3.774 -0.3453 -0.1287  0.6910
   51MOL    H6218162   5.491   0.069   3.896  0.2753 -2.0819 -1.1800
   51MOL    H6318163   5.368   0.030   4.009 -0.2129 -1.7129 -2.8766
   51MOL    H6418164   5.641   7.628   3.975 -0.7254  0.9044 -0.1791
   51MOL    H6518165   5.440   7.453   3.885 -0.2131 -0.6383 -1.0325
   51MOL    H6618166   5.383   7.615   3.844 -0.7408 -0.1904 -1.6538
   51MOL    H6718167   5.618   7.675   3.739 -3.4828  1.1893  1.2132
   51MOL    H6818168   5.482   7.432   3.621 -0.0289  0.5504 -0.5054
   51MOL    H6918169   5.574   7.548   3.529 -1.7133  1.2992 -0.7174
   51MOL    H7018170   5.417   7.601   3.599  0.2718  0.0388 -1.7582
   51MOL    H7118171   5.660   7.382   3.823 -0.1808 -0.3893  0.3194
   51MOL    H7218172   5.775   7.511   3.836 -0.6602  1.8122 -0.0462
   51MOL    H7318173   5.726   7.433   3.678 -0.2836 -1.0114  1.0715
   51MOL    C7418174   5.498   7.562   4.127  0.2326  0.2310  0.1040
   51MOL    C7518175   5.582   7.432   4.157 -0.1940  0.0643 -0.4235
   51MOL    C7618176   5.519   7.345   4.265 -0.1682  0.2164 -0.4230
   51MOL    C7718177   5.445   7.222   4.209  0.2845 -0.2232  0.4949
   51MOL    C7818178   5.365   7.168   4.328 -0.4065  0.1239 -0.3774
   51MOL    C7918179   5.532   7.109   4.156  0.1497  0.1963  0.4406
   51MOL    H8018180   5.391   7.545   4.131  0.1617  0.9412  1.5498
   51MOL    H8118181   5.511   7.631   4.211  1.0885  0.0745  0.1083
   51MOL    H8218182   5.584   7.376   4.064  1.8191  1.4338 -1.2529
   51MOL    H8318183   5.588   7.313   4.343  1.7165  1.1710 -1.6722
   51MOL    H8418184   5.452   7.410   4.320  0.6082  0.3542  0.3747
   51MOL    H8518185   5.367   7.251   4.138  1.3832 -1.8213 -1.4170
   51MOL    H8618186   5.311   7.243   4.384  0.3791  0.8718 -0.6064
   51MOL    H8718187   5.429   7.125   4.405 -0.8792 -0.0430 -0.0754
   51MOL    H8818188   5.284   7.101   4.301 -1.0769 -0.0784  2.0669
   51MOL    H8918189   5.591   7.059   4.232  0.6738  1.0068  0.5719
   51MOL    H9018190   5.469   7.027   4.121  0.8694 -0.1728  0.0024
   51MOL    H9118191   5.593   7.145   4.073  0.9371  0.8865  1.3026
   51MOL    C9218192   5.728   7.471   4.189 -0.7048 -0.5844  0.4537
   51MOL    C9318193   5.839   7.364   4.211  0.0455  0.3816 -0.6485
   51MOL    C9418194   5.927   7.338   4.082 -0.4208 -0.5400  0.0277
   51MOL    C9518195   6.005   7.203   4.072 -0.7739 -0.0360 -0.2780
   51MOL    C9618196   5.905   7.085   4.069  0.0452 -0.4321  0.0165
   51MOL    C9718197   6.090   7.198   3.955 -1.1454 -0.5398 -0.0678
   51MOL    H9818198   5.762   7.549   4.121 -0.4583 -1.1892 -0.1131
   51MOL    H9918199   5.727   7.529   4.282 -1.6821  1.9758 -1.0934
   51MOL   H10018200   5.797   7.266   4.233 -0.1368 -0.2119 -3.4694
   51MOL   H10118201   5.990   7.425   4.059 -1.8611  0.3371 -0.6553
   51MOL   H10218202   5.867   7.344   3.992 -1.9311  0.8218  1.0941
   51MOL   H10318203   6.074   7.199   4.157 -0.6056  0.6735 -0.3754
   51MOL   H10418204   5.857   7.057   4.163 -0.1684 -1.7716 -0.4750
   51MOL   H10518205   5.947   6.988   4.041 -0.8459 -1.3706  1.8236
   51MOL   H10618206   5.830   7.107   3.993 -0.6427  0.1056  0.8313
   51MOL   H10718207   6.045   7.153   3.866 -0.6789 -3.2528  1.0055
   51MOL   H10818208   6.177   7.135   3.973 -1.6624 -1.0785  0.5825
   51MOL   H10918209   6.122   7.301   3.939  1.3435 -1.1644  0.6618
   51MOL   C11018210   5.936   7.414   4.328 -0.0764 -0.7227 -0.3080
   51MOL   C11118211   5.879   7.372   4.468  0.4244 -0.6716 -0.2448
   51MOL   C11218212   5.900   7.219   4.497 -0.6797  0.4499  0.4163
   51MOL   C11318213   5.801   7.151   4.591 -0.3772 -0.4569 -0.3255
   51MOL   C11418214   5.839   7.143   4.742  0.0336 -0.0711 -0.0304
   51MOL   C11518215   5.757   7.033   4.516 -0.1543 -0.1010 -0.1087
   51MOL   H11618216   5.944   7.522   4.314  0.5158 -0.6312  0.6917
   51MOL   H11718217   6.040   7.382   4.324  0.0581 -0.2976 -0.2910
   51MOL   H11818218   5.775   7.404   4.462  0.7624  1.0038  1.8407
   51MOL   H11918219   6.005   7.198   4.520 -0.8797 -0.6236  0.3604
   51MOL   H12018220   5.900   7.176   4.396  1.0464 -1.1815  1.0727
   51MOL   H12118221   5.707   7.206   4.592 -0.5637 -0.7769 -0.2688
   51MOL   H12218222   5.945   7.120   4.755  0.9525  1.1738 -4.5356
   51MOL   H12318223   5.774   7.066   4.784  0.7840 -0.7703 -0.1335
   51MOL   H12418224   5.824   7.237   4.794 -0.8776 -0.4724  0.4375
   51MOL   H12518225   5.695   7.051   4.428  0.9075 -0.4695 -0.9529
   51MOL   H12618226   5.691   6.985   4.588  1.1419  0.0126  1.1683
   51MOL   H12718227   5.832   6.957   4.491  1.8073  1.4928  0.7619
   51MOL   C12818228   5.929   7.459   4.593  0.3976  0.0682 -0.0774
   51MOL   C12918229   5.890   7.607   4.595 -0.3471 -0.0743  0.4298
   51MOL   C13018230   5.981   7.689   4.685  0.0357  0.5020  0.2906
   51MOL   C13118231   6.133   7.701   4.642  0.1839  0.1973  0.5674
   51MOL   C13218232   6.150   0.006   4.496 -0.3938 -0.5944 -0.1761
   51MOL   C13318233   6.209   0.024   4.745 -0.2062  0.4209  0.0270
   51MOL   H13418234   6.037   7.464   4.576  0.0222 -0.1797 -2.8265
   51MOL   H13518235   5.908   7.418   4.691  0.9506  2.3062  1.0071
   51MOL   H13618236   5.901   7.637   4.491  0.3396 -0.3585  0.4177
   51MOL   H13718237   5.936   0.036   4.688 -0.2243  0.5171 -2.8942
   51MOL   H13818238   5.989   7.646   4.785  2.5413 -1.1451 -0.5574
   51MOL   H13918239   6.181   7.604   4.658  1.0584  0.5167 -0.0381
   51MOL   H14018240   6.094   0.096   4.473  0.2204  0.1309  1.1057
   51MOL   H14118241   6.132   7.681   4.421  2.1462 -0.1405 -1.2834
   51MOL   H14218242   6.249   0.050   4.485 -1.0053  0.7306 -0.4119
   51MOL   H14318243   6.168   0.125   4.756  1.5979  1.0962  0.7350
   51MOL   H14418244   6.211   7.732   4.844  0.6095 -1.0140 -0.6288
   51MOL   H14518245   6.305   0.052   4.701  0.3057 -1.0935  0.1642
   51MOL   C14618246   5.739   7.615   4.619 -0.1264 -0.2768  0.0416
   51MOL   C14718247   5.672   7.538   4.744 -0.3283 -0.1817 -0.2411
   51MOL   C14818248   5.525   7.584   4.759 -0.2151  0.6744 -0.5393
   51MOL   C14918249   5.428   7.542   4.647  0.3720 -0.8751 -0.1518
   51MOL   C15018250   5.403   7.394   4.641  0.1968 -0.0601 -0.2925
   51MOL   C15118251   5.291   7.621   4.653  0.8630 -0.5056 -0.3735
   51MOL   H15218252   5.696   7.590   4.523 -0.4612 -3.3174  0.9344
   51MOL   H15318253   5.713   7.720   4.636  0.4945 -0.6740  3.9790
   51MOL   H15418254   5.670   7.434   4.714  1.3643  0.1220 -1.4399
   51MOL   H15518255   5.476   7.552   4.851  0.4227  0.4956 -0.2519
   51MOL   H15618256   5.526   7.693   4.750 -0.0871  0.7022 -0.2224
   51MOL   H15718257   5.464   7.569   4.548  0.6885  4.0940  1.1709
   51MOL   H15818258   5.436   7.351   4.736 -0.9927 -1.3117 -0.4255
   51MOL   H15918259   5.480   7.354   4.575  1.0722 -1.0637  1.3100
   51MOL   H16018260   5.300   7.368   4.617 -0.5098  2.3605 -0.0453
   51MOL   H16118261   5.233   7.625   4.561  0.8060  2.1808 -0.2776
   51MOL   H16218262   5.314   7.724   4.682 -1.9396  0.3886 -1.2337
   51MOL   H16318263   5.229   7.581   4.733  1.2703 -0.3845  0.0078
   51MOL   C16418264   5.746   7.554   4.882 -0.0634  0.1220 -0.0410
   51MOL   C16518265   5.683   7.483   5.012  0.4974  0.4019  0.7783
   51MOL   C16618266   5.671   7.328   4.984  0.1187  0.2112 -0.6070
   51MOL   C16718267   5.586   7.251   5.079  0.2334  0.1880  0.0738
   51MOL   C16818268   5.437   7.289   5.053 -0.3310 -0.3616 -0.3874
   51MOL   C16918269   5.607   7.098   5.064 -0.4985 -0.7143  0.2774
   51MOL   H17018270   5.845   7.510   4.888 -0.2293 -0.2947 -0.3410
   51MOL   H17118271   5.765   7.661   4.890 -0.0624  0.2122 -1.1275
   51MOL   H17218272   5.583   7.522   5.033 -0.6318 -1.3450 -1.2305
   51MOL   H17318273   5.630   7.313   4.885 -0.5746 -0.3508 -0.2399
   51MOL   H17418274   5.767   7.278   4.995 -1.6950 -2.9343  1.6909
   51MOL   H17518275   5.614   7.277   5.181 -1.2899  2.3824 -0.0157
   51MOL   H17618276   5.374   7.230   5.119 -0.1317  0.2090  0.3196
   51MOL   H17718277   5.408   7.261   4.952 -0.8930 -0.1406 -0.2864
   51MOL   H17818278   5.400   7.388   5.078 -2.9452 -1.5154  0.4719
   51MOL   H17918279   5.708   7.065   5.088  0.1111  0.0491 -1.1791
   51MOL   H18018280   5.587   7.071   4.960  1.8106 -1.2561 -0.0566
   51MOL   H18118281   5.557   7.041   5.142  1.2242 -1.1095  1.1172
   51MOL   C18218282   5.758   7.508   5.145  0.1010 -0.3111  0.3374
   51MOL   C18318283   5.702   7.636   5.237  0.5216 -0.2946 -0.7136
   51MOL   C18418284   5.737   7.612   5.394  0.7781  0.1530  0.6374
   51MOL   C18518285   5.669   7.492   5.463  0.4895  1.0007 -0.4485
   51MOL   C18618286   5.700   7.508   5.611 -0.1808 -0.4527  0.4480
   51MOL   C18718287   5.517   7.490   5.434 -0.0342  0.2959 -0.3200
   51MOL   H18818288   5.862   7.528   5.120  0.0868 -1.5829 -0.8016
   51MOL   H18918289   5.752   7.427   5.216  0.7111  0.4615  1.2818
   51MOL   H19018290   5.594   7.620   5.238  0.2997  1.0447  3.0161
   51MOL   H19118291   5.728   7.703   5.452  0.5683  0.7807 -0.3752
   51MOL   H19218292   5.844   7.596   5.403  0.4183 -2.1528  1.2568
   51MOL   H19318293   5.725   7.406   5.426  0.7172  1.6815 -1.6960
   51MOL   H19418294   5.668   7.426   5.674  1.7624 -1.6377 -0.0409
   51MOL   H19518295   5.653   7.595   5.658 -0.0448 -0.2707  0.2500
   51MOL   H19618296   5.808   7.516   5.626  0.0303 -1.5798 -0.4282
   51MOL   H19718297   5.509   7.440   5.338 -0.0016 -1.2668  0.4742
   51MOL   H19818298   5.482   7.594   5.427  2.3160  1.2248  1.0819
   51MOL   H19918299   5.468   7.424   5.505 -0.9737  2.1380  0.7937
   51MOL   C20018300   5.734   0.023   5.187  0.2873 -0.2610 -0.0498
   51MOL   C20118301   5.649   0.136   5.240 -0.0226  0.2042  0.1300
   51MOL   C20218302   5.551   0.188   5.123  0.7859 -0.5124  0.4757
   51MOL   C20318303   5.460   0.085   5.068 -0.3674  0.1858 -0.4477
   51MOL   C20418304   5.340   0.054   5.155 -0.2222  0.7577  0.5234
   51MOL   C20518305   5.408   0.142   4.935 -1.1274  0.4129  0.3049
   51MOL   H20618306   5.723   0.013   5.079  0.0735  0.4008 -0.0919
   51MOL   H20718307   5.838   0.048   5.209  0.4502  0.0714 -1.1789
   51MOL   H20818308   5.586   0.097   5.320  3.4391 -1.5157  2.1477
   51MOL   H20918309   5.489   0.275   5.148  1.2464 -0.0641  0.0746
   51MOL   H21018310   5.602   0.239   5.041 -1.2909  0.2900 -0.3530
   51MOL   H21118311   5.517   7.748   5.043  0.7243  0.8656 -0.4530
   51MOL   H21218312   5.366   0.020   5.255  3.1282  0.9608 -0.2329
   51MOL   H21318313   5.294   7.715   5.117  1.0318  0.1837  0.3737
   51MOL   H21418314   5.277   0.143   5.151  2.9549  3.0833 -0.0930
   51MOL   H21518315   5.350   0.067   4.882  0.1111  0.8246 -1.7045
   51MOL   H21618316   5.493   0.172   4.874  0.5762 -0.0366  2.3950
   51MOL   H21718317   5.344   0.227   4.956 -0.8777  0.5484  0.5221
   51MOL   C21818318   5.730   0.261   5.286 -0.6200  0.5149  0.1205
   51MOL   C21918319   5.790   0.249   5.436 -0.0612 -0.4815  0.4238
   51MOL   C22018320   5.689   0.220   5.552  0.2916  0.4188  0.5304
   51MOL   C22118321   5.760   0.205   5.689  0.3186  0.3815  0.3270
   51MOL   C22218322   5.657   0.159   5.789  0.1799  0.0006 -0.7309
   51MOL   C22318323   5.882   0.111   5.692  0.7938 -0.1866  1.1135
   51MOL   H22418324   5.796   0.281   5.201  0.8568 -1.3570  0.8104
   51MOL   H22518325   5.667   0.350   5.280 -0.9095  0.3840  1.1996
   51MOL   H22618326   5.864   0.169   5.434  0.3832 -0.0576 -2.1024
   51MOL   H22718327   5.603   0.288   5.548 -0.8497 -0.9928  0.8329
   51MOL   H22818328   5.643   0.126   5.523 -0.5006  0.7332  0.7486
   51MOL   H22918329   5.785   0.305   5.725  2.3962  0.7264 -1.9591
   51MOL   H23018330   5.556   0.199   5.786 -0.1759 -0.9122 -1.1842
   51MOL   H23118331   5.642   0.051   5.799 -0.9024  0.0857 -1.3834
   51MOL   H23218332   5.696   0.191   5.886  0.9606  0.8727 -1.3257
   51MOL   H23318333   5.847   0.025   5.635  0.2005 -1.0486  2.7608
   51MOL   H23418334   5.963   0.155   5.633  1.0153  0.8181  2.1347
   51MOL   H23518335   5.919   0.086   5.792  0.5380  1.0191  1.5169
   51MOL   C23618336   5.854   0.387   5.467 -0.3325  0.5393  0.9508
   51MOL   C23718337   5.967   0.457   5.380  0.4733 -0.0530 -0.0804
   51MOL   C23818338   6.070   0.356   5.347 -0.1412 -0.5495  0.2588
   51MOL   C23918339   6.177   0.395   5.242  0.5932 -0.1223 -0.3860
   51MOL   C24018340   6.272   0.272   5.219  0.1270  0.2621  0.7435
   51MOL   C24118341   6.119   0.430   5.108  0.6798 -0.5978  0.4876
   51MOL   H24218342   5.903   0.364   5.562 -1.5254 -0.5595  1.3273
   51MOL   H24318343   5.775   0.456   5.496 -0.3614  0.7239  0.4358
   51MOL   H24418344   5.923   0.487   5.285  1.8497  0.2446 -0.6395
   51MOL   H24518345   6.011   0.271   5.311 -0.9488 -0.6033  1.6464
   51MOL   H24618346   6.115   0.320   5.440 -0.5224 -0.9561  0.2871
   51MOL   H24718347   6.244   0.472   5.282  1.4052 -2.4348  2.9580
   51MOL   H24818348   6.321   0.243   5.312  1.7595  0.5749 -0.0075
   51MOL   H24918349   6.347   0.295   5.144 -1.1719  1.6797 -0.1570
   51MOL   H25018350   6.231   0.178   5.181 -3.2699  1.2172  1.8309
   51MOL   H25118351   6.198   0.465   5.042  1.6074 -0.2555  1.7624
   51MOL   H25218352   6.046   0.510   5.110  2.9957  1.6583 -1.4710
   51MOL   H25318353   6.071   0.344   5.062 -1.3684  1.2055 -0.8233
   51MOL   C25418354   6.017   0.583   5.455  0.3419  0.2740  0.4128
   51MOL   C25518355   5.920   0.700   5.462  0.2216 -0.6205 -0.1247
   51MOL   C25618356   5.974   0.801   5.569  0.3012  0.7334  0.5938
   51MOL   C25718357   5.958   0.764   5.720  0.0574 -0.1783 -0.0653
   51MOL   C25818358   5.809   0.751   5.766 -0.4048  0.6768 -0.2286
   51MOL   C25918359   6.037   0.868   5.809 -0.1477 -0.1662 -0.3304
   51MOL   H26018360   6.040   0.553   5.557  1.0233  0.8036  0.4230
   51MOL   H26118361   6.110   0.620   5.410 -0.1190 -0.3057 -1.0526
   51MOL   H26218362   5.829   0.663   5.508 -0.7233  0.1283 -1.3434
   51MOL   H26318363   5.923   0.896   5.556  0.5221  0.6833 -0.7079
   51MOL   H26418364   6.080   0.823   5.557  0.4833  0.3142  1.3671
   51MOL   H26518365   5.998   0.663   5.728 -2.0474 -1.0134  0.0131
   51MOL   H26618366   5.761   0.659   5.730  2.1278 -0.5373 -0.5775
   51MOL   H26718367   5.748   0.834   5.731  0.5409  0.2952 -2.9284
   51MOL   H26818368   5.805   0.753   5.875 -2.1005 -1.8035 -0.2018
   51MOL   H26918369   6.030   0.845   5.915  0.7213  0.8429 -0.0463
   51MOL   H27018370   6.143   0.884   5.792 -0.1700 -1.0302 -1.3198
   51MOL   H27118371   5.991   0.965   5.790  1.4805  0.6259 -0.3206
   51MOL   C27218372   5.895   0.761   5.323  0.8845  0.0147  0.1958
   51MOL   C27318373   5.752   0.738   5.271 -0.1185  0.1389 -0.1212
   51MOL   C27418374   5.646   0.803   5.369  0.0481 -0.1010 -0.2409
   51MOL   C27518375   5.544   0.705   5.429 -0.2321  0.2372  0.1549
   51MOL   C27618376   5.470   0.621   5.325 -0.4190 -0.1784  0.1084
   51MOL   C27718377   5.449   0.786   5.523  0.3060  0.1776  0.0450
   51MOL   H27818378   5.899   0.870   5.319  0.2776  0.0266 -0.1266
   51MOL   H27918379   5.974   0.725   5.258  0.8708 -0.0475  0.2147
   51MOL   H28018380   5.738   0.631   5.281 -0.6012  0.2253  0.1370
   51MOL   H28118381   5.592   0.875   5.307  1.1728  0.7959 -0.1932
   51MOL   H28218382   5.700   0.867   5.438 -0.3972  0.8617 -0.7836
   51MOL   H28318383   5.597   0.635   5.493  0.8926  0.0178 -1.0006
   51MOL   H28418384   5.447   0.670   5.231  2.1098  0.2678 -0.3232
   51MOL   H28518385   5.523   0.528   5.303  0.3901  0.3064  0.0047
   51MOL   H28618386   5.370   0.603   5.365 -0.4663 -1.8173 -0.7167
   51MOL   H28718387   5.377   0.852   5.474  0.7670 -0.0021 -0.8903
   51MOL   H28818388   5.403   0.713   5.590 -0.9951  1.3795  0.4808
   51MOL   H28918389   5.503   0.855   5.587 -1.3524  0.5380  1.0738
   51MOL   C29018390   5.726   0.769   5.128  0.3291  0.1982 -0.3959
   51MOL   C29118391   5.740   0.919   5.077 -0.2915 -0.3043 -0.2705
   51MOL   C29218392   5.885   0.966   5.061  0.5286  0.1991  0.7236
   51MOL   C29318393   5.911   1.119   5.074  0.0882 -0.1598  0.2049
   51MOL   C29418394   5.844   1.189   5.194  0.0542 -0.3186  0.1396
   51MOL   C29518395   6.062   1.168   5.063 -0.5622  0.6098 -0.4872
   51MOL   H29618396   5.774   0.709   5.051 -0.7692 -0.5987 -0.4813
   51MOL   H29718397   5.621   0.743   5.112  0.3002  0.1029 -0.0517
   51MOL   H29818398   5.705   0.974   5.165 -0.1018 -0.7383  0.0774
   51MOL   H29918399   5.921   0.938   4.963  1.2988 -2.2928  1.6775
   51MOL   H30018400   5.955   0.912   5.124 -0.4814 -1.8546  0.1037
   51MOL   H30118401   5.878   1.165   4.981  1.5442  1.7761  0.6086
   51MOL   H30218402   5.872   1.291   5.217  1.4189  0.0764 -3.0558
   51MOL   H30318403   5.872   1.137   5.286  1.3562  3.5799  2.0598
   51MOL   H30418404   5.735   1.188   5.191  0.0814  1.1614 -2.4534
   51MOL   H30518405   6.067   1.275   5.044 -0.4110  0.7016  0.0611
   51MOL   H30618406   6.113   1.102   4.993  1.7816  1.3366  0.4711
   51MOL   H30718407   6.107   1.150   5.161 -0.0054 -1.1921 -1.0525
   51MOL   C30818408   5.664   0.946   4.953 -1.0785  0.4844  0.4256
   51MOL   C30918409   5.514   0.954   4.961  0.8244 -0.3953 -0.6782
   51MOL   C31018410   5.461   1.068   5.041  0.5771  0.0616 -0.1139
   51MOL   C31118411   5.309   1.061   5.084 -0.3936 -0.0737  0.3797
   51MOL   C31218412   5.292   0.978   5.215  0.5006 -0.8021  0.3730
   51MOL   C31318413   5.263   1.205   5.112 -0.7554  0.1867 -0.2947
   51MOL   H31418414   5.706   1.035   4.907  1.0215 -1.2503 -1.1065
   51MOL   H31518415   5.699   0.869   4.884 -0.5774  0.9457  0.1609
   51MOL   H31618416   5.477   0.859   4.999  0.4825 -0.4592 -1.1597
   51MOL   H31718417   5.459   1.156   4.977  0.5711 -1.5200 -2.3399
   51MOL   H31818418   5.513   1.093   5.133  1.3889  0.4274 -0.6715
   51MOL   H31918419   5.245   1.009   5.012  2.2523 -2.1730 -0.5564
   51MOL   H32018420   5.326   1.036   5.301  0.2499  0.8821 -0.6461
   51MOL   H32118421   5.356   0.890   5.220  2.6060  0.7213  0.5236
   51MOL   H32218422   5.185   0.959   5.229  0.6420 -0.6656  1.6813
   51MOL   H32318423   5.294   1.274   5.034  1.1326 -0.0134  0.2659
   51MOL   H32418424   5.155   1.223   5.112 -0.8845 -0.5289  1.7117
   51MOL   H32518425   5.313   1.233   5.204 -2.0597 -2.6943  1.3781
   51MOL   C32618426   5.452   0.958   4.817  0.0793  0.2888  0.3063
   51MOL   C32718427   5.460   0.835   4.727 -0.1896 -0.4539 -0.5037
   51MOL   C32818428   5.448   0.868   4.566  0.6644  0.0604 -0.4056
   51MOL   C32918429   5.578   0.909   4.497  0.1304 -0.5097  0.7451
   51MOL   C33018430   5.601   1.065   4.521  0.1968 -0.1803 -0.2674
   51MOL   C33118431   5.704   0.834   4.536  0.3360 -0.1262 -0.6966
   51MOL   H33218432   5.514   1.031   4.765  0.1032 -0.2225 -0.3771
   51MOL   H33318433   5.358   1.014   4.812  0.3033  0.5961 -0.5158
   51MOL   H33418434   5.558   0.789   4.744  0.4419  1.5887  1.5100
   51MOL   H33518435   5.433   0.773   4.514  2.3469 -2.2519  3.1797
   51MOL   H33618436   5.365   0.935   4.543  0.2094 -0.3881 -0.0709
   51MOL   H33718437   5.567   0.903   4.389 -0.6196 -1.0189  0.8443
   51MOL   H33818438   5.661   1.105   4.439 -2.0702  0.1330 -1.8437
   51MOL   H33918439   5.650   1.093   4.614  0.7267 -1.0275 -0.2934
   51MOL   H34018440   5.509   1.123   4.513  1.5389  2.0220 -0.0761
   51MOL   H34118441   5.739   0.865   4.634 -0.7561 -1.5217  0.1521
   51MOL   H34218442   5.691   0.726   4.541 -2.2695  0.2313  1.5325
   51MOL   H34318443   5.786   0.852   4.467  1.2550 -0.2986  0.3449
   51MOL   C34418444   5.344   0.733   4.763 -0.0584  0.3832  0.2048
   51MOL   C34518445   5.338   0.599   4.686 -0.0138 -0.2813 -0.1326
   51MOL   C34618446   5.225   0.499   4.731 -0.4823 -0.1370  0.4491
   51MOL   C34718447   5.094   0.522   4.655  0.2603 -0.6257 -0.0598
   51MOL   C34818448   5.004   0.631   4.716  0.3458  0.0023 -0.2332
   51MOL   C34918449   5.017   0.391   4.663 -0.4573 -0.3321 -0.2114
   51MOL   H35018450   5.246   0.778   4.743 -0.0193 -0.1509 -1.2473
   51MOL   H35118451   5.342   0.715   4.870  1.6303  2.9401  0.7056
   51MOL   H35218452   5.432   0.548   4.703  0.2519  0.5917  1.1016
   51MOL   H35318453   5.261   0.397   4.716 -0.7568 -0.0982 -0.4965
   51MOL   H35418454   5.208   0.511   4.838 -0.6668  1.1851  0.2862
   51MOL   H35518455   5.118   0.553   4.553  0.1475  0.3185  0.2012
   51MOL   H35618456   4.907   0.639   4.668 -0.5006  4.0521  1.9312
   51MOL   H35718457   4.986   0.621   4.823  1.6750 -0.9432 -0.0830
   51MOL   H35818458   5.045   0.727   4.685  1.9095 -0.6323 -0.1647
   51MOL   H35918459   4.934   0.387   4.592  0.8648 -0.3593 -1.8092
   51MOL   H36018460   4.981   0.367   4.762 -0.5015  1.3409  0.2013
   51MOL   H36118461   5.080   0.307   4.635 -0.4749 -1.0411  1.8808
   51MOL   H36218462   5.329   0.606   4.578 -0.8210 -0.1024 -0.0598
   52MOL     C118463   0.291   0.306   6.743 -0.5720 -0.1631  0.1069
   52MOL     C218464   0.155   0.252   6.789 -0.6292 -0.4728  0.3127
   52MOL     C318465   0.131   0.109   6.740 -0.3431  0.1230  0.0242
   52MOL     C418466   0.050   0.013   6.837 -0.3276 -0.1057 -0.3531
   52MOL     C518467   0.097   7.617   6.828 -0.0004 -0.0372  0.7258
   52MOL     C618468   7.654   0.028   6.814 -0.2449  0.4031 -0.2334
   52MOL     H718469   0.319   0.404   6.783  0.7975 -1.1217  1.5632
   52MOL     H818470   0.376   0.244   6.771  0.0034 -0.0008 -1.2259
   52MOL     H918471   0.145   0.241   6.897 -1.7909  0.9528  0.3660
   52MOL    H1018472   0.094   0.098   6.638 -3.0967  1.3275  0.8624
   52MOL    H1118473   0.226   0.055   6.742 -1.7133 -2.4445 -1.7996
   52MOL    H1218474   0.069   0.039   6.942  1.0148  2.4598 -1.1843
   52MOL    H1318475   0.023   7.552   6.875 -2.3540 -1.6757 -4.8092
   52MOL    H1418476   0.097   7.588   6.723 -0.3089  0.2118  0.6516
   52MOL    H1518477   0.191   7.609   6.882  0.7581  0.0428 -0.5878
   52MOL    H1618478   7.593   7.715   6.876  0.0712 -0.4137 -0.7688
   52MOL    H1718479   7.628   0.017   6.709  0.9350  0.2109 -0.5170
   52MOL    H1818480   7.636   0.134   6.834  1.5799  0.8477 -0.8197
   52MOL    H1918481   0.303   0.316   6.635 -3.6607 -1.8408 -0.4499
   52MOL    C2018482   0.042   0.341   6.730  0.7001  0.2856  0.4540
   52MOL    C2118483   0.027   0.467   6.812  0.1093 -0.4897 -0.5022
   52MOL    C2218484   7.705   0.580   6.729 -0.1289 -0.4034  0.1647
   52MOL    C2318485   0.027   0.641   6.609  0.3939 -0.2819 -0.4909
   52MOL    C2418486   7.683   0.738   6.546  0.0218 -0.1267 -0.1593
   52MOL    C2518487   0.152   0.710   6.657 -0.2527 -0.3591 -0.0479
   52MOL    H2618488   0.073   0.362   6.627 -0.1965 -2.4674 -0.3999
   52MOL    H2718489   7.703   0.289   6.702  1.5661 -1.7573  1.3554
   52MOL    H2818490   0.125   0.508   6.836 -0.4061 -0.3427  1.4321
   52MOL    H2918491   7.667   0.667   6.783  0.7072  0.3492 -0.4383
   52MOL    H3018492   7.612   0.533   6.697 -1.0059  1.9784 -0.9084
   52MOL    H3118493   0.041   0.553   6.546 -1.5914 -0.9453 -0.0429
   52MOL    H3218494   7.662   0.829   6.602  0.1190 -0.5816  0.6167
   52MOL    H3318495   7.596   0.691   6.499  1.0461 -2.1058 -0.1337
   52MOL    H3418496   7.732   0.776   6.456  2.7325 -1.0876  0.8478
   52MOL    H3518497   0.226   0.642   6.698 -0.4291  0.4648  1.6735
   52MOL    H3618498   0.202   0.737   6.564 -1.4963  1.4918 -0.2026
   52MOL    H3718499   0.132   0.789   6.729 -0.0775 -1.6331  1.4232
   52MOL    C3818500   7.701   0.448   6.947 -0.3513 -0.0475 -0.0805
   52MOL    C3918501   7.721   0.559   7.057 -0.2738  0.2084  0.0222
   52MOL    C4018502   0.089   0.532   7.148  0.3771 -0.3866  0.2522
   52MOL    C4118503   0.138   0.645   7.250 -0.6504 -0.1388  0.7160
   52MOL    C4218504   0.279   0.684   7.230 -0.2556 -0.2965 -0.7793
   52MOL    C4318505   0.116   0.600   7.393  0.2632 -0.6536 -0.2576
   52MOL    H4418506   7.713   0.353   7.000 -2.8591  0.4531  1.4952
   52MOL    H4518507   7.593   0.437   6.933 -0.8162  1.3741  2.0944
   52MOL    H4618508   7.748   0.653   7.009 -1.0038  1.4448  1.9596
   52MOL    H4718509   0.169   0.507   7.078  0.7414  1.4246  0.0098
   52MOL    H4818510   0.073   0.434   7.193  0.0926 -0.1640  0.6360
   52MOL    H4918511   0.082   0.738   7.237 -1.7915 -0.8867  0.1768
   52MOL    H5018512   0.359   0.611   7.238 -0.1205 -0.3290 -2.3716
   52MOL    H5118513   0.300   0.735   7.136 -1.5397 -0.7353 -1.3221
   52MOL    H5218514   0.298   0.766   7.300  0.1384 -0.7425 -0.3533
   52MOL    H5318515   0.139   0.689   7.452 -0.4425 -0.2960 -0.5162
   52MOL    H5418516   0.184   0.520   7.423 -0.4164 -1.2327 -0.2298
   52MOL    H5518517   0.015   0.564   7.415  0.5482  0.3636  3.0482
   52MOL    C5618518   7.591   0.557   7.143 -0.1075  0.8651  0.6860
   52MOL    C5718519   7.463   0.619   7.074 -0.3925  0.7158 -0.4167
   52MOL    C5818520   7.467   0.773   7.077 -0.4018  0.2034  0.2353
   52MOL    C5918521   7.522   0.847   6.954  0.1485 -0.1310  0.7002
   52MOL    C6018522   7.560   0.993   6.982 -0.0276  0.0731  0.4026
   52MOL    C6118523   7.433   0.840   6.828 -0.5363  0.4376  0.3074
   52MOL    H6218524   7.613   0.609   7.236  0.5070 -0.2009  1.1373
   52MOL    H6318525   7.565   0.454   7.168  0.4752 -0.1424 -2.6039
   52MOL    H6418526   7.443   0.588   6.971  0.1716  0.4624 -0.4509
   52MOL    H6518527   7.366   0.811   7.096 -0.8515 -1.4828  1.3353
   52MOL    H6618528   7.521   0.808   7.165  0.3095  0.4214 -0.2846
   52MOL    H6718529   7.618   0.804   6.926 -0.0584  0.5417 -1.0852
   52MOL    H6818530   7.569   1.058   6.895 -0.3590  0.5471  0.7199
   52MOL    H6918531   7.652   1.009   7.038  0.2281  2.8331 -0.7429
   52MOL    H7018532   7.481   1.038   7.042  0.2938  2.2182 -0.7562
   52MOL    H7118533   7.483   0.899   6.751 -0.9672  0.8830  0.3669
   52MOL    H7218534   7.330   0.876   6.831 -0.8368 -0.4436  0.6016
   52MOL    H7318535   7.433   0.738   6.790  2.3223  1.2439 -2.0079
   52MOL    C7418536   7.344   0.563   7.152  0.3333  0.0354 -0.2305
   52MOL    C7518537   7.195   0.604   7.096  0.1190  0.2985 -0.1343
   52MOL    C7618538   7.120   0.703   7.189  0.1433 -0.4340  0.3148
   52MOL    C7718539   7.065   0.835   7.119 -0.2616 -0.1013 -0.1697
   52MOL    C7818540   7.034   0.942   7.224  0.1279 -0.2181 -0.7322
   52MOL    C7918541   6.960   0.797   7.026  0.1543 -0.4329  0.2905
   52MOL    H8018542   7.345   0.581   7.259  2.4623 -1.3301  0.0093
   52MOL    H8118543   7.358   0.455   7.148  1.4757  0.2064 -1.1039
   52MOL    H8218544   7.218   0.645   6.997  1.1749  2.2832  0.9163
   52MOL    H8318545   7.044   0.659   7.253 -0.7938  0.2838 -0.2991
   52MOL    H8418546   7.196   0.729   7.263 -1.0182 -0.6206  1.5864
   52MOL    H8518547   7.144   0.874   7.054 -0.0233 -1.1637 -0.5325
   52MOL    H8618548   7.000   1.034   7.177  1.1705  0.6142  0.1159
   52MOL    H8718549   7.116   0.983   7.282 -0.6097 -1.7355  1.4207
   52MOL    H8818550   6.964   0.911   7.302  0.4975 -0.1208 -0.3602
   52MOL    H8918551   7.004   0.745   6.941  3.5555  1.0004  1.0896
   52MOL    H9018552   6.893   0.730   7.080 -0.3078 -0.3317 -0.1506
   52MOL    H9118553   6.909   0.890   7.000  0.0979 -0.3171  0.8226
   52MOL    C9218554   7.104   0.477   7.071  0.6707 -0.3020  0.8523
   52MOL    C9318555   7.135   0.390   6.954 -0.0053  1.1800  0.5137
   52MOL    C9418556   7.057   0.259   6.967 -0.0391 -1.1785 -0.1633
   52MOL    C9518557   7.120   0.170   7.077  0.3883  0.2128  0.3933
   52MOL    C9618558   7.057   0.030   7.092  0.0408 -0.0803  0.0091
   52MOL    C9718559   7.268   0.143   7.038 -0.1307  0.2685 -0.4590
   52MOL    H9818560   7.110   0.411   7.158  1.3120 -0.0498  1.0030
   52MOL    H9918561   7.002   0.514   7.059  1.7634  2.6022  0.0154
   52MOL   H10018562   7.242   0.371   6.956  0.0528  1.1014 -1.7499
   52MOL   H10118563   7.053   0.204   6.873  0.0211  0.2695 -1.0298
   52MOL   H10218564   6.952   0.286   6.984 -0.2951 -1.0472 -1.9065
   52MOL   H10318565   7.118   0.216   7.176  0.5371  0.3301  0.3412
   52MOL   H10418566   7.125   7.712   7.140  2.4338  0.4624 -2.4850
   52MOL   H10518567   7.043   7.749   6.989  0.7042  0.5274 -0.2807
   52MOL   H10618568   6.957   0.040   7.134  0.5255 -0.9320  1.3943
   52MOL   H10718569   7.337   0.223   7.066  2.2465 -1.9531  0.1701
   52MOL   H10818570   7.276   0.133   6.930 -0.6087  2.3593 -0.7214
   52MOL   H10918571   7.313   0.061   7.093 -0.5692  1.0673  1.1223
   52MOL   C11018572   7.096   0.460   6.830  0.5788 -0.4367 -0.2055
   52MOL   C11118573   7.098   0.393   6.684  0.0947  0.0063 -0.9233
   52MOL   C11218574   7.061   0.502   6.575  0.8388  0.8915 -0.9553
   52MOL   C11318575   6.910   0.524   6.557  0.7637  0.2012  0.1093
   52MOL   C11418576   6.863   0.458   6.421 -0.4391 -0.2774 -0.2366
   52MOL   C11518577   6.864   0.671   6.567 -0.4052 -0.6436 -0.8590
   52MOL   H11618578   7.160   0.548   6.821  0.6211 -0.5558 -1.1185
   52MOL   H11718579   6.999   0.509   6.837  0.0564 -1.5205  0.3106
   52MOL   H11818580   7.030   0.308   6.681  0.3868 -0.3403  1.4604
   52MOL   H11918581   7.091   0.464   6.478  2.1474 -0.8087  0.0990
   52MOL   H12018582   7.117   0.594   6.589  0.9546  0.8518 -1.1613
   52MOL   H12118583   6.866   0.470   6.641 -0.6078  1.0782 -0.0219
   52MOL   H12218584   6.762   0.493   6.399 -1.3001 -0.4582  3.1423
   52MOL   H12318585   6.859   0.351   6.440 -2.2733 -0.7624 -3.0386
   52MOL   H12418586   6.919   0.470   6.328 -3.1645 -1.9380 -2.1748
   52MOL   H12518587   6.869   0.733   6.478 -0.7104  0.4059 -0.1595
   52MOL   H12618588   6.925   0.710   6.649 -0.6708 -0.4452 -0.7582
   52MOL   H12718589   6.762   0.685   6.602 -0.1604 -0.4713 -0.1938
   52MOL   C12818590   7.237   0.326   6.652 -0.6263  0.2001 -0.5094
   52MOL   C12918591   7.245   0.224   6.535 -0.0009 -0.3252  0.2182
   52MOL   C13018592   7.180   0.087   6.580  0.0754 -0.6091  0.1560
   52MOL   C13118593   7.033   0.062   6.535 -0.5882  0.2342 -0.0407
   52MOL   C13218594   7.030   7.735   6.405  0.2215 -0.1960  0.0859
   52MOL   C13318595   6.954   7.734   6.637 -0.0680 -0.0159  0.2591
   52MOL   H13418596   7.273   0.274   6.741  1.7685  1.8642 -0.4626
   52MOL   H13518597   7.308   0.408   6.640 -0.2564 -0.2873 -1.7258
   52MOL   H13618598   7.197   0.266   6.447 -0.9978  1.1220  1.4292
   52MOL   H13718599   7.241   0.006   6.541  0.0947 -0.8097  0.5985
   52MOL   H13818600   7.193   0.078   6.688  0.1967  2.2499  0.4005
   52MOL   H13918601   6.978   0.155   6.519  0.6297  0.6050 -2.4143
   52MOL   H14018602   6.929   7.696   6.395 -0.0669  1.3520 -3.6412
   52MOL   H14118603   7.097   7.648   6.402 -0.3684 -0.6044 -1.5481
   52MOL   H14218604   7.050   0.047   6.320  0.3781 -0.7410 -0.2922
   52MOL   H14318605   6.985   7.629   6.639 -0.7390 -0.1987  1.3095
   52MOL   H14418606   6.943   0.017   6.739  1.3088 -1.7067  1.0125
   52MOL   H14518607   6.853   7.720   6.598  0.1309  1.1578 -0.6987
   52MOL   C14618608   7.392   0.213   6.500 -0.3606  0.0064  0.4800
   52MOL   C14718609   7.415   0.134   6.365 -0.0265 -0.1299  0.7021
   52MOL   C14818610   7.548   0.051   6.373  0.4788  0.6630 -0.4576
   52MOL   C14918611   7.535   7.667   6.441  0.0134  0.4932 -0.6706
   52MOL   C15018612   7.439   7.570   6.371 -0.1183  0.7479 -0.0306
   52MOL   C15118613   7.676   7.612   6.472 -0.3426  0.0533  0.2864
   52MOL   H15218614   7.435   0.172   6.591 -0.0449 -0.0669  0.2969
   52MOL   H15318615   7.435   0.313   6.493  0.5576 -0.2328  2.2979
   52MOL   H15418616   7.338   0.058   6.366  0.1141 -0.2698  0.9224
   52MOL   H15518617   7.593   0.047   6.274  0.1081  1.2576 -0.6518
   52MOL   H15618618   7.615   0.114   6.431 -0.7655 -0.1152  1.8964
   52MOL   H15718619   7.493   7.679   6.541  0.1225  0.0605 -0.5725
   52MOL   H15818620   7.477   7.555   6.270 -0.9239  1.0493 -0.3822
   52MOL   H15918621   7.335   7.598   6.356 -0.8168 -1.0640  1.2677
   52MOL   H16018622   7.443   7.477   6.428  2.2114 -0.5425 -2.2084
   52MOL   H16118623   7.735   7.600   6.381 -0.0937 -0.3057  0.4939
   52MOL   H16218624   7.661   7.518   6.525 -0.7457  1.2310  2.3462
   52MOL   H16318625   7.722   7.689   6.535 -0.1913 -0.7844  1.2083
   52MOL   C16418626   7.414   0.227   6.246  0.1909 -0.7756 -1.0534
   52MOL   C16518627   7.389   0.160   6.114 -0.1923 -0.1935  0.2918
   52MOL   C16618628   7.241   0.174   6.085 -0.9950 -0.1328  0.0235
   52MOL   C16718629   7.195   0.091   5.961  0.1292 -0.4474 -0.0507
   52MOL   C16818630   7.161   7.701   6.000  0.0415 -0.1070  0.4694
   52MOL   C16918631   7.076   0.157   5.890 -0.2538  0.4132  0.5832
   52MOL   H17018632   7.351   0.313   6.266  2.5753  0.4065  1.7711
   52MOL   H17118633   7.515   0.265   6.235  1.8527 -4.0039  1.9069
   52MOL   H17218634   7.415   0.055   6.128  1.3784  0.5513  3.4709
   52MOL   H17318635   7.173   0.147   6.166 -2.0019  0.2052 -0.7027
   52MOL   H17418636   7.234   0.278   6.053  1.1463 -0.3930 -1.3902
   52MOL   H17518637   7.275   0.070   5.890 -0.5531 -0.4489 -0.8378
   52MOL   H17618638   7.117   7.639   5.922  0.3886  1.6466 -1.1452
   52MOL   H17718639   7.087   7.705   6.080 -0.2140  0.6802  0.1964
   52MOL   H17818640   7.254   7.654   6.031  0.9453  0.1370 -1.7792
   52MOL   H17918641   6.986   0.161   5.952  1.0848 -1.1227  2.6882
   52MOL   H18018642   7.050   0.094   5.805 -0.8767 -0.6553  1.5508
   52MOL   H18118643   7.094   0.259   5.854  3.3902  0.0507  1.2370
   52MOL   C18218644   7.478   0.214   6.003 -0.6306  0.3190 -0.6403
   52MOL   C18318645   7.608   0.135   5.972  0.0717  0.0661 -0.6878
   52MOL   C18418646   7.576   0.011   5.886  0.2335 -0.2376 -0.0324
   52MOL   C18518647   7.684   7.655   5.871  0.3199  0.1061  0.4806
   52MOL   C18618648   7.715   7.560   5.984  0.8076 -0.3393 -0.6710
   52MOL   C18718649   7.656   7.570   5.741 -0.0936 -0.2691  0.4755
   52MOL   H18818650   7.509   0.317   6.019  0.6415  0.0500 -1.2823
   52MOL   H18918651   7.422   0.224   5.910  1.1731 -0.2593 -1.8205
   52MOL   H19018652   7.646   0.100   6.068 -2.9548  1.5987  1.1054
   52MOL   H19118653   7.552   0.051   5.788 -0.7038 -1.9131 -0.5166
   52MOL   H19218654   7.490   7.715   5.934 -1.1735  1.5492 -0.7002
   52MOL   H19318655   0.031   7.699   5.858  1.6611 -2.9829 -0.2923
   52MOL   H19418656   0.055   7.505   5.971  0.8826 -0.7691  1.4810
   52MOL   H19518657   7.636   7.498   6.026 -0.3090  0.7787 -1.0665
   52MOL   H19618658   7.739   7.634   6.062  1.9298 -0.6606 -0.7121
   52MOL   H19718659   7.663   7.615   5.642  0.0366 -0.9966  0.1451
   52MOL   H19818660   7.558   7.522   5.745 -2.0603  3.4485 -1.0425
   52MOL   H19918661   7.723   7.484   5.739 -0.7088 -0.8037  2.0169
   52MOL   C20018662   7.714   0.229   5.888 -0.3607 -0.4218  0.7839
   52MOL   C20118663   0.076   0.285   5.971  0.1361 -0.1215 -0.0702
   52MOL   C20218664   0.031   0.399   6.066 -0.0295 -0.1964  0.9329
   52MOL   C20318665   0.134   0.439   6.174  0.0602 -0.2472 -0.1439
   52MOL   C20418666   0.073   0.558   6.252 -0.3865 -0.1905 -0.4833
   52MOL   C20518667   0.183   0.331   6.260  0.1659  0.0814 -0.2059
   52MOL   H20618668   7.663   0.308   5.833  0.7518  1.6068  2.5657
   52MOL   H20718669   0.005   0.171   5.806 -0.0708  0.4524  0.3163
   52MOL   H20818670   0.111   0.203   6.034  2.0634  0.6106 -0.1572
   52MOL   H20918671   0.000   0.480   5.998  1.8681  0.0495  0.3439
   52MOL   H21018672   7.688   0.383   6.116 -0.0231  1.8512  1.6670
   52MOL   H21118673   0.218   0.484   6.121  0.7032 -0.9686  0.2720
   52MOL   H21218674   7.728   0.533   6.294 -0.6603  1.3993 -0.1095
   52MOL   H21318675   0.060   0.643   6.185  1.0173  2.1716  2.1084
   52MOL   H21418676   0.144   0.581   6.332 -1.0944 -0.3782  0.2049
   52MOL   H21518677   0.102   0.283   6.315  1.5214  0.0713  1.8463
   52MOL   H21618678   0.250   0.369   6.338 -1.3340  2.1126  0.1512
   52MOL   H21718679   0.242   0.249   6.218 -3.2686 -3.0454  0.8644
   52MOL   C21818680   0.198   0.317   5.878  0.5938  0.2622  0.2625
   52MOL   C21918681   0.296   0.195   5.845  0.0533 -0.3040  0.3163
   52MOL   C22018682   0.388   0.148   5.958  0.4153  1.3240  0.5715
   52MOL   C22118683   0.468   0.018   5.955  0.3763 -0.3444  0.5399
   52MOL   C22218684   0.567   0.009   6.068  0.2752  0.0869 -0.6131
   52MOL   C22318685   0.375   7.646   5.957  0.4942  0.3183  0.3815
   52MOL   H22418686   0.152   0.349   5.785  1.0106 -0.8948 -0.3419
   52MOL   H22518687   0.251   0.403   5.920 -0.2092  1.5596 -1.2850
   52MOL   H22618688   0.228   0.112   5.826 -0.5109 -0.2033  1.8340
   52MOL   H22718689   0.459   0.231   5.958 -1.1609  2.7197  0.5911
   52MOL   H22818690   0.329   0.160   6.049 -0.1637  2.8600  0.0150
   52MOL   H22918691   0.524   0.015   5.862  1.2497  3.4663  0.8458
   52MOL   H23018692   0.644   7.685   6.053 -0.7709 -0.8397 -1.4119
   52MOL   H23118693   0.607   0.108   6.089  0.7071 -0.3767  0.7713
   52MOL   H23218694   0.518   7.733   6.161  0.6691  0.3948 -0.3109
   52MOL   H23318695   0.428   7.557   5.991 -1.1107 -1.8132 -2.4150
   52MOL   H23418696   0.277   7.660   6.002  0.0594 -1.1425 -0.0861
   52MOL   H23518697   0.346   7.614   5.857  1.0752  3.3878 -0.8158
   52MOL   C23618698   0.379   0.239   5.724  0.2169  0.2446 -0.9230
   52MOL   C23718699   0.319   0.290   5.592  0.2782  0.2817  0.1867
   52MOL   C23818700   0.208   0.185   5.546 -0.9351 -1.1787 -0.7341
   52MOL   C23918701   0.130   0.198   5.411 -0.0967  0.3904 -0.0580
   52MOL   C24018702   0.013   0.100   5.417 -0.1453  0.0994  0.1588
   52MOL   C24118703   0.078   0.345   5.390  0.0412 -0.2448  0.2772
   52MOL   H24218704   0.441   0.154   5.698  0.0470  0.0536 -0.7035
   52MOL   H24318705   0.456   0.310   5.755 -0.6998  0.4645  0.9343
   52MOL   H24418706   0.272   0.387   5.606  1.2271  1.0623 -1.8091
   52MOL   H24518707   0.136   0.167   5.626 -0.1044 -3.2233 -0.4175
   52MOL   H24618708   0.263   0.091   5.532  1.4689  0.6988 -4.6388
   52MOL   H24718709   0.188   0.159   5.327  0.4161  1.2498 -0.1150
   52MOL   H24818710   0.038   7.749   5.439 -2.8579 -0.6210  0.0203
   52MOL   H24918711   7.725   0.092   5.316 -0.4747  0.5738  0.2500
   52MOL   H25018712   7.684   0.128   5.484  1.2172  3.4338  0.5161
   52MOL   H25118713   0.012   0.345   5.304  0.9920 -0.2941 -0.4532
   52MOL   H25218714   0.149   0.425   5.371  1.2279 -1.2193  0.5190
   52MOL   H25318715   0.027   0.376   5.482 -0.5074  1.4040 -0.5738
   52MOL   C25418716   0.420   0.306   5.481  0.4070 -0.5337  0.2701
   52MOL   C25518717   0.522   0.419   5.489 -0.1547  0.2452 -0.1238
   52MOL   C25618718   0.649   0.398   5.404 -0.0036 -0.5017 -0.6452
   52MOL   C25718719   0.748   0.294   5.455  0.6304  0.6658  0.4521
   52MOL   C25818720   0.824   0.337   5.585 -0.1383  0.0820  0.4090
   52MOL   C25918721   0.836   0.249   5.329  0.5696 -0.3301 -0.2193
   52MOL   H26018722   0.464   0.211   5.450  1.6508 -0.0658  0.5826
   52MOL   H26118723   0.374   0.323   5.384  1.5534  1.7631  0.0766
   52MOL   H26218724   0.554   0.414   5.593  0.1000  0.8328 -0.1723
   52MOL   H26318725   0.699   0.494   5.393  1.5847 -1.3352 -0.8425
   52MOL   H26418726   0.608   0.372   5.307  0.4241 -1.0354 -0.6817
   52MOL   H26518727   0.679   0.215   5.482  0.7617  0.1824 -0.5890
   52MOL   H26618728   0.745   0.344   5.660  0.0493  1.3798  0.4974
   52MOL   H26718729   0.864   0.437   5.572  0.8926 -0.3260  0.4201
   52MOL   H26818730   0.895   0.263   5.623 -0.1339  1.1377  2.5212
   52MOL   H26918731   0.867   0.332   5.266 -1.2265  0.7319  0.2385
   52MOL   H27018732   0.922   0.195   5.369  1.1450  0.1178 -0.8433
   52MOL   H27118733   0.779   0.182   5.265 -1.9132  1.7998 -0.3284
   52MOL   C27218734   0.455   0.566   5.466  0.1182 -0.4376 -0.0795
   52MOL   C27318735   0.531   0.685   5.531 -0.4979 -0.3857 -0.3051
   52MOL   C27418736   0.462   0.825   5.524  0.5351  0.0665 -0.4215
   52MOL   C27518737   0.459   0.875   5.385 -0.0697  0.1239  0.1334
   52MOL   C27618738   0.576   0.967   5.359  0.4244 -0.0948  0.6487
   52MOL   C27718739   0.333   0.950   5.351  0.5205 -0.1254  0.0589
   52MOL   H27818740   0.440   0.579   5.359 -0.9534 -2.6223 -0.2262
   52MOL   H27918741   0.356   0.564   5.511  0.4445  1.5289  0.7760
   52MOL   H28018742   0.626   0.704   5.481  0.5919 -3.1619  0.6219
   52MOL   H28118743   0.513   0.888   5.597  2.6646 -0.8201 -1.1162
   52MOL   H28218744   0.357   0.816   5.553  0.2903  1.5708 -0.8130
   52MOL   H28318745   0.469   0.785   5.325 -2.6617 -0.3176  0.3137
   52MOL   H28418746   0.587   1.047   5.432  0.2017  0.7740 -0.2504
   52MOL   H28518747   0.671   0.914   5.366  1.2905  1.4245  0.6809
   52MOL   H28618748   0.575   1.004   5.256  0.0791  1.1970  1.1030
   52MOL   H28718749   0.245   0.891   5.378  1.4034 -1.3991  0.1931
   52MOL   H28818750   0.326   1.048   5.399 -1.0000  0.9986 -2.3482
   52MOL   H28918751   0.339   0.965   5.243 -0.0030 -0.3300  0.0009
   52MOL   C29018752   0.572   0.654   5.681  0.3896  0.5162  0.3780
   52MOL   C29118753   0.669   0.746   5.760  1.2784  0.4083  0.4318
   52MOL   C29218754   0.708   0.673   5.899  0.4745 -0.2142  0.0643
   52MOL   C29318755   0.586   0.632   5.982  0.4955  0.1772 -0.0955
   52MOL   C29418756   0.624   0.563   6.116  0.1374 -0.7624 -0.5283
   52MOL   C29518757   0.487   0.738   6.016  0.0553  0.1214  0.0384
   52MOL   H29618758   0.480   0.641   5.739  1.5033 -1.7741  1.6942
   52MOL   H29718759   0.632   0.563   5.682  1.6130  1.3264  1.5372
   52MOL   H29818760   0.614   0.838   5.781  1.6012  0.3800  1.3979
   52MOL   H29918761   0.774   0.737   5.958 -1.3886  0.6821  1.2334
   52MOL   H30018762   0.770   0.586   5.880 -0.2631 -0.8308  0.4229
   52MOL   H30118763   0.526   0.556   5.931 -1.1663  1.9116 -0.8076
   52MOL   H30218764   0.529   0.518   6.145  0.1562 -1.1864 -1.1093
   52MOL   H30318765   0.663   0.619   6.201  0.4212 -1.9361  0.1360
   52MOL   H30418766   0.699   0.484   6.105 -1.7871 -3.1045  2.4194
   52MOL   H30518767   0.447   0.788   5.929  1.6704  3.2283  0.9864
   52MOL   H30618768   0.520   0.811   6.091  0.4728 -1.3818  1.3572
   52MOL   H30718769   0.408   0.682   6.066  0.8859 -1.5285 -0.4521
   52MOL   C30818770   0.797   0.779   5.680  0.2768 -0.0781  0.2624
   52MOL   C30918771   0.875   0.906   5.726 -0.4753  0.2214 -0.4609
   52MOL   C31018772   1.020   0.895   5.685 -0.2107 -0.0268  0.2932
   52MOL   C31118773   1.106   0.785   5.755  0.0923  0.8239 -0.3345
   52MOL   C31218774   1.230   0.744   5.668 -0.1227 -0.3241 -0.1185
   52MOL   C31318775   1.118   0.794   5.907  0.6363  0.0948 -0.4283
   52MOL   H31418776   0.861   0.692   5.681 -0.3083 -0.5064  0.8801
   52MOL   H31518777   0.763   0.800   5.578 -2.7652 -1.7616  0.8546
   52MOL   H31618778   0.877   0.910   5.835  2.0401  0.8288 -0.5113
   52MOL   H31718779   1.063   0.996   5.688 -0.3046  0.0280 -0.1023
   52MOL   H31818780   1.019   0.879   5.577 -0.5115  0.4933  0.2148
   52MOL   H31918781   1.048   0.693   5.753  2.6959 -0.9035  0.1855
   52MOL   H32018782   1.206   0.742   5.562 -0.4516  2.6674 -0.1513
   52MOL   H32118783   1.258   0.645   5.703 -3.2349 -1.9665 -2.0743
   52MOL   H32218784   1.314   0.809   5.692 -0.0007 -0.0518 -1.2527
   52MOL   H32318785   1.019   0.783   5.951  0.4529 -1.5854 -1.2204
   52MOL   H32418786   1.182   0.715   5.946  0.4224  0.5850  0.9400
   52MOL   H32518787   1.156   0.886   5.951  1.4763 -0.7593  0.6476
   52MOL   C32618788   0.814   1.039   5.691  0.7125 -1.0396 -0.0216
   52MOL   C32718789   0.833   1.168   5.787  0.0226 -0.0267 -0.0620
   52MOL   C32818790   0.735   1.140   5.897  0.0722 -0.5489 -0.2562
   52MOL   C32918791   0.768   1.226   6.024  0.3685 -0.2234 -0.4396
   52MOL   C33018792   0.650   1.243   6.117 -0.0380 -1.1358  0.0291
   52MOL   C33118793   0.893   1.191   6.095 -0.7055  0.0645 -0.6037
   52MOL   H33218794   0.706   1.033   5.676  0.0310 -1.2290  4.4368
   52MOL   H33318795   0.846   1.053   5.587 -0.0985  0.9145 -0.0198
   52MOL   H33418796   0.935   1.168   5.826  0.6280 -1.0129 -1.5773
   52MOL   H33518797   0.635   1.169   5.865 -0.0940  0.1946  0.8934
   52MOL   H33618798   0.726   1.038   5.932  2.0458 -0.0626  1.7857
   52MOL   H33718799   0.780   1.331   5.997  0.5369 -0.3596 -0.9088
   52MOL   H33818800   0.629   1.149   6.168  1.1725 -2.4216 -1.7932
   52MOL   H33918801   0.556   1.261   6.065  0.8277  1.4716 -0.6862
   52MOL   H34018802   0.669   1.314   6.198 -1.4417 -1.4539  0.6509
   52MOL   H34118803   0.981   1.195   6.031 -0.8031 -0.4851 -0.7746
   52MOL   H34218804   0.923   1.259   6.175  0.2152  1.4550 -2.0753
   52MOL   H34318805   0.893   1.089   6.133  2.2757  1.0402  2.2921
   52MOL   C34418806   0.806   1.295   5.711 -0.1417 -0.3638  0.2635
   52MOL   C34518807   0.933   1.322   5.624  0.6057  0.5580 -0.3249
   52MOL   C34618808   0.902   1.385   5.485 -0.2636 -0.0431  0.7683
   52MOL   C34718809   1.026   1.463   5.424 -0.0068  0.3139 -0.2460
   52MOL   C34818810   0.993   1.533   5.287 -0.0584  0.1831 -1.1098
   52MOL   C34918811   1.146   1.367   5.395 -0.3004  0.2114 -0.8021
   52MOL   H35018812   0.781   1.387   5.765  0.2676 -0.2718  0.2968
   52MOL   H35118813   0.723   1.276   5.643  1.0022 -3.8041 -0.2562
   52MOL   H35218814   0.989   1.231   5.605 -0.7097 -0.3449  0.0620
   52MOL   H35318815   0.865   1.311   5.414  0.5472 -0.1766  0.4802
   52MOL   H35418816   0.826   1.464   5.487  1.6283  1.7969  1.7335
   52MOL   H35518817   1.049   1.542   5.495  2.0441  1.3281 -1.9564
   52MOL   H35618818   1.076   1.559   5.222  2.0025  0.8124  1.6673
   52MOL   H35718819   0.931   1.470   5.223  0.6577  1.2644 -2.9016
   52MOL   H35818820   0.937   1.624   5.307 -0.1073 -0.2592  0.8533
   52MOL   H35918821   1.126   1.303   5.309  0.8509 -0.3706 -0.6445
   52MOL   H36018822   1.177   1.305   5.479 -0.7944 -2.3722 -2.4694
   52MOL   H36118823   1.233   1.419   5.355 -0.6617 -0.5761 -2.6524
   52MOL   H36218824   0.998   1.381   5.689  0.7895 -0.7573  0.7106
   53MOL     C118825   1.360   4.940   0.137 -0.5422  0.0563 -0.1985
   53MOL     C218826   1.247   4.971   0.240  0.0836  0.0955 -0.2775
   53MOL     C318827   1.297   5.071   0.349 -0.7945  0.4443  0.5301
   53MOL     C418828   1.380   5.016   0.469 -0.1307  0.3059 -0.2920
   53MOL     C518829   1.427   5.133   0.565 -0.5953  0.4213 -0.8347
   53MOL     C618830   1.503   4.939   0.421 -0.4142  0.0731 -0.5439
   53MOL     H718831   1.320   4.935   0.036 -1.7906  2.2873  0.1467
   53MOL     H818832   1.439   5.015   0.138 -0.0718 -0.4431  0.4401
   53MOL     H918833   1.176   5.031   0.184 -2.0148 -0.4945  1.7021
   53MOL    H1018834   1.353   5.154   0.304 -0.0814  0.8866  2.1787
   53MOL    H1118835   1.211   5.117   0.397 -0.7670  0.7324  0.3095
   53MOL    H1218836   1.329   4.943   0.531  1.5200  0.1928  0.9738
   53MOL    H1318837   1.497   5.110   0.646 -2.9046 -0.7317  0.9048
   53MOL    H1418838   1.483   5.206   0.508 -0.6193  2.1011  1.2347
   53MOL    H1518839   1.348   5.194   0.608 -1.4230 -1.8192  0.9840
   53MOL    H1618840   1.467   4.848   0.374 -0.8128  0.6598 -1.3805
   53MOL    H1718841   1.576   4.910   0.497 -0.1707 -1.5750 -1.3816
   53MOL    H1818842   1.554   4.999   0.345 -2.3647  0.1514 -1.8061
   53MOL    H1918843   1.413   4.850   0.169 -1.0470 -0.4179 -0.6853
   53MOL    C2018844   1.173   4.840   0.302  0.2100 -0.6384  0.3644
   53MOL    C2118845   1.081   4.766   0.199 -0.6704  0.2997 -0.1959
   53MOL    C2218846   1.085   4.617   0.222 -0.1977 -0.3557 -0.4524
   53MOL    C2318847   1.220   4.557   0.180 -1.0680  0.2979 -0.3354
   53MOL    C2418848   1.252   4.421   0.257 -0.0000 -0.2062 -0.3811
   53MOL    C2518849   1.229   4.533   0.029  0.7457 -0.0831  0.5221
   53MOL    H2618850   1.249   4.776   0.346  0.0527 -0.6296  0.6485
   53MOL    H2718851   1.115   4.879   0.385 -0.5649 -1.0694  0.0283
   53MOL    H2818852   1.131   4.774   0.102 -3.3435  2.7892 -1.4286
   53MOL    H2918853   1.011   4.569   0.158 -0.0526 -2.2325  0.7458
   53MOL    H3018854   1.049   4.598   0.323  1.3042 -0.9378 -0.0128
   53MOL    H3118855   1.302   4.623   0.207  2.3214 -3.6951 -0.1998
   53MOL    H3218856   1.344   4.377   0.220  0.7044 -0.0839  1.1746
   53MOL    H3318857   1.175   4.346   0.238 -0.2533  0.1327 -0.7134
   53MOL    H3418858   1.264   4.442   0.363 -0.5462  2.4145 -0.8107
   53MOL    H3518859   1.213   4.624   7.724  1.3032  1.9051  3.3712
   53MOL    H3618860   1.318   4.482   7.746  1.2706  1.6107 -0.6483
   53MOL    H3718861   1.139   4.474   0.008  0.1840  1.3334 -1.1924
   53MOL    C3818862   0.940   4.817   0.202  0.3355 -0.0206 -0.0585
   53MOL    C3918863   0.901   4.951   0.127  0.2981  0.5701 -0.2586
   53MOL    C4018864   0.752   4.985   0.149  0.2212  0.2394  0.4424
   53MOL    C4118865   0.706   5.133   0.130 -0.5156 -0.3723 -0.4520
   53MOL    C4218866   0.789   5.240   0.204 -0.2766 -0.1311  0.7336
   53MOL    C4318867   0.560   5.148   0.169  0.0403 -0.3332 -0.6024
   53MOL    H4418868   0.902   4.819   0.304 -3.0062  2.9498 -1.2356
   53MOL    H4518869   0.871   4.745   0.158 -0.8259  1.4412 -0.7101
   53MOL    H4618870   0.963   5.026   0.176  0.8901 -0.6107  0.8462
   53MOL    H4718871   0.739   4.955   0.253  0.7559  1.0806  0.7572
   53MOL    H4818872   0.687   4.923   0.087  1.4802 -0.7294  0.0826
   53MOL    H4918873   0.707   5.168   0.027 -2.9201  3.7958  0.8407
   53MOL    H5018874   0.894   5.216   0.189  0.8048  3.8213  1.6704
   53MOL    H5118875   0.755   5.332   0.156 -2.8984 -1.2783  0.2966
   53MOL    H5218876   0.786   5.252   0.312  2.9013  3.7181  0.5070
   53MOL    H5318877   0.551   5.114   0.273  2.4355 -0.7787 -0.5037
   53MOL    H5418878   0.509   5.078   0.103  3.4386 -0.1074 -3.6216
   53MOL    H5518879   0.515   5.247   0.168 -1.4641 -1.0142 -1.0144
   53MOL    C5618880   0.944   4.952   7.728  0.6200  0.0122 -0.4308
   53MOL    C5718881   0.876   4.847   7.628  0.4892 -0.3864  0.2768
   53MOL    C5818882   0.968   4.723   7.607  0.5231 -0.5142  0.1281
   53MOL    C5918883   0.923   4.613   7.504  1.0838 -0.2631  0.8850
   53MOL    C6018884   0.959   4.463   7.532  0.1634 -1.1971  0.1731
   53MOL    C6118885   0.968   4.640   7.359 -0.2838  0.2329 -0.5762
   53MOL    H6218886   1.053   4.949   7.724  0.6597 -0.1243  0.5996
   53MOL    H6318887   0.929   5.052   7.689  0.1342 -0.0665 -0.4514
   53MOL    H6418888   0.790   4.801   7.677  1.9506 -2.2894  1.1362
   53MOL    H6518889   1.072   4.753   7.593  1.0797 -2.7353 -0.8146
   53MOL    H6618890   0.962   4.677   7.705 -0.9533  1.2151  0.8825
   53MOL    H6718891   0.814   4.616   7.505  1.0718  2.3236 -1.5199
   53MOL    H6818892   1.062   4.441   7.504  0.2619 -2.5890  1.5689
   53MOL    H6918893   0.893   4.395   7.479 -3.4129  1.8301  0.5633
   53MOL    H7018894   0.956   4.441   7.638 -1.6008 -1.3969  0.0816
   53MOL    H7118895   0.914   4.579   7.286 -0.9355 -0.6753  0.6547
   53MOL    H7218896   1.073   4.609   7.356 -0.0281  0.9354  0.6565
   53MOL    H7318897   0.962   4.743   7.324 -1.8178 -0.7044 -3.1868
   53MOL    C7418898   0.837   4.922   7.497 -0.3865  0.5940  0.3264
   53MOL    C7518899   0.709   5.011   7.513  0.3712  0.6842 -0.1614
   53MOL    C7618900   0.574   4.935   7.542  0.2862  0.3981  0.0683
   53MOL    C7718901   0.494   4.879   7.414 -1.1832 -0.6575 -0.3186
   53MOL    C7818902   0.347   4.851   7.448 -0.1918  0.5108  0.2286
   53MOL    C7918903   0.547   4.736   7.372  0.4538  0.6309  0.3580
   53MOL    H8018904   0.813   4.858   7.413 -0.7108 -0.5487  1.2747
   53MOL    H8118905   0.930   4.968   7.465  0.8256 -0.0749  2.7440
   53MOL    H8218906   0.730   5.076   7.599 -1.3346  0.6850  0.2824
   53MOL    H8318907   0.593   4.855   7.614 -2.0603  0.7175  1.0943
   53MOL    H8418908   0.501   5.004   7.584  1.1737  1.1013  0.4762
   53MOL    H8518909   0.500   4.956   7.338 -0.5189 -0.1456  0.2388
   53MOL    H8618910   0.297   4.826   7.354 -1.0662 -1.0492  1.0828
   53MOL    H8718911   0.304   4.946   7.479 -0.6212  0.6901 -0.8841
   53MOL    H8818912   0.337   4.774   7.524 -1.0884  1.6009  1.2139
   53MOL    H8918913   0.501   4.693   7.284 -1.6015  1.4292  0.9875
   53MOL    H9018914   0.652   4.725   7.347  0.6371 -0.4781  1.5502
   53MOL    H9118915   0.531   4.660   7.449  1.9094 -1.7901 -1.6889
   53MOL    C9218916   0.692   5.103   7.390  0.4512  0.0633  0.2468
   53MOL    C9318917   0.791   5.218   7.381  0.7318  0.5876  0.1862
   53MOL    C9418918   0.803   5.268   7.241 -0.5114 -0.1877 -0.0358
   53MOL    C9518919   0.886   5.182   7.134  0.6434  0.2894  0.0701
   53MOL    C9618920   0.904   5.256   7.007 -0.1843  0.6016  0.1536
   53MOL    C9718921   1.015   5.119   7.189 -0.6025 -0.5658 -0.1494
   53MOL    H9818922   0.687   5.047   7.297 -0.4438  0.9345 -0.2415
   53MOL    H9918923   0.593   5.149   7.394 -0.1988 -1.1929 -1.1623
   53MOL   H10018924   0.886   5.183   7.421  0.8726  0.2199 -0.4615
   53MOL   H10118925   0.834   5.372   7.251 -1.5898  0.2625 -1.1500
   53MOL   H10218926   0.700   5.287   7.211 -0.3357  1.7357  0.4477
   53MOL   H10318927   0.816   5.101   7.111 -0.7094  0.6581  2.5919
   53MOL   H10418928   0.959   5.349   7.021 -0.8250  0.8122  1.3997
   53MOL   H10518929   0.806   5.277   6.964 -0.3700 -1.3823 -0.4577
   53MOL   H10618930   0.949   5.187   6.936 -0.7430 -0.1739  0.5424
   53MOL   H10718931   1.097   5.191   7.192 -0.2911 -0.9746  2.1356
   53MOL   H10818932   1.045   5.036   7.126  1.1252  0.7610 -1.1247
   53MOL   H10918933   0.997   5.067   7.283  1.7782 -0.5502  0.3362
   53MOL   C11018934   0.742   5.329   7.480 -0.1893 -0.7144  0.7156
   53MOL   C11118935   0.852   5.431   7.519 -0.5922  0.2545 -0.2538
   53MOL   C11218936   0.783   5.568   7.557  0.0132 -0.2882 -0.0212
   53MOL   C11318937   0.744   5.644   7.430  0.7112  0.2014 -0.0680
   53MOL   C11418938   0.858   5.740   7.386 -0.2444 -0.0771  0.0706
   53MOL   C11518939   0.625   5.736   7.463 -0.6236  0.4190 -0.8532
   53MOL   H11618940   0.704   5.287   7.573 -0.2434 -1.2456  0.4570
   53MOL   H11718941   0.662   5.390   7.437  0.0667 -1.4267 -0.8095
   53MOL   H11818942   0.914   5.446   7.431 -0.0227 -2.0501 -0.2634
   53MOL   H11918943   0.853   5.628   7.616 -0.4886 -1.0510  1.3934
   53MOL   H12018944   0.699   5.559   7.626 -0.7632 -0.2822 -0.9686
   53MOL   H12118945   0.721   5.570   7.354 -0.2123 -1.7666  2.0874
   53MOL   H12218946   0.877   5.813   7.466  0.0785 -2.6662  2.4352
   53MOL   H12318947   0.851   5.788   7.289  1.9444  0.6573  0.2528
   53MOL   H12418948   0.953   5.689   7.376  0.4573  1.4459 -1.1550
   53MOL   H12518949   0.653   5.806   7.542  1.3931 -0.9405 -0.3181
   53MOL   H12618950   0.544   5.670   7.493  1.4623 -1.5158  0.6830
   53MOL   H12718951   0.604   5.799   7.377 -1.2182  2.4358  0.7164
   53MOL   C12818952   0.943   5.382   7.636 -0.1934 -0.1420  0.0226
   53MOL   C12918953   1.091   5.410   7.619 -0.1870 -0.2711  0.3096
   53MOL   C13018954   1.152   5.312   7.512 -1.0247  0.1997 -0.6086
   53MOL   C13118955   1.284   5.362   7.455 -0.1562  0.2198  0.0532
   53MOL   C13218956   1.354   5.258   7.357 -0.7256 -0.3599 -0.8516
   53MOL   C13318957   1.254   5.499   7.384 -0.6607 -0.1204  1.0522
   53MOL   H13418958   0.931   5.276   7.658  0.6128 -0.7474 -2.4032
   53MOL   H13518959   0.900   5.430   7.724  0.8326 -0.3038  0.6213
   53MOL   H13618960   1.098   5.508   7.570  2.5218  0.2541  1.6784
   53MOL   H13718961   1.167   5.210   7.549  0.4212  0.3376 -0.7772
   53MOL   H13818962   1.085   5.300   7.427 -3.9790 -0.8328  1.7584
   53MOL   H13918963   1.349   5.380   7.541 -1.1759  1.7813  0.5386
   53MOL   H14018964   1.461   5.280   7.357 -0.9712  0.8303 -0.5025
   53MOL   H14118965   1.322   5.249   7.254  2.2938 -2.0013 -1.7230
   53MOL   H14218966   1.360   5.158   7.400  1.0540  0.0208 -0.1693
   53MOL   H14318967   1.329   5.506   7.305  0.1320 -0.4417  1.7690
   53MOL   H14418968   1.156   5.491   7.337 -1.6268 -1.0268  3.1755
   53MOL   H14518969   1.262   5.593   7.439 -0.7889  0.5298 -0.0230
   53MOL   C14618970   1.171   5.415   7.752 -0.0024 -0.9047  0.0462
   53MOL   C14718971   1.255   5.548   0.020 -0.8993 -0.2907  0.0387
   53MOL   C14818972   1.371   5.523   0.121  0.0204 -0.0699 -0.1446
   53MOL   C14918973   1.501   5.459   0.068  1.0646 -0.7326 -0.4315
   53MOL   C15018974   1.587   5.554   7.735  0.2288  0.1048 -0.3245
   53MOL   C15118975   1.590   5.403   0.186  0.0196 -0.6662 -0.1868
   53MOL   H15218976   1.246   5.336   7.752 -0.4735 -1.4427  3.7586
   53MOL   H15318977   1.109   5.399   0.088 -0.6115 -0.5120 -0.3042
   53MOL   H15418978   1.300   5.585   7.680 -1.1378 -1.0693 -0.3904
   53MOL   H15518979   1.403   5.619   0.160  0.6105 -0.7271  1.0072
   53MOL   H15618980   1.343   5.455   0.202  3.6863 -1.2209  0.2661
   53MOL   H15718981   1.470   5.375   0.006 -3.0202 -0.1989  0.7345
   53MOL   H15818982   1.533   5.639   7.693 -1.0812  1.0645  3.1349
   53MOL   H15918983   1.654   5.507   7.663  2.0821  0.0965  1.3469
   53MOL   H16018984   1.640   5.623   0.048  0.2798  0.2372 -0.5038
   53MOL   H16118985   1.562   5.313   0.240  2.7320 -1.9169 -0.7368
   53MOL   H16218986   1.595   5.488   0.253  3.9160  1.2593 -2.6845
   53MOL   H16318987   1.694   5.379   0.159  0.1871 -1.5970  1.2511
   53MOL   C16418988   1.167   5.663   0.082  0.3398  0.0242 -0.0065
   53MOL   C16518989   1.229   5.805   0.025  0.2621 -0.8086 -0.6433
   53MOL   C16618990   1.191   5.829   7.632  0.6106  0.0826 -0.2824
   53MOL   C16718991   1.286   5.930   7.550 -0.5615 -0.4444 -0.0037
   53MOL   C16818992   1.438   5.891   7.553  0.3766 -0.4932  0.1154
   53MOL   C16918993   1.246   5.964   7.410 -0.4940 -0.2437 -0.2348
   53MOL   H17018994   1.068   5.646   0.041  0.6460 -3.6560  0.5643
   53MOL   H17118995   1.165   5.647   0.189 -0.9401  2.4681  0.3531
   53MOL   H17218996   1.337   5.795   0.033  0.3759 -0.1137 -1.3355
   53MOL   H17318997   1.197   5.734   7.578  0.1786 -0.2845  0.3218
   53MOL   H17418998   1.090   5.869   7.632  1.4665  2.3261  1.2073
   53MOL   H17518999   1.290   6.029   7.594 -1.3228  0.9607 -3.0030
   53MOL   H17619000   1.481   5.889   7.653  1.4359  0.6517 -0.3133
   53MOL   H17719001   1.509   5.947   7.492  1.9096 -3.0979 -0.5812
   53MOL   H17819002   1.442   5.787   7.520  3.2467  0.0701 -1.5075
   53MOL   H17919003   1.315   6.042   7.377 -1.7488  0.8458 -0.3098
   53MOL   H18019004   1.147   6.008   7.398 -1.3453 -2.3721 -1.2381
   53MOL   H18119005   1.258   5.879   7.343  0.3568  0.5288 -1.0877
   53MOL   C18219006   1.185   5.929   0.114 -0.2518  0.0613 -0.1916
   53MOL   C18319007   1.244   5.917   0.250 -0.3599  0.2153 -0.5687
   53MOL   C18419008   1.390   5.958   0.252  0.5370 -0.4761  0.3307
   53MOL   C18519009   1.470   5.928   0.385  0.3900 -0.6775  0.6592
   53MOL   C18619010   1.505   5.777   0.408 -0.3093 -0.0300  0.6218
   53MOL   C18719011   1.603   6.011   0.396  0.4221  0.4281 -0.5506
   53MOL   H18819012   1.077   5.936   0.111 -0.1874  0.2478 -2.8809
   53MOL   H18919013   1.222   6.022   0.072  2.4136  0.0356  1.8871
   53MOL   H19019014   1.236   5.818   0.297  0.0224  0.2536 -0.4234
   53MOL   H19119015   1.396   6.065   0.232  1.5304 -0.8848 -1.6506
   53MOL   H19219016   1.438   5.902   0.172  0.6517  3.5785 -2.5755
   53MOL   H19319017   1.411   5.970   0.466  0.7783  0.7469  0.2142
   53MOL   H19419018   1.408   5.728   0.414 -0.4362 -0.1863 -2.0549
   53MOL   H19519019   1.553   5.761   0.504  0.1714 -1.1250  0.2001
   53MOL   H19619020   1.563   5.741   0.322  0.5748 -2.5164  2.2100
   53MOL   H19719021   1.582   6.118   0.397 -0.1286  0.3266 -0.9042
   53MOL   H19819022   1.675   5.987   0.317  1.4654 -0.8040  0.7540
   53MOL   H19919023   1.653   5.998   0.492  0.8033 -1.2931 -0.9660
   53MOL   C20019024   1.153   6.002   0.348 -0.0686 -0.1716  0.6932
   53MOL   C20119025   1.112   5.934   0.487 -0.1307  0.6822 -0.0169
   53MOL   C20219026   1.010   5.825   0.461  0.6059  0.2280 -0.0081
   53MOL   C20319027   0.998   5.726   0.572 -0.9312 -0.3942 -0.0627
   53MOL   C20419028   0.852   5.667   0.587 -0.2770 -0.3325  0.8654
   53MOL   C20519029   1.104   5.618   0.550  0.5671 -0.1485  0.7461
   53MOL   H20619030   1.061   6.035   0.301  1.1768  0.7627 -1.1486
   53MOL   H20719031   1.198   6.100   0.363 -0.1601  0.1690 -1.1575
   53MOL   H20819032   1.200   5.881   0.521  1.4457  1.5421 -2.5889
   53MOL   H20919033   0.910   5.868   0.457 -0.2824 -1.6955  0.7912
   53MOL   H21019034   1.027   5.775   0.365 -0.7028 -0.4320  0.0870
   53MOL   H21119035   1.016   5.766   0.672 -1.7454  1.4450 -0.6242
   53MOL   H21219036   0.772   5.741   0.585  0.0665  0.0123 -1.2266
   53MOL   H21319037   0.824   5.583   0.652 -0.9128 -0.8896 -0.1099
   53MOL   H21419038   0.831   5.623   0.489 -0.9387  1.1408  0.3241
   53MOL   H21519039   1.197   5.667   0.523  0.9509 -1.3032 -0.1147
   53MOL   H21619040   1.096   5.565   0.455  2.3242  1.8235 -0.5465
   53MOL   H21719041   1.106   5.540   0.627  0.5467  0.5557  1.4615
   53MOL   C21819042   1.054   6.043   0.579 -0.2487  0.1871 -0.1759
   53MOL   C21919043   1.138   6.161   0.632  0.0099  0.3204 -0.0432
   53MOL   C22019044   1.174   6.159   0.787 -0.3520  1.0164  0.2283
   53MOL   C22119045   1.273   6.045   0.836  0.5153 -0.0638  0.3624
   53MOL   C22219046   1.417   6.082   0.781 -0.5135 -0.4375 -0.2282
   53MOL   C22319047   1.269   6.030   0.987  0.0129  0.3815  0.4293
   53MOL   H22419048   0.960   6.077   0.538 -0.6537 -0.9993 -0.2446
   53MOL   H22519049   1.028   5.984   0.666  0.7806  0.8333  0.5889
   53MOL   H22619050   1.233   6.154   0.578  0.8593 -0.0582  1.4565
   53MOL   H22719051   1.210   6.254   0.825  0.8040 -0.4144  2.8353
   53MOL   H22819052   1.089   6.138   0.851 -0.5790 -0.3248 -0.4771
   53MOL   H22919053   1.252   5.943   0.804  2.1086 -0.5219  0.7406
   53MOL   H23019054   1.436   6.044   0.681  0.7445 -0.9525  0.1937
   53MOL   H23119055   1.432   6.190   0.784 -0.6305 -0.4016 -0.9668
   53MOL   H23219056   1.495   6.044   0.846  0.6294  1.2900 -0.5466
   53MOL   H23319057   1.296   6.122   1.039  0.3191  0.8876 -0.5883
   53MOL   H23419058   1.170   5.995   1.016 -0.3684  0.8924 -0.2160
   53MOL   H23519059   1.343   5.958   1.021 -0.7216 -0.4503  0.2730
   53MOL   C23619060   1.078   6.298   0.586  0.1825 -0.2753 -0.5352
   53MOL   C23719061   1.172   6.414   0.572 -0.3200 -0.4554  0.2287
   53MOL   C23819062   1.096   6.547   0.582 -0.0422 -0.1281 -0.2094
   53MOL   C23919063   1.044   6.587   0.720 -0.3845  0.3326  0.2360
   53MOL   C24019064   1.147   6.656   0.805  0.7029  0.2839 -0.3749
   53MOL   C24119065   0.902   6.658   0.714  0.1124 -0.4847  0.5704
   53MOL   H24219066   1.000   6.314   0.660  1.3048  1.2251  0.3578
   53MOL   H24319067   1.013   6.277   0.501 -0.3878  0.1899 -0.2218
   53MOL   H24419068   1.245   6.410   0.653  0.8073 -0.8321 -0.7807
   53MOL   H24519069   1.006   6.528   0.524 -0.3758  2.3790 -0.5665
   53MOL   H24619070   1.154   6.629   0.541  1.1226 -0.2762  1.1035
   53MOL   H24719071   1.040   6.493   0.775 -0.7463  1.1516  1.6644
   53MOL   H24819072   1.101   6.683   0.900  1.7067 -0.2570  0.2638
   53MOL   H24919073   1.174   6.752   0.762  1.5298  0.7961  1.2622
   53MOL   H25019074   1.236   6.594   0.814  0.0935 -0.4070  0.9633
   53MOL   H25119075   0.897   6.732   0.634  0.4958  0.2376  1.2120
   53MOL   H25219076   0.878   6.700   0.812  0.5563 -0.5612  0.7150
   53MOL   H25319077   0.814   6.597   0.691  0.3893 -0.9966  0.8414
   53MOL   C25419078   1.247   6.407   0.434  0.9057  0.6848 -0.1203
   53MOL   C25519079   1.383   6.480   0.435 -0.0469 -0.7957 -0.1207
   53MOL   C25619080   1.490   6.373   0.479 -0.5631 -0.0914 -0.5275
   53MOL   C25719081   1.611   6.426   0.552 -0.1469 -0.3107 -0.6693
   53MOL   C25819082   1.711   6.315   0.576 -0.2614 -0.5045 -0.2974
   53MOL   C25919083   1.562   6.495   0.679  0.1548  0.1797  0.1188
   53MOL   H26019084   1.275   6.307   0.402  0.1213  0.5089 -0.2700
   53MOL   H26119085   1.187   6.451   0.355 -0.1716 -0.5008  0.0187
   53MOL   H26219086   1.380   6.558   0.511  1.4437 -0.9617  0.1332
   53MOL   H26319087   1.514   6.317   0.389  0.9661 -0.5304  0.1463
   53MOL   H26419088   1.446   6.309   0.555 -0.6962 -1.1707 -1.4992
   53MOL   H26519089   1.662   6.499   0.489  1.0004  1.3770  2.0771
   53MOL   H26619090   1.676   6.262   0.664 -0.5107  0.3198  0.1086
   53MOL   H26719091   1.812   6.353   0.589  0.2169 -1.4306 -1.2265
   53MOL   H26819092   1.715   6.255   0.484  1.5975  0.2622 -0.7461
   53MOL   H26919093   1.648   6.528   0.738 -0.1886 -0.0339  0.7359
   53MOL   H27019094   1.489   6.576   0.674  0.4676  0.6810  2.7860
   53MOL   H27119095   1.524   6.423   0.751  1.3696  0.6688  1.2823
   53MOL   C27219096   1.427   6.544   0.299 -0.1855  0.2722  0.2083
   53MOL   C27319097   1.346   6.663   0.248 -0.4896 -0.0545 -0.4701
   53MOL   C27419098   1.346   6.784   0.342  1.3070 -0.3538  0.1436
   53MOL   C27519099   1.246   6.898   0.308  0.2864 -0.7073  0.1447
   53MOL   C27619100   1.263   7.028   0.393  0.1703  0.1420 -0.7656
   53MOL   C27719101   1.103   6.851   0.334 -0.4949 -0.4971  0.0489
   53MOL   H27819102   1.534   6.564   0.295 -0.1608  0.0310 -0.4523
   53MOL   H27919103   1.419   6.459   0.230 -1.9088 -0.4374  1.2605
   53MOL   H28019104   1.246   6.619   0.241 -0.3518 -0.5003  0.2537
   53MOL   H28119105   1.449   6.818   0.347  1.0904  0.1433  1.3866
   53MOL   H28219106   1.317   6.757   0.443 -1.3215 -0.7641 -0.6780
   53MOL   H28319107   1.249   6.934   0.205  0.9081 -1.6475 -0.1690
   53MOL   H28419108   1.364   7.068   0.390 -0.9117  3.0286 -0.0409
   53MOL   H28519109   1.200   7.111   0.362  0.4906  0.9959  0.7789
   53MOL   H28619110   1.254   7.008   0.500  3.1925 -0.0455 -0.4859
   53MOL   H28719111   1.084   6.817   0.436  0.3583  0.9205  0.6980
   53MOL   H28819112   1.029   6.931   0.331  0.0510  0.1055  1.8711
   53MOL   H28919113   1.069   6.781   0.257 -0.8994 -2.8662  2.2795
   53MOL   C29019114   1.397   6.702   0.107 -0.0694  0.1154 -0.0224
   53MOL   C29119115   1.325   6.636   7.739 -0.5799 -0.0311 -0.1650
   53MOL   C29219116   1.341   6.475   7.722  0.1303  0.0190  0.3927
   53MOL   C29319117   1.485   6.433   7.697  0.0905 -0.0225  0.2344
   53MOL   C29419118   1.491   6.279   7.705  0.7092  0.7886 -0.2589
   53MOL   C29519119   1.542   6.481   7.565  0.1843 -0.1024  0.1279
   53MOL   H29619120   1.381   6.810   0.100 -1.6882 -0.2268 -2.4378
   53MOL   H29719121   1.503   6.680   0.097  0.4718  2.5443 -0.0060
   53MOL   H29819122   1.376   6.678   7.652 -0.3494 -1.3220 -0.6665
   53MOL   H29919123   1.279   6.434   7.641  1.0956 -1.6547  0.4778
   53MOL   H30019124   1.302   6.429   0.061  2.3575 -3.3277 -0.2518
   53MOL   H30119125   1.540   6.480   0.025 -0.4471 -2.0871  1.8735
   53MOL   H30219126   1.595   6.253   7.686  0.0167 -1.6499 -0.8713
   53MOL   H30319127   1.415   6.230   7.644 -0.6727 -1.8413  3.4388
   53MOL   H30419128   1.451   6.251   0.050 -1.6065 -1.9494 -1.9263
   53MOL   H30519129   1.494   6.571   7.527 -1.0084 -0.4097  0.8789
   53MOL   H30619130   1.517   6.411   7.485 -0.3787  1.0875 -0.7486
   53MOL   H30719131   1.649   6.489   7.581  0.2596  0.7715 -0.7425
   53MOL   C30819132   1.176   6.684   7.726  0.4248 -0.0752  0.1742
   53MOL   C30919133   1.118   6.669   7.578  0.3815  0.2206 -0.7320
   53MOL   C31019134   0.966   6.622   7.570 -0.5321 -0.8027 -0.0345
   53MOL   C31119135   0.945   6.475   7.623 -0.0585 -0.7246  0.8410
   53MOL   C31219136   0.794   6.468   7.647 -0.4937 -0.2208  0.1548
   53MOL   C31319137   0.995   6.366   7.527 -1.0063 -0.0111 -0.3855
   53MOL   H31419138   1.119   6.625   0.045 -0.6719  0.3645 -0.3372
   53MOL   H31519139   1.165   6.786   0.012  1.2415  0.4720 -1.0351
   53MOL   H31619140   1.173   6.598   7.516  1.4385  0.1512  0.2708
   53MOL   H31719141   0.929   6.624   7.467  2.0288 -1.0912 -0.9894
   53MOL   H31819142   0.923   6.706   7.625  0.0072 -0.0045 -0.8070
   53MOL   H31919143   0.997   6.472   7.718  2.5955 -0.5752 -0.5687
   53MOL   H32019144   0.756   6.374   7.686  0.9970 -1.2329 -0.7510
   53MOL   H32119145   0.737   6.488   7.557 -1.3815  0.4940  0.8703
   53MOL   H32219146   0.765   6.548   7.715 -1.2588  1.1767 -1.7868
   53MOL   H32319147   1.092   6.392   7.486 -0.6390 -1.9172 -0.7419
   53MOL   H32419148   1.001   6.276   7.587  2.0779  0.1538 -0.3848
   53MOL   H32519149   0.921   6.348   7.449 -0.9740  0.5202 -0.5472
   53MOL   C32619150   1.120   6.800   7.491 -0.2046 -0.9308  0.3834
   53MOL   C32719151   1.256   6.878   7.479 -0.4426  0.4840  0.1629
   53MOL   C32819152   1.226   7.018   7.430 -0.0894 -0.3355 -0.0313
   53MOL   C32919153   1.166   7.125   7.533  0.4179 -0.2876 -1.0113
   53MOL   C33019154   1.297   7.194   7.604  0.4266 -0.2420 -1.4040
   53MOL   C33119155   1.076   7.231   7.469 -0.3160 -0.3060  0.2573
   53MOL   H33219156   1.039   6.868   7.521 -0.0787 -0.2405 -0.7922
   53MOL   H33319157   1.078   6.779   7.393  3.1744  1.6982 -1.7225
   53MOL   H33419158   1.302   6.891   7.576 -1.7873 -1.7612  1.1541
   53MOL   H33519159   1.314   7.061   7.384 -0.4047  1.1104  0.6793
   53MOL   H33619160   1.160   7.017   7.344  0.0081  1.2931 -0.1458
   53MOL   H33719161   1.113   7.070   7.611 -1.1645  0.9084 -1.2389
   53MOL   H33819162   1.333   7.120   7.675  1.6222  1.2562 -0.4216
   53MOL   H33919163   1.275   7.275   7.672  0.2101  0.1401 -1.9269
   53MOL   H34019164   1.374   7.224   7.532  0.5070  0.1279 -1.1588
   53MOL   H34119165   1.130   7.283   7.390 -1.5506  0.5884 -0.0151
   53MOL   H34219166   0.987   7.194   7.417 -0.6538  1.1890 -0.2531
   53MOL   H34319167   1.050   7.293   7.554  0.1824  1.9971 -1.2215
   53MOL   C34419168   1.359   6.810   7.382 -0.1745 -0.2076 -0.5431
   53MOL   C34519169   1.505   6.851   7.412  0.2979  0.3062 -0.0721
   53MOL   C34619170   1.619   6.786   7.323  0.0586 -0.3299  0.4928
   53MOL   C34719171   1.763   6.782   7.386 -0.5377  0.7738  0.0640
   53MOL   C34819172   1.815   6.924   7.407  0.0608  1.0458 -0.4932
   53MOL   C34919173   1.861   6.707   7.300 -0.1771 -0.2186  0.4863
   53MOL   H35019174   1.324   6.833   7.281 -1.6385 -0.2384 -0.0598
   53MOL   H35119175   1.344   6.703   7.394 -0.9616  0.0842  1.2010
   53MOL   H35219176   1.526   6.829   7.516  1.8359  1.3683 -0.1374
   53MOL   H35319177   1.586   6.686   7.294  2.0712 -1.1835  1.0495
   53MOL   H35419178   1.624   6.856   7.240  0.1977 -0.9017  0.0174
   53MOL   H35519179   1.749   6.738   7.484 -1.3935 -0.5046 -0.6161
   53MOL   H35619180   1.770   6.982   7.487 -1.1394 -0.8902  0.2603
   53MOL   H35719181   1.922   6.916   7.428 -0.0765 -0.2879 -0.2557
   53MOL   H35819182   1.803   6.976   7.312 -0.3391  1.5020 -0.1893
   53MOL   H35919183   1.887   6.770   7.214  0.2707  0.5690  1.1955
   53MOL   H36019184   1.826   6.610   7.264  0.5318 -0.3859  0.2334
   53MOL   H36119185   1.960   6.689   7.342  0.5772  1.2401 -0.5818
   53MOL   H36219186   1.517   6.960   7.407  2.8299  0.2126  2.9698
   54MOL     C119187   7.233   6.573   3.066  0.4296 -0.1575 -0.9863
   54MOL     C219188   7.129   6.463   3.025 -0.8809 -0.1993 -0.1317
   54MOL     C319189   6.995   6.502   3.087  0.0929 -0.0371 -0.3905
   54MOL     C419190   6.871   6.444   3.023 -0.4634  0.3294  0.2050
   54MOL     C519191   6.838   6.524   2.897  0.1074  0.0022 -0.8392
   54MOL     C619192   6.750   6.446   3.116 -0.5411 -0.1140 -0.2127
   54MOL     H719193   7.329   6.567   3.015 -0.0263 -1.0254 -1.7606
   54MOL     H819194   7.185   6.671   3.057  0.6582  0.0581  0.0955
   54MOL     H919195   7.123   6.466   2.916  3.6024 -1.8145 -0.5466
   54MOL    H1019196   7.001   6.477   3.193  2.3846 -1.7549 -0.8964
   54MOL    H1119197   6.990   6.610   3.076  0.6843 -0.1854 -2.2936
   54MOL    H1219198   6.894   6.344   2.988 -1.0814  1.8113 -4.9393
   54MOL    H1319199   6.874   6.627   2.907  1.2041 -0.5905  1.6117
   54MOL    H1419200   6.880   6.490   2.802 -1.3522 -0.2461 -1.4024
   54MOL    H1519201   6.731   6.520   2.876 -0.0634 -1.8000  0.2882
   54MOL    H1619202   6.757   6.387   3.208 -0.5894  0.6916  0.3189
   54MOL    H1719203   6.661   6.406   3.067 -1.8352  1.0579  1.1095
   54MOL    H1819204   6.722   6.550   3.133  2.4203  0.5163  1.0094
   54MOL    H1919205   7.238   6.569   3.174 -0.6540  1.1343 -0.8724
   54MOL    C2019206   7.182   6.327   3.071 -0.5713  0.3095 -0.0358
   54MOL    C2119207   7.301   6.258   3.004 -0.1365 -0.1113 -0.3690
   54MOL    C2219208   7.396   6.183   3.103  0.4374 -0.7922  0.5383
   54MOL    C2319209   7.484   6.278   3.192 -0.1314 -0.4797 -0.4928
   54MOL    C2419210   7.565   6.211   3.293 -0.3680  0.1577  0.4336
   54MOL    C2519211   7.573   6.374   3.106 -0.1173 -0.5063 -0.5820
   54MOL    H2619212   7.194   6.331   3.179  1.2173  1.5890 -0.2717
   54MOL    H2719213   7.100   6.256   3.059 -0.3074 -0.1754  0.9517
   54MOL    H2819214   7.349   6.346   2.960 -1.0275  1.3959  1.5605
   54MOL    H2919215   7.474   6.123   3.056  1.4404  0.5244  0.5055
   54MOL    H3019216   7.341   6.111   3.164  0.4594 -1.5896 -0.3660
   54MOL    H3119217   7.424   6.352   3.245  0.8068 -0.6826  0.8656
   54MOL    H3219218   7.593   6.286   3.366 -0.5077  0.2604  0.3821
   54MOL    H3319219   7.651   6.161   3.249 -1.5197 -2.2824  0.8410
   54MOL    H3419220   7.499   6.141   3.344 -2.5656  2.1166  0.3762
   54MOL    H3519221   7.510   6.425   3.033 -2.2375  0.2572  1.6971
   54MOL    H3619222   7.621   6.451   3.165  0.8060 -2.3571  1.1490
   54MOL    H3719223   7.645   6.311   3.054  1.9032  1.3786 -0.0869
   54MOL    C3819224   7.252   6.164   2.892  0.9870 -0.3088 -0.5924
   54MOL    C3919225   7.365   6.131   2.791 -0.2242 -0.0157  0.3350
   54MOL    C4019226   7.366   6.238   2.672  0.7090  0.0680  0.7633
   54MOL    C4119227   7.494   6.239   2.586 -0.4030 -0.4820  0.6097
   54MOL    C4219228   7.619   6.282   2.672 -0.1070 -0.1394  0.9858
   54MOL    C4319229   7.483   6.335   2.460  0.2952 -0.5422  0.2752
   54MOL    H4419230   7.163   6.203   2.843  0.1418  0.4815  1.5006
   54MOL    H4519231   7.213   6.080   2.950 -0.6313  0.0157 -1.1830
   54MOL    H4619232   7.464   6.126   2.837 -0.0189  1.3431  0.0729
   54MOL    H4719233   7.336   6.337   2.708 -0.6235 -0.1240  0.2299
   54MOL    H4819234   7.282   6.224   2.603  0.0059  1.0796  1.3973
   54MOL    H4919235   7.530   6.142   2.552  2.2642  0.1839  1.4157
   54MOL    H5019236   7.699   6.275   2.598 -1.3642 -0.9703 -0.3478
   54MOL    H5119237   7.603   6.383   2.708 -2.1361 -0.0021 -0.1917
   54MOL    H5219238   7.656   6.220   2.753  0.4988 -0.4053  0.5129
   54MOL    H5319239   7.400   6.304   2.397  0.5724  0.4823 -0.6031
   54MOL    H5419240   7.577   6.324   2.406 -0.0406  0.3884 -0.5195
   54MOL    H5519241   7.473   6.440   2.485 -1.4756 -0.4147 -0.8965
   54MOL    C5619242   7.336   5.985   2.739  0.5733  0.0854 -0.0168
   54MOL    C5719243   7.385   5.870   2.837  1.2190 -0.2085 -0.6432
   54MOL    C5819244   7.532   5.845   2.843  0.5236  0.2769 -0.2959
   54MOL    C5919245   7.599   5.816   2.704  0.2096 -0.6207  0.0296
   54MOL    C6019246   7.637   5.667   2.707  0.3557  0.6571 -0.6215
   54MOL    C6119247   7.720   5.914   2.688  0.1744  0.6171  0.2346
   54MOL    H6219248   7.395   5.981   2.647  0.3138 -1.2274 -0.1349
   54MOL    H6319249   7.230   5.988   2.713  0.1220 -2.3212  1.3983
   54MOL    H6419250   7.357   5.910   2.934  1.8754 -0.1605 -0.4708
   54MOL    H6519251   7.589   5.932   2.876  2.4245 -0.6590 -0.9780
   54MOL    H6619252   7.559   5.780   2.926 -0.5410 -0.0882 -0.2399
   54MOL    H6719253   7.535   5.815   2.615 -0.4287 -0.2840  0.4757
   54MOL    H6819254   7.701   5.644   2.622  0.4629  2.6451 -1.0935
   54MOL    H6919255   7.555   5.596   2.694  0.1072  0.6309  1.0287
   54MOL    H7019256   7.691   5.637   2.797 -1.6138 -0.1621  0.3053
   54MOL    H7119257   0.024   5.909   2.595  0.7622 -1.1418  0.6693
   54MOL    H7219258   0.028   5.893   2.776 -0.8948  2.2038  1.3825
   54MOL    H7319259   7.681   6.016   2.695 -1.1109  0.0736  1.2717
   54MOL    C7419260   7.308   5.738   2.810  0.8987 -0.2983  0.0972
   54MOL    C7519261   7.260   5.668   2.930 -0.4179 -0.0257  0.1660
   54MOL    C7619262   7.218   5.519   2.898  0.4429 -0.6194 -0.1337
   54MOL    C7719263   7.340   5.424   2.869 -0.1348  0.1660 -0.5720
   54MOL    C7819264   7.283   5.301   2.802  0.4147  0.1264  0.4648
   54MOL    C7919265   7.434   5.382   2.982 -0.3001  0.3611  0.1032
   54MOL    H8019266   7.360   5.672   2.741  2.4177 -0.4598  1.3654
   54MOL    H8119267   7.221   5.781   2.760 -0.7750 -3.0944  0.4898
   54MOL    H8219268   7.347   5.668   2.995 -1.0325 -0.4144  1.0085
   54MOL    H8319269   7.168   5.470   2.981  1.8049 -1.6975  0.0843
   54MOL    H8419270   7.147   5.521   2.815  0.2324  0.1763  0.0656
   54MOL    H8519271   7.404   5.484   2.805  2.4042 -1.8597  0.0209
   54MOL    H8619272   7.213   5.246   2.865 -0.2533  0.9324  0.4241
   54MOL    H8719273   7.365   5.231   2.786  1.5936  1.9461 -1.6768
   54MOL    H8819274   7.235   5.324   2.707 -1.0638  1.0179  1.4069
   54MOL    H8919275   7.387   5.328   3.064  6.0986 -2.0377  2.5104
   54MOL    H9019276   7.511   5.317   2.942  0.6413  0.9297  0.9748
   54MOL    H9119277   7.479   5.476   3.015 -1.0893  0.2570  1.5272
   54MOL    C9219278   7.153   5.747   3.018 -0.8496 -0.2325 -0.3525
   54MOL    C9319279   7.145   5.709   3.169 -0.8938 -0.3899 -0.4869
   54MOL    C9419280   7.272   5.760   3.249  0.7109  0.1687  0.2947
   54MOL    C9519281   7.308   5.678   3.381 -0.6051 -0.2181  0.2208
   54MOL    C9619282   7.369   5.540   3.340 -0.1669 -0.2994 -0.6040
   54MOL    C9719283   7.417   5.746   3.452 -0.9570  0.5533  0.5142
   54MOL    H9819284   7.145   5.854   2.999 -2.9460  0.0589  1.8771
   54MOL    H9919285   7.058   5.715   2.974 -0.7076 -2.9581  1.2509
   54MOL   H10019286   7.143   5.600   3.167  2.2951 -0.5036 -0.3445
   54MOL   H10119287   7.249   5.856   3.294  0.3123 -0.3078  1.1338
   54MOL   H10219288   7.354   5.764   3.178 -0.0946 -2.7350 -0.8820
   54MOL   H10319289   7.222   5.674   3.448 -1.2310  0.0750 -0.5662
   54MOL   H10419290   7.373   5.467   3.421  2.4099 -0.2796 -0.6887
   54MOL   H10519291   7.465   5.536   3.288 -0.7077  0.3101 -1.6675
   54MOL   H10619292   7.306   5.499   3.261  0.2935 -0.9715 -0.6289
   54MOL   H10719293   7.390   5.852   3.453  0.0135  0.8028  1.2809
   54MOL   H10819294   7.513   5.743   3.401 -2.4124 -1.0621 -2.2370
   54MOL   H10919295   7.431   5.720   3.557 -1.4215  0.0326  0.4451
   54MOL   C11019296   7.016   5.777   3.237  0.5711  0.1072  0.8633
   54MOL   C11119297   6.871   5.733   3.180 -0.8767  0.7230 -0.5592
   54MOL   C11219298   6.853   5.583   3.204  0.7396  0.4271 -0.1187
   54MOL   C11319299   6.751   5.515   3.109 -0.2245 -0.0319  0.1865
   54MOL   C11419300   6.656   5.426   3.188 -0.7982 -0.0356 -0.6463
   54MOL   C11519301   6.820   5.441   2.992  1.0477  0.1280  0.4479
   54MOL   H11619302   7.030   5.883   3.217 -0.1385 -0.2633 -1.7070
   54MOL   H11719303   7.023   5.758   3.344  0.0723  2.3999  1.3267
   54MOL   H11819304   6.875   5.746   3.072 -0.4182 -0.1258 -0.6486
   54MOL   H11919305   6.831   5.575   3.311 -0.9675  1.3197 -0.3824
   54MOL   H12019306   6.941   5.519   3.194  0.7287  0.5505 -1.0311
   54MOL   H12119307   6.692   5.590   3.057 -1.8114  0.0513  2.0210
   54MOL   H12219308   6.693   5.329   3.221 -1.2417 -0.0877 -0.2991
   54MOL   H12319309   6.575   5.379   3.132 -2.0204  2.7253 -1.2663
   54MOL   H12419310   6.608   5.477   3.271  0.0660 -0.5334  0.1691
   54MOL   H12519311   6.754   5.418   2.909  0.0939  1.3496  0.8351
   54MOL   H12619312   6.884   5.356   3.016 -1.4728 -2.0383 -0.3639
   54MOL   H12719313   6.880   5.519   2.944  0.3538 -0.5797 -1.5994
   54MOL   C12819314   6.752   5.807   3.251  1.1915  0.3963  0.2449
   54MOL   C12919315   6.749   5.961   3.247 -0.5048 -0.0949  0.0559
   54MOL   C13019316   6.745   6.037   3.386  0.0799 -0.2591  0.1448
   54MOL   C13119317   6.882   6.033   3.451 -0.5948 -0.1783  0.0422
   54MOL   C13219318   6.970   6.141   3.387  1.0936  0.4564 -0.3353
   54MOL   C13319319   6.876   6.060   3.602  0.0593 -0.6449  0.4052
   54MOL   H13419320   6.751   5.781   3.357 -2.1829 -0.8488 -0.0389
   54MOL   H13519321   6.657   5.774   3.209  1.6293 -1.7015  0.8618
   54MOL   H13619322   6.841   5.988   3.195 -1.1865 -1.7161 -2.1047
   54MOL   H13719323   6.718   6.143   3.390 -1.9263 -0.7915  1.7256
   54MOL   H13819324   6.671   5.993   3.453 -0.4631  1.5717  0.7814
   54MOL   H13919325   6.918   5.930   3.447 -2.0473 -0.6616 -1.4702
   54MOL   H14019326   6.932   6.242   3.400 -0.1961 -0.1614  0.8989
   54MOL   H14119327   6.971   6.132   3.278  1.0772  1.7766 -0.4468
   54MOL   H14219328   7.068   6.142   3.435  1.0980  0.6089 -0.3502
   54MOL   H14319329   6.821   5.979   3.650  1.6611 -1.2064  1.3582
   54MOL   H14419330   6.977   6.058   3.645  2.5223  0.2993 -4.9282
   54MOL   H14519331   6.828   6.154   3.630  4.1313  1.4901  0.5752
   54MOL   C14619332   6.631   6.012   3.160  0.7286  0.6624  0.8130
   54MOL   C14719333   6.634   5.998   3.002  0.1438 -0.4405 -0.7424
   54MOL   C14819334   6.747   6.084   2.936 -0.1094  0.7012 -0.1050
   54MOL   C14919335   6.793   6.030   2.797 -0.3969  0.0222  0.2830
   54MOL   C15019336   6.862   6.143   2.729 -0.0930 -0.0760 -0.2005
   54MOL   C15119337   6.872   5.899   2.809 -0.0616 -0.1311 -0.4821
   54MOL   H15219338   6.630   6.120   3.174  0.7250  1.1838 -2.7164
   54MOL   H15319339   6.537   5.977   3.201  0.9007  2.1314  2.5142
   54MOL   H15419340   6.656   5.892   2.986 -1.8114 -1.0074  0.2042
   54MOL   H15519341   6.713   6.188   2.933  0.5804  1.0008  1.6124
   54MOL   H15619342   6.828   6.079   3.009  0.6568  0.4378 -0.9641
   54MOL   H15719343   6.705   6.010   2.736 -0.0116  1.1355 -0.6584
   54MOL   H15819344   6.802   6.231   2.705  1.4143  2.4890  4.8370
   54MOL   H15919345   6.909   6.121   2.633 -3.2126  0.9498 -2.0363
   54MOL   H16019346   6.947   6.177   2.788  0.2793  0.2091 -0.8989
   54MOL   H16119347   6.923   5.878   2.715 -0.0244  1.7264 -0.8945
   54MOL   H16219348   6.808   5.813   2.829  0.2191 -0.6184 -1.5854
   54MOL   H16319349   6.949   5.900   2.886 -0.4766  1.5180 -0.0666
   54MOL   C16419350   6.490   6.020   2.941 -0.3325  0.3744  0.1233
   54MOL   C16519351   6.399   5.889   2.944  0.1382  0.9598 -0.7395
   54MOL   C16619352   6.462   5.766   2.873  0.2556 -0.5022 -0.2921
   54MOL   C16719353   6.377   5.649   2.819  0.0334  0.1387  0.0621
   54MOL   C16819354   6.295   5.693   2.695  0.2636 -0.0411 -0.1939
   54MOL   C16919355   6.452   5.521   2.805 -0.1538 -0.0651 -0.2102
   54MOL   H17019356   6.431   6.101   2.983 -1.2022  0.4793 -1.2516
   54MOL   H17119357   6.506   6.045   2.836 -0.6941 -1.3370 -0.3554
   54MOL   H17219358   6.308   5.922   2.894 -0.5310  0.8720  0.4112
   54MOL   H17319359   6.525   5.806   2.793 -0.9090  0.7936 -0.5957
   54MOL   H17419360   6.529   5.720   2.946 -0.1003  0.6406  0.7783
   54MOL   H17519361   6.312   5.626   2.903 -0.2549 -0.7587 -0.4011
   54MOL   H17619362   6.242   5.786   2.711  0.1835 -0.0351 -0.4899
   54MOL   H17719363   6.219   5.618   2.673 -0.0564  0.4442 -0.7223
   54MOL   H17819364   6.350   5.693   2.601 -1.4358  0.2636 -1.2033
   54MOL   H17919365   6.533   5.534   2.733 -0.1955  0.9124 -0.0928
   54MOL   H18019366   6.395   5.436   2.767  0.7346 -0.1264 -1.4436
   54MOL   H18119367   6.502   5.482   2.895  0.0487 -4.5292 -2.1206
   54MOL   C18219368   6.347   5.847   3.088 -0.1812 -0.3007  1.1649
   54MOL   C18319369   6.257   5.955   3.160 -0.2019 -0.1564 -0.5515
   54MOL   C18419370   6.117   5.971   3.090 -0.1011  0.3609  0.3771
   54MOL   C18519371   6.088   6.103   3.028  0.1339  0.3635 -0.2546
   54MOL   C18619372   5.972   6.101   2.924  0.2096  0.2827  0.4384
   54MOL   C18719373   6.056   6.207   3.138 -0.3469 -0.0136  0.5830
   54MOL   H18819374   6.429   5.810   3.150  0.2916  0.1686  0.8205
   54MOL   H18919375   6.286   5.756   3.090  0.4646 -0.8033 -0.6250
   54MOL   H19019376   6.307   6.050   3.177 -2.1516  1.1021 -1.5527
   54MOL   H19119377   6.036   5.962   3.162 -1.3118 -0.3165 -1.0389
   54MOL   H19219378   6.096   5.890   3.021  0.1039 -0.6575  1.5084
   54MOL   H19319379   6.187   6.123   2.986  0.5547 -0.5397  0.3010
   54MOL   H19419380   5.879   6.087   2.978 -0.4908  0.8224 -0.6225
   54MOL   H19519381   5.991   6.019   2.855 -0.7655  0.3280  0.1233
   54MOL   H19619382   5.966   6.195   2.869 -1.4247 -0.1336 -0.1111
   54MOL   H19719383   6.141   6.252   3.190  0.2194  0.4195 -0.6734
   54MOL   H19819384   5.973   6.185   3.205  0.3482  0.0605  1.4669
   54MOL   H19919385   6.007   6.288   3.084  0.9862 -0.2562 -1.0333
   54MOL   C20019386   6.233   5.891   3.301  0.6096 -0.0828 -0.2069
   54MOL   C20119387   6.197   5.975   3.429  0.4324  0.2970  0.0247
   54MOL   C20219388   6.327   6.046   3.478 -0.1014 -0.4627 -0.0728
   54MOL   C20319389   6.309   6.177   3.561  0.5085 -0.5117  0.6895
   54MOL   C20419390   6.431   6.203   3.649  0.1526 -0.0512  0.2389
   54MOL   C20519391   6.278   6.299   3.473  0.3266 -0.1167  0.6030
   54MOL   H20619392   6.328   5.845   3.327  1.2363  1.1381 -0.3296
   54MOL   H20719393   6.167   5.804   3.295  1.1933 -0.4219 -2.0244
   54MOL   H20819394   6.126   6.051   3.400 -0.5752 -0.8619 -0.5808
   54MOL   H20919395   6.385   5.979   3.542  1.9683 -0.2889 -1.6880
   54MOL   H21019396   6.392   6.061   3.391 -1.7641 -1.6970 -1.5641
   54MOL   H21119397   6.226   6.157   3.629  0.7604 -3.2606  0.2267
   54MOL   H21219398   6.453   6.118   3.713 -0.3092 -0.8001 -0.5721
   54MOL   H21319399   6.418   6.291   3.712 -0.7122 -0.6216  0.8691
   54MOL   H21419400   6.523   6.217   3.593  0.2221  1.3213  0.6801
   54MOL   H21519401   6.350   6.306   3.391  1.6708  0.8603  1.8596
   54MOL   H21619402   6.283   6.396   3.523 -1.9467 -0.3994  1.4399
   54MOL   H21719403   6.184   6.294   3.417  0.8488 -1.4158 -0.1717
   54MOL   C21819404   6.120   5.903   3.545 -0.9726 -0.5210  0.4079
   54MOL   C21919405   6.190   5.805   3.642  0.6047 -0.2477  1.2470
   54MOL   C22019406   6.094   5.681   3.664 -0.6704 -0.3377  0.9719
   54MOL   C22119407   6.079   5.575   3.545  0.5369 -0.2412 -0.2496
   54MOL   C22219408   6.219   5.508   3.521  0.0872 -0.1854  0.1291
   54MOL   C22319409   5.975   5.469   3.579  0.3940  0.0599  0.7326
   54MOL   H22419410   6.086   5.987   3.606  0.4277 -0.6634  1.4046
   54MOL   H22519411   6.034   5.864   3.490 -1.7198  2.2082 -0.4677
   54MOL   H22619412   6.284   5.764   3.605  0.3461  0.5544 -0.3497
   54MOL   H22719413   6.114   5.622   3.753 -0.3750  0.9155  1.7544
   54MOL   H22819414   5.991   5.715   3.673 -0.8738 -0.4965 -0.5342
   54MOL   H22919415   6.047   5.632   3.458 -0.7425  0.0479  0.4040
   54MOL   H23019416   6.201   5.425   3.452 -1.5362  1.4826 -1.5090
   54MOL   H23119417   6.289   5.580   3.478 -1.9167  1.0477 -1.1518
   54MOL   H23219418   6.243   5.464   3.618  0.6179  0.6287  0.3705
   54MOL   H23319419   5.961   5.407   3.490 -0.9373  1.1269  0.1791
   54MOL   H23419420   5.994   5.410   3.668  2.4996 -1.2023 -0.4965
   54MOL   H23519421   5.877   5.514   3.593  0.5932  1.0419 -0.8247
   54MOL   C23619422   6.228   5.872   3.773  0.1570 -1.0179 -1.0859
   54MOL   C23719423   6.329   5.800   3.857 -0.6108  0.1375  1.2317
   54MOL   C23819424   6.336   5.851   4.003  0.2186  0.5812 -0.0520
   54MOL   C23919425   6.211   5.823   4.099  0.1044 -0.0080  0.2000
   54MOL   C24019426   6.140   5.684   4.082 -0.1862 -0.3842 -0.3579
   54MOL   C24119427   6.252   5.846   4.243  0.0833 -0.2673 -0.1428
   54MOL   H24219428   6.132   5.880   3.824  2.3490  0.7827  3.0344
   54MOL   H24319429   6.257   5.975   3.754 -3.7384  0.2670 -0.4687
   54MOL   H24419430   6.318   5.692   3.854  0.2905  0.0783 -2.0952
   54MOL   H24519431   6.368   5.955   4.006  1.1984  0.2454  1.5116
   54MOL   H24619432   6.419   5.793   4.043  0.0308 -0.7286 -1.4776
   54MOL   H24719433   6.127   5.889   4.076  0.6637  0.7272  0.2487
   54MOL   H24819434   6.199   5.595   4.102  1.7749  1.5727  2.7983
   54MOL   H24919435   6.099   5.682   3.981  0.7909 -1.8937 -0.7394
   54MOL   H25019436   6.051   5.673   4.144  0.8789 -1.1432  1.0313
   54MOL   H25119437   6.289   5.766   4.307  0.4096 -1.0260 -1.2687
   54MOL   H25219438   6.178   5.895   4.306  1.2067  1.0621  0.1510
   54MOL   H25319439   6.339   5.912   4.247 -1.3036  1.6025 -0.1936
   54MOL   C25419440   6.467   5.818   3.795  0.1229 -0.1677 -0.1169
   54MOL   C25519441   6.572   5.696   3.824 -0.0311 -0.8244  0.4871
   54MOL   C25619442   6.562   5.587   3.720 -0.0721 -0.0187  0.2775
   54MOL   C25719443   6.624   5.448   3.740  0.1965  0.3311 -0.7834
   54MOL   C25819444   6.642   5.354   3.618  0.0930  0.3046  0.3911
   54MOL   C25919445   6.555   5.355   3.840  0.8902  0.7068 -0.3644
   54MOL   H26019446   6.462   5.843   3.689  2.0916 -2.3239 -0.7527
   54MOL   H26119447   6.500   5.917   3.829 -0.3602  0.1466 -0.5557
   54MOL   H26219448   6.535   5.649   3.915 -1.6684 -1.9465 -0.7256
   54MOL   H26319449   6.605   5.631   3.629  1.2056 -0.4456  0.6621
   54MOL   H26419450   6.455   5.567   3.709  0.1490 -2.1372  1.8083
   54MOL   H26519451   6.719   5.475   3.785 -0.7453 -0.7515  1.9530
   54MOL   H26619452   6.548   5.319   3.576  1.5011 -2.0852 -0.8676
   54MOL   H26719453   6.696   5.263   3.645  1.2371  0.8891  0.0963
   54MOL   H26819454   6.706   5.393   3.539 -0.3652 -2.6117 -1.4967
   54MOL   H26919455   6.563   5.397   3.940 -1.6065 -0.9393  0.5941
   54MOL   H27019456   6.448   5.359   3.820  0.9534  2.3031 -0.4392
   54MOL   H27119457   6.601   5.256   3.838  0.0178  0.3016 -0.9661
   54MOL   C27219458   6.718   5.748   3.834 -0.5239  0.1119 -0.2333
   54MOL   C27319459   6.762   5.786   3.978  0.0655 -0.7208 -0.7787
   54MOL   C27419460   6.797   5.666   4.063  0.4547 -0.1247  0.4536
   54MOL   C27519461   6.779   5.688   4.210 -0.1692  0.3518  0.0341
   54MOL   C27619462   6.864   5.589   4.286  0.3106  0.4540 -0.1532
   54MOL   C27719463   6.638   5.697   4.269  0.2092  0.4926  0.3850
   54MOL   H27819464   6.792   5.677   3.796  1.0892  1.5190  0.2058
   54MOL   H27919465   6.725   5.834   3.767  1.1059  0.4002  0.2822
   54MOL   H28019466   6.667   5.830   4.007  1.6311  1.2843  1.5100
   54MOL   H28119467   6.899   5.631   4.044 -0.1856 -1.3136 -0.9025
   54MOL   H28219468   6.734   5.584   4.031  0.2796  0.4051 -0.5946
   54MOL   H28319469   6.821   5.786   4.231 -0.5997  0.6075 -0.2818
   54MOL   H28419470   6.858   5.489   4.244  3.3409 -0.0545  0.5161
   54MOL   H28519471   6.971   5.607   4.275  0.2086  0.4290 -1.2608
   54MOL   H28619472   6.842   5.572   4.391  1.8024  1.7374  0.3764
   54MOL   H28719473   6.592   5.784   4.222 -0.7834 -0.0544  0.3377
   54MOL   H28819474   6.579   5.611   4.235  0.2864  0.8794 -0.7687
   54MOL   H28919475   6.617   5.696   4.376 -2.4828 -1.3341 -0.1099
   54MOL   C29019476   6.877   5.890   3.980 -0.1278 -0.7695 -0.2458
   54MOL   C29119477   6.854   6.027   4.050  0.0962 -0.2388 -0.5409
   54MOL   C29219478   6.990   6.102   4.076 -1.0112  0.1478 -0.6606
   54MOL   C29319479   7.105   6.022   4.154  0.1998 -0.5313 -0.8529
   54MOL   C29419480   7.233   6.101   4.160 -1.4259 -0.0472  0.1089
   54MOL   C29519481   7.081   5.973   4.298 -0.2673 -0.5830  0.1600
   54MOL   H29619482   6.961   5.842   4.030  0.4796 -0.7903 -1.2731
   54MOL   H29719483   6.918   5.903   3.880 -1.3201  2.9674 -0.3451
   54MOL   H29819484   6.807   6.008   4.147  1.1452  1.4718  0.3175
   54MOL   H29919485   6.983   6.204   4.115  0.5564 -0.3295  0.9039
   54MOL   H30019486   7.039   6.120   3.980  0.4931 -0.7431 -0.0747
   54MOL   H30119487   7.140   5.935   4.098 -1.3698 -0.9242 -1.2670
   54MOL   H30219488   7.264   6.132   4.060 -2.0777  1.0018  0.2277
   54MOL   H30319489   7.320   6.049   4.201 -0.9601 -1.4361 -2.4634
   54MOL   H30419490   7.223   6.199   4.205 -0.9612 -0.0952  0.3194
   54MOL   H30519491   7.137   5.883   4.321  1.8489  0.6414 -0.0281
   54MOL   H30619492   6.978   5.937   4.293 -0.8565  0.5203  3.0946
   54MOL   H30719493   7.098   6.057   4.365  1.4102 -0.8986  0.1389
   54MOL   C30819494   6.777   6.117   3.953  0.1166 -0.0031  1.0536
   54MOL   C30919495   6.717   6.241   4.018 -0.0884  0.1497 -0.5241
   54MOL   C31019496   6.669   6.339   3.907  0.0907 -0.3602 -0.1009
   54MOL   C31119497   6.790   6.418   3.836  0.0667 -1.0128 -0.7793
   54MOL   C31219498   6.734   6.497   3.714  0.3080  0.3913  0.4344
   54MOL   C31319499   6.863   6.509   3.942  0.7018 -0.1273  0.9229
   54MOL   H31419500   6.837   6.146   3.866 -0.2030 -2.4546 -0.0453
   54MOL   H31519501   6.701   6.062   3.898  1.1132  1.5987 -2.0148
   54MOL   H31619502   6.782   6.297   4.086  4.3886 -3.7131 -1.3806
   54MOL   H31719503   6.593   6.410   3.938 -0.6066 -1.3325  0.4262
   54MOL   H31819504   6.619   6.273   3.837  0.1226  0.2243 -0.6799
   54MOL   H31919505   6.865   6.351   3.794  1.9559  1.0305 -0.7535
   54MOL   H32019506   6.669   6.576   3.753  0.7416  1.2400 -0.5578
   54MOL   H32119507   6.678   6.436   3.644  0.2381 -0.2237  1.0175
   54MOL   H32219508   6.812   6.553   3.662  0.0268  1.2655  0.9403
   54MOL   H32319509   6.957   6.547   3.903  0.4648  0.0550  0.5213
   54MOL   H32419510   6.816   6.602   3.975 -1.4329 -1.5042  1.8254
   54MOL   H32519511   6.890   6.456   4.033 -2.7893 -0.3128  1.9304
   54MOL   C32619512   6.594   6.206   4.103 -0.2533  0.3996 -0.0181
   54MOL   C32719513   6.578   6.282   4.237  1.3189  0.2749  0.2112
   54MOL   C32819514   6.528   6.205   4.363 -0.4267 -0.3700 -0.3027
   54MOL   C32919515   6.610   6.075   4.400  0.2164 -0.4420  0.1809
   54MOL   C33019516   6.745   6.114   4.461  0.0427  0.2660 -0.2208
   54MOL   C33119517   6.531   5.980   4.495  0.3678  0.1838  0.2932
   54MOL   H33219518   6.608   6.099   4.121  2.1858  0.7363  0.2931
   54MOL   H33319519   6.498   6.204   4.051 -0.5952  1.0103  0.5813
   54MOL   H33419520   6.680   6.309   4.264  1.3205  0.1643  0.3173
   54MOL   H33519521   6.516   6.272   4.448 -0.2742  0.0705 -0.6222
   54MOL   H33619522   6.426   6.174   4.342 -0.7458  1.6822 -2.0165
   54MOL   H33719523   6.632   6.020   4.309 -1.4365 -0.5314 -0.1799
   54MOL   H33819524   6.806   6.163   4.384 -0.2097  0.2007 -0.4605
   54MOL   H33919525   6.805   6.027   4.487 -1.5334 -0.2488  1.8138
   54MOL   H34019526   6.741   6.162   4.559 -3.4980 -3.3399  1.5198
   54MOL   H34119527   6.523   6.014   4.599 -0.4467 -2.0330  0.9877
   54MOL   H34219528   6.429   5.954   4.470  0.6142 -1.2039  0.6890
   54MOL   H34319529   6.574   5.880   4.498  2.8308  1.2335  1.4182
   54MOL   C34419530   6.485   6.407   4.221 -0.9277 -0.1495  0.0247
   54MOL   C34519531   6.530   6.531   4.300  0.2657  0.8428 -0.2401
   54MOL   C34619532   6.659   6.595   4.241 -0.3047 -0.0555 -0.3518
   54MOL   C34719533   6.712   6.715   4.326 -0.4257 -0.0170  0.0985
   54MOL   C34819534   6.626   6.837   4.319  0.1076  0.1062 -0.2583
   54MOL   C34919535   6.858   6.743   4.284  0.2743 -0.1663 -0.4333
   54MOL   H35019536   6.387   6.373   4.256 -1.7571  0.7576 -1.3797
   54MOL   H35119537   6.466   6.429   4.116  0.6271 -3.0968 -0.9327
   54MOL   H35219538   6.552   6.512   4.405  0.1253 -1.1537 -0.5594
   54MOL   H35319539   6.746   6.529   4.246 -0.2472  0.0525  0.0853
   54MOL   H35419540   6.642   6.628   4.138  2.0324  0.7063 -0.5206
   54MOL   H35519541   6.712   6.687   4.431 -0.7141 -1.2396 -0.2218
   54MOL   H35619542   6.628   6.868   4.214 -0.3343 -2.4979 -1.0754
   54MOL   H35719543   6.522   6.817   4.346  0.9498 -1.1345  2.1563
   54MOL   H35819544   6.669   6.912   4.386 -2.8778  1.8365 -0.2078
   54MOL   H35919545   6.922   6.655   4.281 -1.2074 -1.2109 -2.0742
   54MOL   H36019546   6.895   6.820   4.351 -4.3296  2.3510 -0.5472
   54MOL   H36119547   6.868   6.778   4.181  1.0489 -0.3803 -0.4356
   54MOL   H36219548   6.445   6.599   4.299  0.0138  0.5337  0.1109
   55MOL     C119549   1.773   5.201   1.062 -0.6381 -0.0479  1.1247
   55MOL     C219550   1.636   5.135   1.035  0.5138  0.6402 -1.0478
   55MOL     C319551   1.663   5.002   0.953  0.3859 -0.0803  0.1944
   55MOL     C419552   1.542   4.909   0.953 -0.0639  0.0742 -0.1784
   55MOL     C519553   1.521   4.818   1.085 -0.6622 -0.7204  0.3233
   55MOL     C619554   1.559   4.819   0.823  0.2232  0.3899  0.0571
   55MOL     H719555   1.768   5.280   1.137  1.3677 -1.2974  2.6036
   55MOL     H819556   1.860   5.146   1.097 -0.2079 -0.5409 -0.6915
   55MOL     H919557   1.593   5.120   1.134 -1.1058  1.1451 -1.6581
   55MOL    H1019558   1.699   5.032   0.855 -1.7662  1.2432 -0.2476
   55MOL    H1119559   1.744   4.963   1.015  1.1394  2.0323  0.5896
   55MOL    H1219560   1.449   4.967   0.947 -1.4253 -1.7215  2.4000
   55MOL    H1319561   1.447   4.739   1.071 -0.2380 -0.8469 -1.3200
   55MOL    H1419562   1.617   4.769   1.099 -0.9880 -1.3476  0.3852
   55MOL    H1519563   1.502   4.878   1.174 -2.1069  0.7635 -0.9486
   55MOL    H1619564   1.471   4.761   0.796 -0.3730  1.7412 -0.9485
   55MOL    H1719565   1.632   4.739   0.835 -1.5912 -1.4186 -0.6496
   55MOL    H1819566   1.582   4.883   0.738  0.3175  0.5165  0.1775
   55MOL    H1919567   1.807   5.251   0.971  0.5078  1.6928  2.4799
   55MOL    C2019568   1.540   5.230   0.959  0.1762 -0.4667  0.1968
   55MOL    C2119569   1.468   5.344   1.046 -0.1620  0.2797 -0.1851
   55MOL    C2219570   1.408   5.449   0.950 -0.2264 -0.6334  0.2779
   55MOL    C2319571   1.510   5.550   0.894  0.3586 -0.0345 -0.2354
   55MOL    C2419572   1.461   5.604   0.757  0.4720 -0.9853 -0.3422
   55MOL    C2519573   1.541   5.664   0.987  0.4208  0.2788 -0.1643
   55MOL    H2619574   1.604   5.276   0.884 -1.0567 -0.7811 -1.0714
   55MOL    H2719575   1.471   5.173   0.897 -2.7743  2.7789  0.3471
   55MOL    H2819576   1.542   5.387   1.112 -0.2400 -1.0754  0.8080
   55MOL    H2919577   1.320   5.505   0.983 -1.2568 -2.3571  0.5418
   55MOL    H3019578   1.367   5.398   0.863  0.7248 -1.1405  0.1169
   55MOL    H3119579   1.606   5.503   0.876  0.1949 -0.8618  1.0198
   55MOL    H3219580   1.531   5.680   0.722  1.5789 -2.2378 -0.9029
   55MOL    H3319581   1.360   5.644   0.748  0.0211 -2.0315  0.0244
   55MOL    H3419582   1.483   5.534   0.676  0.1087  2.4544 -3.5939
   55MOL    H3519583   1.626   5.721   0.947 -0.1653  0.9074 -0.5197
   55MOL    H3619584   1.458   5.732   1.004 -0.7641 -0.9426 -1.0173
   55MOL    H3719585   1.573   5.628   1.085  0.2809  2.1589  0.6031
   55MOL    C3819586   1.353   5.287   1.139  0.1704  0.1870  0.3408
   55MOL    C3919587   1.299   5.388   1.247  0.4494  0.3069  0.1463
   55MOL    C4019588   1.365   5.386   1.374 -0.1352 -0.3306 -0.0369
   55MOL    C4119589   1.343   5.498   1.475 -0.4675 -0.2233  0.4511
   55MOL    C4219590   1.401   5.634   1.418 -0.0926  0.0390  0.3923
   55MOL    C4319591   1.396   5.466   1.617  0.3150 -0.2546  0.3569
   55MOL    H4419592   1.378   5.195   1.192 -1.6982 -0.8854 -0.6118
   55MOL    H4519593   1.267   5.269   1.075  0.0334  0.4281  0.4583
   55MOL    H4619594   1.313   5.494   1.224  1.5492 -0.1755 -1.5024
   55MOL    H4719595   1.471   5.385   1.351  0.0036 -1.1097  0.5920
   55MOL    H4819596   1.358   5.281   1.404  0.6012 -0.7397 -1.2579
   55MOL    H4919597   1.235   5.509   1.484 -0.9790 -2.4563 -2.3853
   55MOL    H5019598   1.378   5.676   1.320  0.2380  0.7487  0.6118
   55MOL    H5119599   1.388   5.715   1.490 -0.5177 -1.8886  2.5408
   55MOL    H5219600   1.509   5.622   1.421  0.1554  1.7765 -0.4519
   55MOL    H5319601   1.339   5.376   1.641 -1.7697  1.0205  0.3665
   55MOL    H5419602   1.367   5.538   1.694 -2.2768  0.9854 -1.6857
   55MOL    H5519603   1.501   5.439   1.631  0.1691 -1.9153 -1.5446
   55MOL    C5619604   1.152   5.346   1.260 -0.0440 -0.5267 -0.2551
   55MOL    C5719605   1.046   5.425   1.175  0.1997 -0.5194  0.2846
   55MOL    C5819606   1.039   5.575   1.225  0.0322  0.0173 -0.0081
   55MOL    C5919607   0.964   5.672   1.129  0.0847  0.3759  0.5715
   55MOL    C6019608   1.028   5.692   1.000 -0.1797  0.2377  0.3900
   55MOL    C6119609   0.950   5.808   1.205  0.7050 -0.4061 -0.4220
   55MOL    H6219610   1.122   5.352   1.365  0.8201  0.9972 -0.0791
   55MOL    H6319611   1.134   5.240   1.244 -0.1991 -0.2829 -1.6902
   55MOL    H6419612   1.083   5.424   1.073 -0.5882  1.5484 -0.0366
   55MOL    H6519613   0.999   5.580   1.327  3.6324  1.4456  1.4304
   55MOL    H6619614   1.141   5.614   1.236 -0.8809  2.4664  0.1198
   55MOL    H6719615   0.862   5.637   1.113  0.1226 -0.0041  1.1286
   55MOL    H6819616   1.010   5.604   0.936 -2.6947 -0.3689  1.8499
   55MOL    H6919617   1.136   5.702   1.009 -0.0884  0.4315 -0.7727
   55MOL    H7019618   0.997   5.777   0.939  2.0148  0.1449 -0.9170
   55MOL    H7119619   0.864   5.793   1.271 -0.8636 -3.3688 -3.0063
   55MOL    H7219620   0.918   5.887   1.137 -0.4180  0.0099  0.5717
   55MOL    H7319621   1.033   5.853   1.259 -0.4160  0.4337  0.6365
   55MOL    C7419622   0.914   5.346   1.177  1.0130  0.0592 -0.5579
   55MOL    C7519623   0.910   5.237   1.060 -0.2243 -0.1874 -0.2885
   55MOL    C7619624   0.901   5.298   0.919 -0.1822 -0.6443 -0.5159
   55MOL    C7719625   0.959   5.206   0.811  0.2505 -0.3263 -0.1814
   55MOL    C7819626   1.106   5.184   0.817 -0.0099 -0.2257 -0.2095
   55MOL    C7919627   0.926   5.264   0.669 -0.5236 -1.1992 -0.1414
   55MOL    H8019628   0.827   5.412   1.176  0.3448 -0.7691  0.7631
   55MOL    H8119629   0.900   5.285   1.267 -1.3290 -2.1010 -2.3238
   55MOL    H8219630   1.008   5.191   1.062  0.6774  1.6695 -0.8107
   55MOL    H8319631   0.796   5.316   0.897  0.9361  2.0398 -4.1071
   55MOL    H8419632   0.951   5.394   0.926  0.0624 -0.7829 -0.3411
   55MOL    H8519633   0.908   5.110   0.820 -2.2056  0.7409 -2.0032
   55MOL    H8619634   1.147   5.139   0.727  0.0096 -2.6706  0.9875
   55MOL    H8719635   1.135   5.118   0.898  0.4580 -1.0190 -1.0165
   55MOL    H8819636   1.166   5.274   0.834 -0.0420 -0.4414  1.0490
   55MOL    H8919637   0.984   5.356   0.660  2.3695 -2.6618  2.6517
   55MOL    H9019638   0.973   5.202   0.592  1.1397  0.0330 -0.1587
   55MOL    H9119639   0.822   5.273   0.640 -0.2232  2.8874 -0.2110
   55MOL    C9219640   0.808   5.122   1.082 -1.1615 -0.0782  0.0836
   55MOL    C9319641   0.856   4.980   1.103  0.4902  0.5082 -0.1572
   55MOL    C9419642   0.962   4.966   1.220 -0.2826  0.4103  0.0169
   55MOL    C9519643   1.109   4.926   1.175 -0.0287  0.4399  0.0877
   55MOL    C9619644   1.206   4.932   1.298  0.6331 -0.5824  0.2188
   55MOL    C9719645   1.113   4.794   1.096 -0.0874  0.0776  0.1924
   55MOL    H9819646   0.731   5.153   1.153 -0.2403  2.4476  0.0255
   55MOL    H9919647   0.755   5.107   0.988 -2.0564 -1.5522  0.8080
   55MOL   H10019648   0.905   4.953   1.009  0.6512 -0.1141  0.1087
   55MOL   H10119649   0.912   4.889   1.278 -2.1856  1.1477 -0.5942
   55MOL   H10219650   0.964   5.047   1.293  1.4490 -0.5249  1.0257
   55MOL   H10319651   1.141   5.003   1.105  0.1833  1.3853  1.2137
   55MOL   H10419652   1.298   4.875   1.283 -0.0484 -1.2732 -1.4506
   55MOL   H10519653   1.162   4.891   1.389  1.9010  1.0481  1.6028
   55MOL   H10619654   1.250   5.030   1.317  2.1739 -1.0766 -0.6368
   55MOL   H10719655   1.085   4.712   1.161 -0.8342 -0.2876 -0.5796
   55MOL   H10819656   1.217   4.784   1.065 -0.7569 -2.5626 -1.3406
   55MOL   H10919657   1.051   4.796   1.006 -2.3898 -0.4610  1.7544
   55MOL   C11019658   0.735   4.891   1.116  0.2421 -0.4736  0.3871
   55MOL   C11119659   0.620   4.896   1.008 -0.4567 -0.1459 -0.1961
   55MOL   C11219660   0.670   4.848   0.869 -0.0660 -0.2106 -0.5419
   55MOL   C11319661   0.579   4.878   0.754 -0.1077  0.5007 -0.4075
   55MOL   C11419662   0.644   4.829   0.624  0.0877  0.2889  0.0193
   55MOL   C11519663   0.524   5.020   0.733  0.3066 -0.7354  0.2449
   55MOL   H11619664   0.686   4.923   1.208  2.0479  0.9904  0.8660
   55MOL   H11719665   0.780   4.791   1.116 -1.1950 -1.1665 -2.6201
   55MOL   H11819666   0.579   4.996   0.993 -1.6057 -0.6160 -0.1997
   55MOL   H11919667   0.696   4.742   0.867 -0.5385 -0.3999  2.0910
   55MOL   H12019668   0.770   4.889   0.854  0.5162 -0.6792  1.8754
   55MOL   H12119669   0.483   4.830   0.770  0.0446  0.2216 -0.3316
   55MOL   H12219670   0.679   4.726   0.632 -1.1014 -0.1469 -0.2287
   55MOL   H12319671   0.723   4.901   0.607 -0.5680  1.3365  1.3653
   55MOL   H12419672   0.572   4.826   0.542 -1.1964  0.1011  1.1289
   55MOL   H12519673   0.465   5.044   0.822  0.9204 -0.8316  0.6848
   55MOL   H12619674   0.447   5.016   0.657 -0.6631  1.6200  1.0601
   55MOL   H12719675   0.604   5.093   0.721 -1.8323  1.9999  2.1015
   55MOL   C12819676   0.500   4.808   1.044  0.0612 -0.9063  0.0575
   55MOL   C12919677   0.523   4.657   1.072  0.3501  0.3348 -0.2637
   55MOL   C13019678   0.501   4.566   0.950 -0.7674  0.7304 -0.1034
   55MOL   C13119679   0.588   4.437   0.973  1.2457 -0.8907  0.2556
   55MOL   C13219680   0.522   4.322   0.895  0.2420 -0.3953 -0.3054
   55MOL   C13319681   0.734   4.455   0.935 -0.6684 -0.1152 -0.0344
   55MOL   H13419682   0.420   4.813   0.970  0.2461  0.5768 -0.0505
   55MOL   H13519683   0.463   4.868   1.127  3.7541  0.0428  1.1078
   55MOL   H13619684   0.627   4.657   1.106  0.8404  2.9158 -1.6448
   55MOL   H13719685   0.396   4.537   0.947 -0.4518 -0.4313 -0.1719
   55MOL   H13819686   0.522   4.613   0.854  3.1466  0.8729  0.7361
   55MOL   H13919687   0.594   4.393   1.072 -0.3921  1.0189  1.2269
   55MOL   H14019688   0.413   4.332   0.903  0.0860 -2.8195  1.0392
   55MOL   H14119689   0.562   4.224   0.922 -0.3001 -0.0722  1.7105
   55MOL   H14219690   0.548   4.327   0.789  0.8522  2.0318 -0.0718
   55MOL   H14319691   0.751   4.481   0.830 -2.3326 -1.7033 -0.7185
   55MOL   H14419692   0.790   4.520   1.002  0.9932 -1.3366 -0.1988
   55MOL   H14519693   0.790   4.362   0.940 -0.6228 -0.1737 -1.3198
   55MOL   C14619694   0.425   4.607   1.189 -0.0739  0.0138  0.5818
   55MOL   C14719695   0.456   4.658   1.330 -0.2299 -0.1414  0.1095
   55MOL   C14819696   0.580   4.579   1.376  0.2479  0.1967 -0.4213
   55MOL   C14919697   0.676   4.665   1.466  0.3900 -0.9633  0.0557
   55MOL   C15019698   0.599   4.692   1.604 -0.0134  0.7228  1.1238
   55MOL   C15119699   0.824   4.622   1.480 -0.6861  0.4444  0.0899
   55MOL   H15219700   0.424   4.498   1.188 -0.6105 -0.0128  2.4166
   55MOL   H15319701   0.320   4.630   1.173 -0.5446 -0.7287  2.4240
   55MOL   H15419702   0.476   4.765   1.326  1.4275 -0.5013 -2.0257
   55MOL   H15519703   0.560   4.484   1.427 -0.9717  0.5055 -0.2977
   55MOL   H15619704   0.634   4.542   1.289  0.3918 -2.6332  0.7923
   55MOL   H15719705   0.671   4.759   1.410 -2.1925 -1.2546 -0.2552
   55MOL   H15819706   0.525   4.616   1.628 -0.8966  0.7896 -1.3224
   55MOL   H15919707   0.552   4.790   1.595  0.4821  0.8418 -0.2786
   55MOL   H16019708   0.670   4.694   1.687  0.1938  0.1815  0.9541
   55MOL   H16119709   0.844   4.542   1.551 -0.9106  1.0353  0.8289
   55MOL   H16219710   0.872   4.707   1.530  1.0418 -0.9446  0.8522
   55MOL   H16319711   0.874   4.602   1.386 -1.3978 -1.0462  0.0224
   55MOL   C16419712   0.328   4.629   1.414  0.4880  0.2927  0.2265
   55MOL   C16519713   0.207   4.726   1.428  0.2213  0.3078 -0.1241
   55MOL   C16619714   0.104   4.645   1.505 -0.8786 -0.4597 -0.7820
   55MOL   C16719715   0.027   4.546   1.420  0.1480 -0.1803 -0.3110
   55MOL   C16819716   7.736   4.432   1.514  0.0658  0.1751  0.5758
   55MOL   C16919717   7.656   4.605   1.359  0.7327 -0.2642 -0.2229
   55MOL   H17019718   0.296   4.530   1.381 -1.3595  0.3336  1.8166
   55MOL   H17119719   0.354   4.614   1.519 -0.3671  1.1707  0.5654
   55MOL   H17219720   0.164   4.749   1.331  0.4704 -0.3103 -0.3851
   55MOL   H17319721   0.149   4.585   1.585  1.0322  3.3263  1.0894
   55MOL   H17419722   0.032   4.710   1.556 -0.2250 -0.2194 -0.1490
   55MOL   H17519723   0.081   4.502   1.336 -0.9989  1.0949 -1.7341
   55MOL   H17619724   7.657   4.466   1.581 -0.2949 -1.5182  1.0193
   55MOL   H17719725   0.065   4.401   1.580  1.6218  1.1000 -0.8873
   55MOL   H17819726   7.701   4.347   1.457  0.0424 -0.3595  1.3725
   55MOL   H17919727   7.586   4.531   1.319  0.9889  0.2880 -1.7460
   55MOL   H18019728   7.670   4.664   1.268 -1.7949 -0.2897 -0.6843
   55MOL   H18119729   7.600   4.658   1.436  0.0488 -1.1071 -0.1218
   55MOL   C18219730   0.248   4.853   1.496 -0.3488 -0.8740 -0.2802
   55MOL   C18319731   0.145   4.966   1.492 -0.2427  0.3376  0.3494
   55MOL   C18419732   0.186   5.064   1.605  0.0735  0.3586 -0.2955
   55MOL   C18519733   0.084   5.176   1.638  0.3154  0.1564 -0.0122
   55MOL   C18619734   7.710   5.118   1.699 -0.1750 -0.4821  0.1440
   55MOL   C18719735   0.151   5.288   1.722 -0.7486  0.4427 -0.4472
   55MOL   H18819736   0.342   4.891   1.455  0.3380 -0.9529  1.1727
   55MOL   H18919737   0.281   4.827   1.597  1.8205 -1.1731 -1.0317
   55MOL   H19019738   0.050   4.922   1.525 -0.6604 -1.9407 -3.5533
   55MOL   H19119739   0.278   5.116   1.577  1.5034 -1.0329  1.7269
   55MOL   H19219740   0.198   5.011   1.699 -0.3450 -1.8830 -1.4898
   55MOL   H19319741   0.055   5.232   1.550 -0.2356 -1.4511 -0.8809
   55MOL   H19419742   7.637   5.197   1.719 -2.4705 -2.5850  0.3185
   55MOL   H19519743   7.730   5.060   1.789 -1.1553  0.0192  0.6960
   55MOL   H19619744   7.664   5.063   1.617  0.0591 -0.1245 -0.2305
   55MOL   H19719745   0.076   5.354   1.765 -0.8242 -0.5283  0.9170
   55MOL   H19819746   0.232   5.343   1.673  0.5479 -1.3926 -0.4005
   55MOL   H19919747   0.192   5.237   1.809 -0.0500 -0.4395 -1.2662
   55MOL   C20019748   0.143   5.050   1.356 -0.2790  0.8759 -0.4782
   55MOL   C20119749   0.004   5.108   1.298  0.5153  0.1470  0.3263
   55MOL   C20219750   7.661   4.996   1.277 -0.3149 -0.0791 -0.0608
   55MOL   C20319751   7.521   5.031   1.240  0.1518 -0.3158  0.7226
   55MOL   C20419752   7.432   4.922   1.166 -0.1033  0.0614  0.0655
   55MOL   C20519753   7.452   5.061   1.366 -0.1245 -0.7173 -0.2493
   55MOL   H20619754   0.179   4.982   1.279 -1.5688 -2.1020  1.4479
   55MOL   H20719755   0.213   5.134   1.361 -0.8887  1.2970  1.3819
   55MOL   H20819756   7.710   5.183   1.361 -1.8964  0.5351 -1.8280
   55MOL   H20919757   7.704   4.939   1.194 -0.6071  1.9540 -1.6835
   55MOL   H21019758   7.669   4.933   1.365 -1.6627  0.7382  0.6555
   55MOL   H21119759   7.530   5.125   1.185 -3.7874  1.4605  2.8709
   55MOL   H21219760   7.488   4.898   1.077  1.1087  0.8090  0.6144
   55MOL   H21319761   7.335   4.960   1.132 -0.4568  0.7250  1.7456
   55MOL   H21419762   7.426   4.829   1.223  1.0296  0.2748  0.5532
   55MOL   H21519763   7.454   4.974   1.433  1.1852  0.3753  1.1894
   55MOL   H21619764   7.348   5.091   1.356 -0.1348 -0.5697  0.2512
   55MOL   H21719765   7.499   5.144   1.420  0.9196 -0.5992 -1.3091
   55MOL   C21819766   0.037   5.181   1.158 -0.5979  0.0936 -0.3062
   55MOL   C21919767   0.120   5.304   1.172 -0.0162 -0.1420  0.4751
   55MOL   C22019768   0.037   5.439   1.148 -0.4347 -0.6913  0.3723
   55MOL   C22119769   7.644   5.447   1.216  0.7701  0.2506  0.3986
   55MOL   C22219770   7.664   5.464   1.367 -0.1600  0.1055 -0.3903
   55MOL   C22319771   7.562   5.573   1.169  0.3590  0.2614 -0.8308
   55MOL   H22419772   0.093   5.117   1.089 -1.2088  1.3530 -2.0029
   55MOL   H22519773   7.701   5.208   1.100  0.3017  0.5235 -1.4866
   55MOL   H22619774   0.149   5.327   1.275  1.6609  2.6681 -0.5762
   55MOL   H22719775   0.091   5.530   1.173 -1.4429 -0.1544  0.6175
   55MOL   H22819776   0.017   5.438   1.041  0.9372  0.6315  0.0957
   55MOL   H22919777   7.579   5.364   1.188  0.2570  0.6804  0.3101
   55MOL   H23019778   7.717   5.554   1.399 -0.5576  0.7401 -1.5067
   55MOL   H23119779   7.570   5.457   1.423  0.9943  0.2934  1.6486
   55MOL   H23219780   7.722   5.386   1.417 -0.3998  0.8253  1.0620
   55MOL   H23319781   7.459   5.564   1.204  0.8085 -0.4006  0.3644
   55MOL   H23419782   7.608   5.658   1.219 -0.4271  1.3001 -1.8602
   55MOL   H23519783   7.568   5.585   1.061  0.0125 -1.3966 -1.0604
   55MOL   C23619784   0.257   5.303   1.088  0.2340 -0.0980  0.2538
   55MOL   C23719785   0.378   5.404   1.132 -0.1231  0.1828 -0.1911
   55MOL   C23819786   0.494   5.413   1.030  0.6984  0.2381 -0.5913
   55MOL   C23919787   0.515   5.551   0.970 -0.4895 -0.9483 -0.7938
   55MOL   C24019788   0.642   5.556   0.885  0.0068 -0.3804  0.3739
   55MOL   C24119789   0.401   5.599   0.882 -0.8243 -0.9875 -0.5751
   55MOL   H24219790   0.238   5.322   0.983 -0.2347 -2.1103 -0.0416
   55MOL   H24319791   0.302   5.204   1.093 -0.0210 -0.3626 -2.3456
   55MOL   H24419792   0.325   5.499   1.134 -1.0022 -0.3154  1.4327
   55MOL   H24519793   0.463   5.345   0.951 -2.2688 -1.9623  2.3320
   55MOL   H24619794   0.591   5.377   1.061  0.6933  1.3301  0.7491
   55MOL   H24719795   0.530   5.617   1.055 -1.3319 -0.9791 -0.6197
   55MOL   H24819796   0.636   5.472   0.815  0.1317  1.7780 -2.3010
   55MOL   H24919797   0.740   5.558   0.932  0.9916  1.3839 -1.6234
   55MOL   H25019798   0.623   5.646   0.826 -1.0415 -0.7150  0.1850
   55MOL   H25119799   0.409   5.698   0.838 -0.2159 -0.3827  0.8891
   55MOL   H25219800   0.316   5.615   0.948  1.0662  2.8938  1.0515
   55MOL   H25319801   0.386   5.529   0.799  2.3678 -1.2892 -0.9616
   55MOL   C25419802   0.427   5.377   1.277  0.0979 -0.2477  0.0137
   55MOL   C25519803   0.505   5.496   1.346 -0.5658  0.2973 -1.1853
   55MOL   C25619804   0.413   5.609   1.407  0.3509 -0.9607  0.1827
   55MOL   C25719805   0.480   5.741   1.450  0.0478  0.2039  0.3089
   55MOL   C25819806   0.418   5.801   1.576 -0.2153 -0.0678  0.0569
   55MOL   C25919807   0.489   5.834   1.330 -0.1263 -0.1117  0.0394
   55MOL   H26019808   0.344   5.347   1.341 -1.6074 -0.4317 -2.2193
   55MOL   H26119809   0.481   5.284   1.264 -0.4649 -0.3441 -1.7585
   55MOL   H26219810   0.554   5.544   1.260 -0.0491 -0.9870 -1.6231
   55MOL   H26319811   0.357   5.566   1.491 -0.6180  0.4072  0.2505
   55MOL   H26419812   0.346   5.634   1.325 -0.1615  0.6515  1.0746
   55MOL   H26519813   0.583   5.722   1.481 -0.6530 -1.1127  1.8873
   55MOL   H26619814   0.453   5.901   1.601  0.4268 -0.2803  0.0386
   55MOL   H26719815   0.445   5.734   1.657 -1.0924  0.0427  0.4348
   55MOL   H26819816   0.309   5.799   1.576 -0.2731 -0.9069 -3.2070
   55MOL   H26919817   0.533   5.782   1.244 -1.0454 -0.4343 -0.2406
   55MOL   H27019818   0.391   5.868   1.297 -0.8027 -0.6857  1.4454
   55MOL   H27119819   0.546   5.922   1.360  1.0644 -0.7908 -0.1715
   55MOL   C27219820   0.631   5.444   1.427 -0.0533 -0.4387  0.3718
   55MOL   C27319821   0.603   5.407   1.578 -0.5309 -0.1622  0.3986
   55MOL   C27419822   0.529   5.272   1.583 -0.1474 -0.3059  0.4309
   55MOL   C27519823   0.616   5.148   1.556 -0.0797 -0.1633  0.0977
   55MOL   C27619824   0.585   5.087   1.417 -0.1312  0.2775 -0.4756
   55MOL   C27719825   0.589   5.039   1.664 -0.3353  0.3401  0.2486
   55MOL   H27819826   0.673   5.356   1.379 -1.2182 -0.2421 -1.0401
   55MOL   H27919827   0.707   5.522   1.427 -1.2969  0.7975  0.7906
   55MOL   H28019828   0.540   5.488   1.613 -0.5798  0.5790 -1.3240
   55MOL   H28119829   0.441   5.278   1.520 -0.6310 -0.1257  1.1186
   55MOL   H28219830   0.479   5.264   1.679 -0.1835  0.4598  0.4786
   55MOL   H28319831   0.722   5.173   1.560  0.3225 -1.7847 -0.1182
   55MOL   H28419832   0.482   5.058   1.400 -0.5646  1.6002 -0.1087
   55MOL   H28519833   0.615   5.155   1.338  1.1067 -1.3164 -1.4024
   55MOL   H28619834   0.641   4.994   1.407 -1.2142 -0.3251 -0.9283
   55MOL   H28719835   0.610   5.084   1.761 -0.9012  1.7827 -0.2885
   55MOL   H28819836   0.486   5.002   1.658 -0.5079  0.9601 -0.7018
   55MOL   H28919837   0.662   4.960   1.649 -1.2026 -0.5171  0.4274
   55MOL   C29019838   0.734   5.409   1.651 -0.4063 -0.2820  0.2931
   55MOL   C29119839   0.778   5.548   1.697  0.3808 -0.0703 -0.0457
   55MOL   C29219840   0.701   5.600   1.821 -0.1706  0.3931  0.0028
   55MOL   C29319841   0.725   5.538   1.963 -0.1602 -0.1923 -0.3459
   55MOL   C29419842   0.725   5.654   2.066  0.1411  0.4435  0.3467
   55MOL   C29519843   0.636   5.417   1.989  0.1376 -0.4821 -0.4070
   55MOL   H29619844   0.741   5.332   1.727 -0.3329 -0.2897  0.2788
   55MOL   H29719845   0.814   5.379   1.583 -0.4004 -0.5591  0.4215
   55MOL   H29819846   0.754   5.620   1.619  2.2214  0.2083 -0.3699
   55MOL   H29919847   0.593   5.607   1.806  0.1375  2.6430 -1.4228
   55MOL   H30019848   0.733   5.704   1.828 -1.4836  0.7635  0.5751
   55MOL   H30119849   0.832   5.517   1.964  0.4804  2.8259  0.4205
   55MOL   H30219850   0.805   5.721   2.035  2.4079 -2.9348 -1.3140
   55MOL   H30319851   0.756   5.614   2.162 -0.0838 -0.6391 -0.0225
   55MOL   H30419852   0.631   5.710   2.068 -1.1834 -1.7044 -0.0004
   55MOL   H30519853   0.649   5.337   1.916 -2.6601 -1.1128 -0.2910
   55MOL   H30619854   0.531   5.448   1.992  0.4799  1.2588 -3.5753
   55MOL   H30719855   0.665   5.371   2.084 -0.3648  1.3012  0.6392
   55MOL   C30819856   0.936   5.562   1.711 -0.5658 -0.6142  0.0024
   55MOL   C30919857   0.995   5.698   1.765  0.1871 -0.0520  0.0104
   55MOL   C31019858   1.134   5.675   1.822  0.0185  0.3545 -0.5223
   55MOL   C31119859   1.126   5.624   1.970  0.6027 -0.0897  0.2579
   55MOL   C31219860   1.261   5.560   2.013 -0.1780 -0.9343 -1.2972
   55MOL   C31319861   1.091   5.732   2.070  0.0994  0.0055 -0.7448
   55MOL   H31419862   0.975   5.484   1.776  0.8785 -1.1413 -1.4540
   55MOL   H31519863   0.989   5.553   1.616  0.5948  2.8340  0.2457
   55MOL   H31619864   0.940   5.725   1.855  0.8883 -3.4641  1.5452
   55MOL   H31719865   1.192   5.768   1.816  2.1112 -0.7364  1.6908
   55MOL   H31819866   1.199   5.611   1.762  0.2584 -0.0739  0.1832
   55MOL   H31919867   1.059   5.539   1.978 -2.0578  1.5215 -3.5195
   55MOL   H32019868   1.252   5.520   2.114 -1.4109  2.2501 -0.1033
   55MOL   H32119869   1.343   5.632   2.021 -1.4613  0.2480  1.8812
   55MOL   H32219870   1.306   5.485   1.947 -0.8004 -2.5521  0.0909
   55MOL   H32319871   1.076   5.686   2.168  0.3753  1.4137 -0.0165
   55MOL   H32419872   1.178   5.793   2.096  0.0664  0.9830 -2.8183
   55MOL   H32519873   1.011   5.802   2.045 -0.6956 -0.4109  0.5825
   55MOL   C32619874   0.978   5.813   1.669  0.2897  0.0358  0.2578
   55MOL   C32719875   0.995   5.958   1.720  0.0444 -0.5625 -0.2048
   55MOL   C32819876   0.867   5.999   1.803 -0.5388 -0.0636 -0.3112
   55MOL   C32919877   0.882   6.133   1.873 -0.3354  0.5276 -0.8142
   55MOL   C33019878   0.799   6.252   1.808 -0.3623  0.1721 -0.3418
   55MOL   C33119879   0.849   6.128   2.021  0.0000  0.5203  0.2792
   55MOL   H33219880   0.875   5.807   1.634 -0.9516  1.2076  3.4528
   55MOL   H33319881   1.047   5.800   1.587  0.6476 -1.1713  0.7476
   55MOL   H33419882   1.072   5.961   1.797  0.5261 -1.4398 -0.6493
   55MOL   H33519883   0.777   6.001   1.741 -1.3460 -0.3009  0.8359
   55MOL   H33619884   0.854   5.915   1.870 -0.2753  0.7118  0.7210
   55MOL   H33719885   0.986   6.164   1.866 -0.2032 -0.0457 -1.5081
   55MOL   H33819886   0.827   6.352   1.842  2.5064 -0.5161 -0.5891
   55MOL   H33919887   0.691   6.242   1.821 -0.8780  1.5592 -3.1256
   55MOL   H34019888   0.817   6.251   1.701 -2.9928 -0.2102 -0.8109
   55MOL   H34119889   0.857   6.225   2.070 -3.5323 -0.0270  2.0655
   55MOL   H34219890   0.745   6.098   2.028  0.1113 -0.9984 -3.1857
   55MOL   H34319891   0.905   6.046   2.066 -0.6796 -0.5198 -0.7377
   55MOL   C34419892   1.036   6.052   1.606  0.2628  0.2472  0.1324
   55MOL   C34519893   1.174   6.040   1.553 -0.3760  0.0406 -0.4248
   55MOL   C34619894   1.285   6.106   1.644  0.6279  0.2120  0.5957
   55MOL   C34719895   1.429   6.121   1.584 -0.1001 -0.3379 -0.0086
   55MOL   C34819896   1.492   5.987   1.530 -0.2194  0.7189 -0.0360
   55MOL   C34919897   1.523   6.172   1.695 -0.8102 -0.2058 -0.1176
   55MOL   H35019898   1.029   6.158   1.630  1.0114 -0.3793  3.3653
   55MOL   H35119899   0.969   6.045   1.520  0.2732 -0.4309  0.1757
   55MOL   H35219900   1.166   6.097   1.460  0.7062  0.6265 -0.1639
   55MOL   H35319901   1.245   6.201   1.679 -0.0664  0.1724 -0.0709
   55MOL   H35419902   1.290   6.036   1.728 -0.5588  0.8220  1.1870
   55MOL   H35519903   1.427   6.180   1.492  0.2045  0.9440  0.8106
   55MOL   H35619904   1.439   5.957   1.439 -1.3075  1.7943  0.2335
   55MOL   H35719905   1.599   5.992   1.512 -0.2511 -0.5945 -0.6363
   55MOL   H35819906   1.481   5.908   1.604 -2.5599  2.8345  1.9652
   55MOL   H35919907   1.489   6.256   1.755  0.3121 -0.1234  0.4069
   55MOL   H36019908   1.620   6.193   1.652 -0.1663  1.0261  1.8754
   55MOL   H36119909   1.538   6.087   1.762 -2.0962 -0.0038  0.4581
   55MOL   H36219910   1.203   5.937   1.534 -0.1027 -0.0051  0.2246
   56MOL     C119911   7.364   3.149   4.182 -0.4817  0.2546 -0.4027
   56MOL     C219912   7.251   3.045   4.215 -0.3471 -0.3267 -0.3456
   56MOL     C319913   7.118   3.075   4.140 -0.2267  0.1778  0.1289
   56MOL     C419914   7.105   3.041   3.997  0.4522  0.2928 -0.5618
   56MOL     C519915   6.982   3.103   3.940 -0.9386  0.5381 -0.0972
   56MOL     C619916   7.092   2.888   3.965  0.3260  0.2562 -0.5662
   56MOL     H719917   7.464   3.117   4.214  0.4273  3.7075  0.4662
   56MOL     H819918   7.368   3.172   4.076  1.6652 -0.1783 -0.4451
   56MOL     H919919   7.288   2.946   4.190  0.8349  0.2926 -1.1043
   56MOL    H1019920   7.037   3.022   4.192  0.1461  0.7532  1.3190
   56MOL    H1119921   7.098   3.179   4.166  1.9236  0.5067  0.5464
   56MOL    H1219922   7.193   3.082   3.946  1.5030 -1.4261 -0.1707
   56MOL    H1319923   6.984   3.212   3.946  2.0044  0.4507  1.0505
   56MOL    H1419924   6.972   3.087   3.833  1.6344  3.5487 -0.8366
   56MOL    H1519925   6.892   3.079   3.997 -1.0507 -1.0968 -0.9204
   56MOL    H1619926   7.141   2.820   4.034 -0.7254 -1.0533 -1.0902
   56MOL    H1719927   7.126   2.878   3.861  2.0108 -0.8171  0.0536
   56MOL    H1819928   6.989   2.853   3.974  1.2345 -2.8189 -1.3186
   56MOL    H1919929   7.333   3.243   4.228  1.6101  0.3368  0.9222
   56MOL    C2019930   7.215   3.049   4.371  0.0130  0.7080 -0.4670
   56MOL    C2119931   7.321   3.068   4.481 -0.5607 -0.8409 -0.6010
   56MOL    C2219932   7.258   3.087   4.620 -0.1350  0.0543 -0.2437
   56MOL    C2319933   7.186   3.221   4.643 -0.3317 -1.2491 -0.1148
   56MOL    C2419934   7.087   3.203   4.767  0.2279  0.6631  0.3281
   56MOL    C2519935   7.285   3.329   4.670 -0.2372  0.0461 -0.4122
   56MOL    H2619936   7.136   3.123   4.380 -0.9565 -0.6713  2.9118
   56MOL    H2719937   7.165   2.957   4.402  1.0120 -0.8550 -3.2680
   56MOL    H2819938   7.372   3.161   4.456  1.1587 -1.6523 -0.2021
   56MOL    H2919939   7.346   3.068   4.683 -0.4253 -2.6762 -0.5891
   56MOL    H3019940   7.191   3.001   4.628 -1.2621  0.8756 -0.8215
   56MOL    H3119941   7.141   3.253   4.549  1.8149  0.7973 -0.4987
   56MOL    H3219942   7.018   3.120   4.757  0.0943  0.3793  3.2298
   56MOL    H3319943   7.037   3.300   4.769  1.1656  1.1156  2.0346
   56MOL    H3419944   7.147   3.181   4.855  1.5809  1.0635 -0.4792
   56MOL    H3519945   7.229   3.419   4.693  0.2865  0.4645 -0.7814
   56MOL    H3619946   7.346   3.302   4.757  0.1550  0.6205 -0.5095
   56MOL    H3719947   7.350   3.353   4.586  2.0535  1.2027  1.6418
   56MOL    C3819948   7.435   2.958   4.479 -0.7842  0.5898 -0.1643
   56MOL    C3919949   7.566   2.974   4.555  0.6818  1.1140  0.5654
   56MOL    C4019950   7.645   3.099   4.500  0.0963  0.5692  0.3982
   56MOL    C4119951   7.747   3.168   4.605 -0.0306 -0.5221 -0.0138
   56MOL    C4219952   7.663   3.229   4.716  0.2774 -1.2748 -0.1572
   56MOL    C4319953   0.083   3.271   4.533 -0.3122 -0.6741  0.1387
   56MOL    H4419954   7.448   2.932   4.375 -0.9131  0.4125 -0.1354
   56MOL    H4519955   7.383   2.872   4.522  0.5171  0.5809  1.4369
   56MOL    H4619956   7.541   2.984   4.661 -0.1532  2.5397  0.2365
   56MOL    H4719957   7.573   3.173   4.465  1.0542  0.9776 -0.7604
   56MOL    H4819958   7.709   3.074   4.415 -0.3529  0.7630  0.0012
   56MOL    H4919959   0.059   3.090   4.647 -3.0471 -1.9776  2.1361
   56MOL    H5019960   7.584   3.296   4.682 -0.1191 -0.4521  2.3129
   56MOL    H5119961   7.626   3.154   4.786  0.5351  0.7022  2.1638
   56MOL    H5219962   7.730   3.291   4.774 -1.0968 -0.4521  0.5804
   56MOL    H5319963   0.129   3.347   4.597  0.1098 -0.0342 -0.9115
   56MOL    H5419964   0.038   3.331   4.454 -0.7262  0.1554  0.9800
   56MOL    H5519965   0.166   3.210   4.500  1.8174  1.3274  1.6316
   56MOL    C5619966   7.659   2.847   4.546 -0.0353  0.1871 -0.4929
   56MOL    C5719967   7.607   2.712   4.602  0.3456  0.5179 -0.1780
   56MOL    C5819968   7.638   2.702   4.754 -0.4094 -0.2929 -0.2647
   56MOL    C5919969   7.534   2.628   4.832  0.4909  0.5537  0.0574
   56MOL    C6019970   7.410   2.710   4.855  0.1308  0.1730 -0.0575
   56MOL    C6119971   7.600   2.595   4.969 -0.6280 -0.0302  0.1086
   56MOL    H6219972   0.006   2.873   4.584  0.2359 -2.4064  0.7107
   56MOL    H6319973   7.672   2.824   4.441 -2.3907 -1.5384 -0.4422
   56MOL    H6419974   7.499   2.711   4.585  0.3080 -0.1863  0.0968
   56MOL    H6519975   7.739   2.666   4.774 -0.2172 -0.1518 -0.9560
   56MOL    H6619976   7.639   2.804   4.791  2.2100  0.2436 -1.6817
   56MOL    H6719977   7.509   2.537   4.778 -0.5551  1.0694 -0.3337
   56MOL    H6819978   7.428   2.815   4.880  1.1683 -0.4312  1.7804
   56MOL    H6919979   7.345   2.660   4.926  1.6033 -0.4931  0.8453
   56MOL    H7019980   7.347   2.714   4.766 -1.7736  0.7728  1.3082
   56MOL    H7119981   7.681   2.523   4.965 -0.4214  0.1556  0.9340
   56MOL    H7219982   7.528   2.556   5.041 -0.7843  2.4330  1.3514
   56MOL    H7319983   7.647   2.681   5.018  0.1266 -0.5677  0.3295
   56MOL    C7419984   7.673   2.593   4.524  0.0111  0.1945 -0.2794
   56MOL    C7519985   7.618   2.560   4.382 -0.0057  0.6010 -0.4170
   56MOL    C7619986   7.492   2.468   4.382 -0.2352 -0.0122  0.5432
   56MOL    C7719987   7.356   2.532   4.417  0.1474 -0.0488  0.4464
   56MOL    C7819988   7.255   2.417   4.424  0.8805 -0.0111 -0.8588
   56MOL    C7919989   7.313   2.637   4.312  0.0432  0.5987 -0.6190
   56MOL    H8019990   7.663   2.494   4.570 -0.1872  0.6378  0.6249
   56MOL    H8119991   0.025   2.622   4.518 -0.4623  1.8115 -1.0155
   56MOL    H8219992   7.597   2.655   4.334 -0.6527  0.4500 -0.4335
   56MOL    H8319993   7.477   2.426   4.282 -1.5142 -1.1308  1.1992
   56MOL    H8419994   7.511   2.379   4.441 -0.0301  0.2425  0.8597
   56MOL    H8519995   7.357   2.567   4.521  1.7166  1.8617 -0.1874
   56MOL    H8619996   7.154   2.456   4.410 -0.6451 -3.8859 -1.2744
   56MOL    H8719997   7.266   2.352   4.510 -1.7153  0.8163  0.1750
   56MOL    H8819998   7.245   2.348   4.340  0.8560  0.4023 -1.2020
   56MOL    H8919999   7.314   2.599   4.210  0.0610 -0.0901 -0.3632
   56MOL    H9020000   7.213   2.680   4.322  0.0819  0.6560 -0.4648
   56MOL    H9120001   7.386   2.718   4.314 -0.6103  1.3676 -4.2757
   56MOL    C9220002   7.729   2.495   4.291 -0.2499 -0.9988 -0.1959
   56MOL    C9320003   7.713   2.536   4.140  0.1870 -0.3898 -0.5629
   56MOL    C9420004   7.716   2.687   4.108  0.2809 -0.3447  0.7633
   56MOL    C9520005   7.594   2.761   4.051  0.2780  0.2438  0.5030
   56MOL    C9620006   7.617   2.918   4.056  0.2746  0.5274 -0.3265
   56MOL    C9720007   7.555   2.716   3.907  0.0468 -0.1264  0.2268
   56MOL    H9820008   0.081   2.513   4.316 -0.9027  0.9447  1.2349
   56MOL    H9920009   7.741   2.388   4.310  2.1912 -0.6163  0.5040
   56MOL   H10020010   7.612   2.514   4.105 -0.4275  3.1630 -1.2143
   56MOL   H10120011   0.043   2.718   4.041 -1.0783  0.5575 -0.4626
   56MOL   H10220012   7.738   2.751   4.194 -3.2112  0.9730  0.7536
   56MOL   H10320013   7.511   2.735   4.116 -0.1461 -3.1005 -1.2856
   56MOL   H10420014   7.541   2.973   4.001  0.3386  0.7243 -0.2148
   56MOL   H10520015   7.714   2.941   4.013 -0.8326  1.0004 -2.6415
   56MOL   H10620016   7.630   2.954   4.158  0.4227  2.4673 -1.0208
   56MOL   H10720017   7.534   2.609   3.910 -1.2301  0.0915 -0.6404
   56MOL   H10820018   7.635   2.737   3.836 -0.2052 -0.8575 -0.2735
   56MOL   H10920019   7.463   2.768   3.879  0.9919  2.6072  1.9361
   56MOL   C11020020   0.064   2.471   4.057 -0.5888  0.4875 -0.5974
   56MOL   C11120021   0.059   2.319   4.042 -0.5227 -0.2295  0.5706
   56MOL   C11220022   7.689   2.266   3.970 -0.1987  0.3258 -0.0848
   56MOL   C11320023   7.573   2.212   4.060  0.0894  0.1100 -0.2266
   56MOL   C11420024   7.586   2.066   4.097  0.5113 -0.2276 -0.1518
   56MOL   C11520025   7.432   2.220   3.981  0.3740  0.2273  0.1741
   56MOL   H11620026   0.164   2.500   4.091 -0.0819 -2.9830  1.0650
   56MOL   H11720027   0.057   2.521   3.961  0.2357 -0.3279 -1.0914
   56MOL   H11820028   0.064   2.276   4.142  1.2858 -1.1023  0.1383
   56MOL   H11920029   7.698   2.183   3.900 -0.9352  0.3747 -0.2367
   56MOL   H12020030   7.649   2.340   3.900  1.5238 -1.0648 -2.5827
   56MOL   H12120031   7.566   2.279   4.146  0.9651 -1.4191  1.0491
   56MOL   H12220032   7.678   2.046   4.152 -0.8349 -2.6327  1.2541
   56MOL   H12320033   7.591   2.009   4.004  3.1353  2.1514 -1.5558
   56MOL   H12420034   7.499   2.036   4.154  0.4180  0.1541 -0.0875
   56MOL   H12520035   7.418   2.327   3.967  0.5590  0.1661 -0.4639
   56MOL   H12620036   7.347   2.180   4.037  0.2981  1.8420  1.2492
   56MOL   H12720037   7.441   2.171   3.884  1.7842 -0.6776  0.7539
   56MOL   C12820038   0.182   2.273   3.962  0.0159 -0.2236 -0.7214
   56MOL   C12920039   0.234   2.129   4.000  0.4171  0.8894 -0.1275
   56MOL   C13020040   0.318   2.149   4.131 -0.0787  0.6168 -0.4472
   56MOL   C13120041   0.364   2.027   4.205 -0.3799 -0.0776 -0.0755
   56MOL   C13220042   0.460   2.052   4.322 -0.0472  0.8296  0.1328
   56MOL   C13320043   0.255   1.932   4.257  0.1157 -0.6047 -0.1575
   56MOL   H13420044   0.267   2.339   3.981  0.9633 -1.7500  0.5019
   56MOL   H13520045   0.159   2.280   3.855 -1.0035 -0.4871 -0.5205
   56MOL   H13620046   0.154   2.056   4.012  1.6976 -0.7275 -1.3110
   56MOL   H13720047   0.402   2.216   4.115  0.9048 -0.4324  0.1992
   56MOL   H13820048   0.242   2.189   4.198 -1.7991  0.1653 -2.1135
   56MOL   H13920049   0.417   1.967   4.132  0.5774 -1.0783  1.4078
   56MOL   H14020050   0.493   1.961   4.372 -0.8866  0.8843  0.7918
   56MOL   H14120051   0.411   2.117   4.394 -0.5131  0.6332  0.0010
   56MOL   H14220052   0.545   2.116   4.301  0.5039  0.1720  0.3231
   56MOL   H14320053   0.207   1.954   4.352  2.9443  0.0842  1.1637
   56MOL   H14420054   0.181   1.921   4.178  0.0974 -1.5232 -0.0240
   56MOL   H14520055   0.311   1.839   4.266  1.7046  0.3859  0.3471
   56MOL   C14620056   0.313   2.066   3.886 -0.4837  0.0313 -0.8444
   56MOL   C14720057   0.235   2.013   3.765  0.0384  0.3018  0.6306
   56MOL   C14820058   0.150   1.882   3.791  0.5499 -0.0450 -0.5496
   56MOL   C14920059   0.048   1.844   3.677 -0.0481  0.8236 -0.3879
   56MOL   C15020060   7.728   1.707   3.694 -0.0581  1.0984 -0.2434
   56MOL   C15120061   7.692   1.949   3.661  0.6801  0.1051 -0.1293
   56MOL   H15220062   0.367   1.979   3.923 -1.9042 -0.7497 -0.5425
   56MOL   H15320063   0.383   2.148   3.871  1.1470 -1.0410  0.6859
   56MOL   H15420064   0.169   2.095   3.737  0.8002  0.5901 -0.3657
   56MOL   H15520065   0.220   1.804   3.821  0.1806  0.4520  1.7314
   56MOL   H15620066   0.095   1.878   3.885  0.8161  1.0383 -0.3386
   56MOL   H15720067   0.102   1.837   3.583 -1.0956 -0.3457 -0.9201
   56MOL   H15820068   0.058   1.635   3.693 -1.4952 -0.5720 -2.4958
   56MOL   H15920069   7.659   1.673   3.617  0.6395 -0.2483 -0.3012
   56MOL   H16020070   7.678   1.694   3.790  0.5540 -0.5786 -0.1373
   56MOL   H16120071   7.637   1.928   3.569  2.0797 -0.0958 -0.9484
   56MOL   H16220072   7.728   2.050   3.640  0.0064 -0.2357 -3.1424
   56MOL   H16320073   7.626   1.955   3.747  1.1785  0.1407  0.2504
   56MOL   C16420074   0.331   1.966   3.646 -0.0290 -0.4451 -0.2387
   56MOL   C16520075   0.427   2.087   3.600 -0.0174 -0.4520 -0.7631
   56MOL   C16620076   0.530   2.019   3.508 -0.5109 -0.7515 -0.5615
   56MOL   C16720077   0.673   2.017   3.560  0.9256  0.0977  0.5514
   56MOL   C16820078   0.704   1.909   3.669  0.4953 -0.7351 -0.3487
   56MOL   C16920079   0.763   1.980   3.441 -0.1135  0.1850 -0.0981
   56MOL   H17020080   0.384   1.878   3.684 -0.3887 -1.3879 -1.8735
   56MOL   H17120081   0.286   1.940   3.550 -0.6795 -0.0197 -0.0493
   56MOL   H17220082   0.485   2.133   3.680  1.5202 -0.0577 -2.0926
   56MOL   H17320083   0.492   1.922   3.476 -0.5814 -0.4775 -1.3145
   56MOL   H17420084   0.532   2.071   3.412  0.8928 -1.0699 -0.7125
   56MOL   H17520085   0.709   2.112   3.600  0.7091  0.6309 -0.5317
   56MOL   H17620086   0.627   1.917   3.746 -0.2634 -3.6843 -0.7316
   56MOL   H17720087   0.800   1.936   3.711  0.2282 -0.8361  0.3301
   56MOL   H17820088   0.711   1.806   3.635  0.3275 -0.9773  0.3410
   56MOL   H17920089   0.744   2.036   3.350  0.3618 -0.4881 -0.6099
   56MOL   H18020090   0.743   1.880   3.404  1.9331 -0.3446  0.2044
   56MOL   H18120091   0.868   1.962   3.462 -0.7365 -0.2639  2.9094
   56MOL   C18220092   0.348   2.201   3.528 -0.2467 -0.3932 -0.3581
   56MOL   C18320093   0.421   2.333   3.481  0.8458 -0.5560  0.9286
   56MOL   C18420094   0.337   2.409   3.378 -0.0867  0.3059 -0.5296
   56MOL   C18520095   0.338   2.359   3.226 -0.8216  0.2905  0.2764
   56MOL   C18620096   0.215   2.406   3.155  0.2283  0.3851 -0.1536
   56MOL   C18720097   0.467   2.382   3.148 -0.4565 -0.1167 -0.5094
   56MOL   H18820098   0.252   2.229   3.571  0.1471 -0.4785  0.5748
   56MOL   H18920099   0.317   2.150   3.437 -0.0622 -1.4861  0.1829
   56MOL   H19020100   0.502   2.282   3.429  0.4596 -0.5951  0.3674
   56MOL   H19120101   0.373   2.511   3.363 -0.6926  1.1921  3.3440
   56MOL   H19220102   0.239   2.428   3.422 -0.7582 -0.0007 -1.8699
   56MOL   H19320103   0.331   2.250   3.222 -0.7006  0.3204 -0.8899
   56MOL   H19420104   0.131   2.375   3.218 -0.1973  1.7065 -0.0484
   56MOL   H19520105   0.209   2.361   3.056 -2.0363  1.5345 -0.5744
   56MOL   H19620106   0.201   2.514   3.153 -1.1772  0.1925 -2.2011
   56MOL   H19720107   0.474   2.489   3.129  1.4025  0.2401  2.0369
   56MOL   H19820108   0.456   2.344   3.046  0.2140 -3.7150  0.6915
   56MOL   H19920109   0.552   2.335   3.196  1.0970  1.6707 -1.4434
   56MOL   C20020110   0.465   2.404   3.609 -0.4730  0.4238 -0.3813
   56MOL   C20120111   0.576   2.516   3.585  0.1571  0.0693 -0.0658
   56MOL   C20220112   0.713   2.441   3.558  0.5215 -0.1451  0.9191
   56MOL   C20320113   0.838   2.530   3.523 -0.5406 -0.5229  0.6057
   56MOL   C20420114   0.975   2.444   3.539 -0.0275 -0.1145 -0.0050
   56MOL   C20520115   0.825   2.595   3.382 -0.3808  0.6006 -0.5645
   56MOL   H20620116   0.500   2.341   3.691  2.5601  0.6180 -1.4895
   56MOL   H20720117   0.376   2.449   3.654 -0.0813  0.6786  0.1387
   56MOL   H20820118   0.557   2.570   3.492  2.1759 -1.3039 -1.2914
   56MOL   H20920119   0.723   2.374   3.643  2.4606 -2.1078 -0.7959
   56MOL   H21020120   0.691   2.381   3.470 -2.1608 -0.1500  1.5381
   56MOL   H21120121   0.846   2.614   3.592  0.0775 -0.1293  0.0560
   56MOL   H21220122   0.995   2.404   3.639  2.1902  0.6674 -0.1119
   56MOL   H21320123   1.064   2.500   3.511  0.3247 -0.6700 -0.0052
   56MOL   H21420124   0.970   2.362   3.468  2.8747  1.4977 -2.1955
   56MOL   H21520125   0.782   2.522   3.313 -1.9290  0.7830  0.1869
   56MOL   H21620126   0.926   2.627   3.354  0.3556 -1.5103 -0.4166
   56MOL   H21720127   0.765   2.685   3.380 -0.5991  0.4561 -0.4604
   56MOL   C21820128   0.595   2.612   3.702 -0.2751 -0.0750  0.2029
   56MOL   C21920129   0.470   2.694   3.746 -0.4423  1.1133 -0.5968
   56MOL   C22020130   0.397   2.767   3.633  0.0240  0.1022 -0.2774
   56MOL   C22120131   0.269   2.843   3.668  0.0464 -0.0730 -0.2760
   56MOL   C22220132   0.202   2.873   3.540 -0.0919  0.0100 -0.4748
   56MOL   C22320133   0.174   2.767   3.761 -0.2303  0.3511 -0.4895
   56MOL   H22420134   0.626   2.550   3.786 -2.3423  0.0872  1.1269
   56MOL   H22520135   0.676   2.679   3.675  0.4137 -1.2009 -0.5742
   56MOL   H22620136   0.399   2.620   3.782 -0.3537  0.4786 -1.6936
   56MOL   H22720137   0.469   2.842   3.600 -2.3078  2.2067 -0.7800
   56MOL   H22820138   0.375   2.704   3.547 -1.9290  1.6885 -0.9884
   56MOL   H22920139   0.299   2.933   3.721 -0.2635 -0.3154  0.3116
   56MOL   H23020140   0.280   2.916   3.477  0.6084  0.9591  1.0247
   56MOL   H23120141   0.167   2.787   3.482 -0.4900  1.3708 -2.3170
   56MOL   H23220142   0.125   2.951   3.536 -1.7032 -1.4342  1.3585
   56MOL   H23320143   0.222   2.765   3.859  0.9910  0.8897 -1.0601
   56MOL   H23420144   0.079   2.818   3.773 -0.7687 -0.7962  0.3029
   56MOL   H23520145   0.146   2.668   3.725 -0.6201  0.7531 -1.3008
   56MOL   C23620146   0.509   2.793   3.857 -0.4649 -0.5636  0.6157
   56MOL   C23720147   0.576   2.747   3.989  0.4537 -0.3938  0.6543
   56MOL   C23820148   0.469   2.702   4.093 -0.3769 -0.0835 -0.5429
   56MOL   C23920149   0.514   2.628   4.220  0.1735 -0.2028 -0.1535
   56MOL   C24020150   0.429   2.656   4.345 -0.4865 -0.0623  0.1706
   56MOL   C24120151   0.516   2.477   4.199 -0.1316 -0.0778 -0.0955
   56MOL   H24220152   0.429   2.864   3.878 -1.2188 -0.9135 -0.9779
   56MOL   H24320153   0.589   2.857   3.820  1.5178 -3.3992 -0.0776
   56MOL   H24420154   0.639   2.662   3.964  0.0604  0.0127 -1.9293
   56MOL   H24520155   0.389   2.649   4.041 -0.0798 -1.8263  0.7508
   56MOL   H24620156   0.419   2.793   4.128  0.3807  0.1659 -0.0991
   56MOL   H24720157   0.613   2.664   4.247  0.4190 -0.9421 -0.0541
   56MOL   H24820158   0.471   2.599   4.428 -0.3391 -0.3597 -0.1069
   56MOL   H24920159   0.323   2.649   4.325 -0.2820  1.2533 -1.4398
   56MOL   H25020160   0.438   2.760   4.376 -3.7913  0.0591  0.9211
   56MOL   H25120161   0.419   2.431   4.221  0.4694 -2.4138 -2.1117
   56MOL   H25220162   0.593   2.434   4.262  0.3813 -0.7076 -1.1344
   56MOL   H25320163   0.550   2.461   4.096 -1.4428  1.1514 -0.7460
   56MOL   C25420164   0.649   2.869   4.053 -0.2155 -0.3308 -0.1475
   56MOL   C25520165   0.792   2.896   4.000 -0.1720  0.1739 -0.4940
   56MOL   C25620166   0.865   3.024   4.048 -0.0759 -0.4116 -0.3966
   56MOL   C25720167   0.810   3.154   3.991 -0.7773  0.0525  0.2145
   56MOL   C25820168   0.785   3.158   3.840  0.6804  0.3785  0.1177
   56MOL   C25920169   0.926   3.255   4.023 -0.2438  0.5173 -0.1595
   56MOL   H26020170   0.581   2.954   4.042  0.4857  0.4376  1.2512
   56MOL   H26120171   0.654   2.855   4.161 -0.8438  0.4466 -0.0119
   56MOL   H26220172   0.793   2.888   3.892  0.8018 -2.4071 -0.3396
   56MOL   H26320173   0.973   3.013   4.035 -0.1537 -2.1017  0.1776
   56MOL   H26420174   0.864   3.016   4.157 -1.6280  0.5982 -0.3138
   56MOL   H26520175   0.720   3.180   4.047  1.0584  0.4710  3.1023
   56MOL   H26620176   0.870   3.124   3.782  0.3915  0.5907 -0.4331
   56MOL   H26720177   0.762   3.258   3.802 -0.7305 -0.0274 -0.1209
   56MOL   H26820178   0.696   3.101   3.817  0.4027  1.6042 -2.0017
   56MOL   H26920179   0.914   3.349   3.969 -2.2121  0.1661 -0.3455
   56MOL   H27020180   0.921   3.273   4.131 -0.5400  0.5377 -0.1771
   56MOL   H27120181   1.023   3.214   3.993 -1.2578 -1.9858 -0.0828
   56MOL   C27220182   0.890   2.783   4.052 -0.9587  0.1128  0.1408
   56MOL   C27320183   0.929   2.678   3.951  0.4963  0.0735  0.3508
   56MOL   C27420184   1.021   2.721   3.827  0.4670 -0.2447 -0.4135
   56MOL   C27520185   1.158   2.793   3.857  0.4127  0.0885  0.8306
   56MOL   C27620186   1.190   2.885   3.740 -0.0107 -0.3990 -0.6265
   56MOL   C27720187   1.280   2.712   3.889 -0.4207 -0.1996  0.6419
   56MOL   H27820188   0.983   2.832   4.080 -1.0406  1.2290 -1.4926
   56MOL   H27920189   0.854   2.738   4.144  0.2991  1.3050  1.2359
   56MOL   H28020190   0.835   2.642   3.910  0.0586 -0.9282  2.2194
   56MOL   H28120191   0.972   2.792   3.760 -1.0713  2.1743  3.1197
   56MOL   H28220192   1.047   2.642   3.756  0.4537 -0.4917 -0.1438
   56MOL   H28320193   1.137   2.854   3.945 -1.1977  0.9126 -0.1058
   56MOL   H28420194   1.108   2.948   3.705 -0.7775 -0.1571  1.5578
   56MOL   H28520195   1.270   2.953   3.768 -0.5846 -0.1731  0.5057
   56MOL   H28620196   1.208   2.838   3.643 -0.3994  0.9026 -1.3525
   56MOL   H28720197   1.361   2.776   3.923  0.8114 -0.7669 -1.1803
   56MOL   H28820198   1.269   2.640   3.970 -0.4688  1.9412  2.5760
   56MOL   H28920199   1.323   2.659   3.804  1.0222 -0.0521  1.2678
   56MOL   C29020200   1.002   2.563   4.022 -0.1319 -0.6690 -0.1901
   56MOL   C29120201   0.908   2.459   4.096 -0.5789  0.2972 -0.2399
   56MOL   C29220202   0.857   2.353   3.992 -0.0514 -0.4345 -0.5756
   56MOL   C29320203   0.763   2.251   4.059 -0.3286  1.1718  0.3284
   56MOL   C29420204   0.648   2.217   3.965 -0.6211  0.1720  0.3695
   56MOL   C29520205   0.842   2.120   4.096  0.3026 -0.8341  0.3302
   56MOL   H29620206   1.081   2.516   3.964  1.5122  1.8867 -0.1238
   56MOL   H29720207   1.064   2.626   4.085 -0.5238  0.0210 -0.4823
   56MOL   H29820208   0.817   2.504   4.137  0.2715  1.0153  0.8757
   56MOL   H29920209   0.937   2.292   3.950 -0.7062 -1.4141 -0.4063
   56MOL   H30020210   0.821   2.405   3.903 -0.9653 -1.1549 -0.6344
   56MOL   H30120211   0.731   2.292   4.155 -0.3614 -1.1169  1.3434
   56MOL   H30220212   0.592   2.309   3.951  0.2882  0.4335 -1.8506
   56MOL   H30320213   0.588   2.131   3.995 -1.1439 -0.2856 -1.8386
   56MOL   H30420214   0.690   2.188   3.868  0.1003  0.0714  0.7084
   56MOL   H30520215   0.871   2.074   4.001 -1.6395 -0.1757 -0.6012
   56MOL   H30620216   0.788   2.052   4.162 -1.1116 -0.7571 -0.7297
   56MOL   H30720217   0.937   2.146   4.143  1.0988 -1.7546 -0.7238
   56MOL   C30820218   0.984   2.404   4.220 -0.2272  0.3734  0.3669
   56MOL   C30920219   1.003   2.502   4.343  0.2744  0.3212 -0.7372
   56MOL   C31020220   0.872   2.524   4.428  0.9618  0.1924  0.8632
   56MOL   C31120221   0.868   2.657   4.515  0.3993  0.1883  0.4828
   56MOL   C31220222   0.861   2.788   4.445  0.1404  0.0512 -0.4698
   56MOL   C31320223   0.757   2.653   4.615  0.1810  0.2580 -0.0517
   56MOL   H31420224   0.933   2.315   4.256 -0.0254  0.3435  0.5805
   56MOL   H31520225   1.082   2.378   4.179 -1.3997  0.2059 -2.3996
   56MOL   H31620226   1.022   2.601   4.300  0.7296  0.5432 -0.0468
   56MOL   H31720227   0.857   2.441   4.497 -1.0258 -1.0328 -0.9812
   56MOL   H31820228   0.787   2.539   4.361  0.8452  2.3487  1.4572
   56MOL   H31920229   0.953   2.664   4.582 -0.5468 -1.0194  1.8567
   56MOL   H32020230   0.932   2.801   4.363  0.4760  1.8187  0.0687
   56MOL   H32120231   0.893   2.871   4.509  2.9820  0.5989 -2.4830
   56MOL   H32220232   0.766   2.812   4.396  0.3380 -0.2917 -1.0196
   56MOL   H32320233   0.664   2.691   4.574  0.5190 -1.5847 -2.6950
   56MOL   H32420234   0.734   2.555   4.657  1.2705 -0.1739 -0.4348
   56MOL   H32520235   0.774   2.707   4.708  0.4160 -1.1548  0.7360
   56MOL   C32620236   1.121   2.461   4.441 -0.3908 -0.6630  0.0379
   56MOL   C32720237   1.262   2.462   4.393  0.1015 -0.7675 -0.2046
   56MOL   C32820238   1.352   2.414   4.514 -0.1177  0.0480 -0.1352
   56MOL   C32920239   1.472   2.312   4.486  0.7780  0.7410 -0.3574
   56MOL   C33020240   1.563   2.292   4.614  0.0078 -0.0545  0.0433
   56MOL   C33120241   1.407   2.175   4.466  0.2408 -0.5589  0.0673
   56MOL   H33220242   1.080   2.360   4.448  1.4450 -1.3608  1.2482
   56MOL   H33320243   1.111   2.504   4.540 -0.0795  1.0320 -0.6582
   56MOL   H33420244   1.256   2.395   4.306 -0.5773  1.1714 -1.6885
   56MOL   H33520245   1.398   2.499   4.563 -1.6881  1.5652 -1.2154
   56MOL   H33620246   1.287   2.372   4.591  1.6333  0.4805  1.6307
   56MOL   H33720247   1.530   2.340   4.399 -1.0424 -1.3274 -2.3130
   56MOL   H33820248   1.601   2.390   4.645  0.7280 -0.4267  0.3328
   56MOL   H33920249   1.646   2.229   4.583 -0.4841 -0.5941 -0.1991
   56MOL   H34020250   1.516   2.248   4.702  2.5721 -0.4121  1.2642
   56MOL   H34120251   1.344   2.158   4.553 -1.8333  0.2003 -1.2597
   56MOL   H34220252   1.350   2.175   4.373  0.7566 -0.5280 -0.2506
   56MOL   H34320253   1.477   2.091   4.457  0.8879 -0.1935  1.5974
   56MOL   C34420254   1.305   2.595   4.334  0.8946 -0.2711 -0.4103
   56MOL   C34520255   1.298   2.729   4.416  0.0522  0.6061 -0.4466
   56MOL   C34620256   1.393   2.845   4.364  0.4688  0.1818 -0.1953
   56MOL   C34720257   1.362   2.893   4.224  0.1965  0.3366 -0.0439
   56MOL   C34820258   1.480   2.966   4.155 -0.0475 -0.2443 -0.1490
   56MOL   C34920259   1.239   2.986   4.203  0.2630  0.0237 -0.1125
   56MOL   H35020260   1.246   2.618   4.246 -0.8171  0.0032  0.7862
   56MOL   H35120261   1.403   2.572   4.292  2.0992 -0.4776  2.3555
   56MOL   H35220262   1.318   2.705   4.520 -0.2313  1.6278 -0.1470
   56MOL   H35320263   1.402   2.934   4.427  2.1783  0.9581 -1.4806
   56MOL   H35420264   1.492   2.803   4.377  0.6493  0.8562  0.6896
   56MOL   H35520265   1.335   2.805   4.166  2.3910 -0.4138  0.0425
   56MOL   H35620266   1.569   2.905   4.168 -1.0011 -1.3997  1.1791
   56MOL   H35720267   1.468   2.974   4.047 -0.6799  0.2125 -0.0518
   56MOL   H35820268   1.491   3.066   4.196 -0.2076 -1.0212  1.8381
   56MOL   H35920269   1.154   2.940   4.253 -0.3931  1.3161 -0.0223
   56MOL   H36020270   1.215   3.004   4.098 -0.0468 -1.9047 -0.3960
   56MOL   H36120271   1.249   3.079   4.259  1.6691  0.3495 -0.8939
   56MOL   H36220272   1.199   2.774   4.416 -0.2579 -0.0652  0.4192
   57MOL     C120273   2.195   4.257   2.416  0.0275 -0.1166  0.1143
   57MOL     C220274   2.336   4.239   2.354  0.0213 -0.3400 -1.0950
   57MOL     C320275   2.438   4.337   2.422  0.4748 -0.4379 -0.0780
   57MOL     C420276   2.580   4.342   2.366 -1.0211  0.0930  0.0413
   57MOL     C520277   2.653   4.206   2.369  0.6738 -0.5692  0.1247
   57MOL     C620278   2.670   4.449   2.434 -0.2252  0.1303 -0.5198
   57MOL     H720279   2.199   4.253   2.524 -0.0872 -1.8993  0.0573
   57MOL     H820280   2.147   4.349   2.382 -2.7124 -2.0980 -1.6318
   57MOL     H920281   2.367   4.139   2.382 -0.1375 -0.7387 -2.3036
   57MOL    H1020282   2.391   4.435   2.414 -0.5154 -1.0556 -2.2326
   57MOL    H1120283   2.438   4.323   2.530 -1.8220  1.8120  0.2564
   57MOL    H1220284   2.578   4.375   2.262  0.1263 -1.4832 -0.4966
   57MOL    H1320285   2.756   4.223   2.338  0.9470  1.1214  1.8136
   57MOL    H1420286   2.656   4.156   2.466  0.6450  0.0750  0.4635
   57MOL    H1520287   2.614   4.141   2.291 -0.5028  1.2871 -0.8616
   57MOL    H1620288   2.619   4.545   2.436 -0.2902  0.1054 -1.0451
   57MOL    H1720289   2.758   4.475   2.376  0.0204  2.4484  0.8227
   57MOL    H1820290   2.685   4.428   2.540  1.4844 -0.3911 -0.8462
   57MOL    H1920291   2.122   4.178   2.401  3.1479 -3.0263 -0.3830
   57MOL    C2020292   2.340   4.253   2.203 -0.0004  0.5215 -0.2378
   57MOL    C2120293   2.258   4.149   2.122 -0.5295  0.2637 -0.5921
   57MOL    C2220294   2.236   4.210   1.983  0.4303  0.1632 -0.4856
   57MOL    C2320295   2.147   4.132   1.883 -0.5247  0.2714 -0.3040
   57MOL    C2420296   2.000   4.131   1.943 -0.0912  0.2957  0.6665
   57MOL    C2520297   2.163   4.183   1.736  0.2567 -0.6256 -0.4235
   57MOL    H2620298   2.292   4.349   2.183  0.0091  0.6903  0.5129
   57MOL    H2720299   2.439   4.254   2.157 -1.4605  1.0807 -3.5005
   57MOL    H2820300   2.160   4.149   2.170 -0.3317  0.0522 -0.1842
   57MOL    H2920301   2.337   4.215   1.942  1.1610 -0.5602  1.1912
   57MOL    H3020302   2.197   4.312   1.980  1.2151  0.4960  0.3194
   57MOL    H3120303   2.189   4.032   1.879  0.1123  0.5749 -1.8106
   57MOL    H3220304   1.997   4.081   2.040  1.1920  1.2400  1.2115
   57MOL    H3320305   1.928   4.088   1.873  0.7473  1.9186 -1.2544
   57MOL    H3420306   1.968   4.235   1.945 -1.9579 -0.2854  1.1907
   57MOL    H3520307   2.258   4.150   1.693  0.2263 -0.5010 -0.5875
   57MOL    H3620308   2.094   4.131   1.669 -0.6417 -0.6576  0.5170
   57MOL    H3720309   2.165   4.292   1.734 -1.8648 -0.5481  0.8977
   57MOL    C3820310   2.322   4.002   2.113 -0.1601 -0.1286  0.3307
   57MOL    C3920311   2.237   3.872   2.133 -0.0535 -0.1409 -0.1374
   57MOL    C4020312   2.194   3.857   2.282 -0.2988  0.5857 -0.6155
   57MOL    C4120313   2.080   3.763   2.318 -0.3020 -0.1913  0.2864
   57MOL    C4220314   1.941   3.808   2.269 -0.9206 -0.0794  0.0247
   57MOL    C4320315   2.085   3.734   2.469 -0.4247 -0.0082  0.3802
   57MOL    H4420316   2.392   3.994   2.195  1.0699 -2.7359 -0.9111
   57MOL    H4520317   2.378   3.994   2.020  0.6026  1.2641  0.6561
   57MOL    H4620318   2.151   3.883   2.068  1.6410 -2.3053 -2.8695
   57MOL    H4720319   2.165   3.959   2.306 -1.6855  0.9938 -3.6807
   57MOL    H4820320   2.286   3.849   2.339 -0.2081  1.4892 -0.6309
   57MOL    H4920321   2.104   3.671   2.265 -1.8887 -1.2159  1.3088
   57MOL    H5020322   1.916   3.899   2.323 -0.6490 -0.4844  0.8398
   57MOL    H5120323   1.933   3.825   2.161 -1.3146 -1.0105 -0.1030
   57MOL    H5220324   1.867   3.735   2.303  2.3900 -2.0739  3.2996
   57MOL    H5320325   2.172   3.679   2.504  0.1048  1.0304  0.7336
   57MOL    H5420326   1.990   3.687   2.493  1.3099 -2.6234  2.3949
   57MOL    H5520327   2.085   3.828   2.524  1.0696 -0.8833  1.9302
   57MOL    C5620328   2.310   3.748   2.075 -0.0108 -0.4477 -0.5568
   57MOL    C5720329   2.313   3.723   1.926 -0.5707  0.0410  0.0582
   57MOL    C5820330   2.172   3.691   1.862  0.5158  0.0776 -0.3071
   57MOL    C5920331   2.170   3.680   1.710  0.2246  0.6059  0.8737
   57MOL    C6020332   2.152   3.812   1.642 -0.0038 -0.5140 -0.0056
   57MOL    C6120333   2.065   3.581   1.665 -0.5400  0.2707 -0.0815
   57MOL    H6220334   2.290   3.656   2.129 -1.4187 -0.5816 -1.2809
   57MOL    H6320335   2.410   3.758   2.117  0.1404 -4.1394  0.1272
   57MOL    H6420336   2.357   3.813   1.882 -1.7697 -0.0844 -1.4218
   57MOL    H6520337   2.133   3.601   1.911  0.8445  0.5085  0.7707
   57MOL    H6620338   2.100   3.770   1.882 -0.7713 -0.8553 -1.1683
   57MOL    H6720339   2.261   3.632   1.673 -0.6073  0.6018 -1.2277
   57MOL    H6820340   2.218   3.893   1.676 -1.0097 -0.0049  0.7775
   57MOL    H6920341   2.051   3.851   1.652  0.2955  0.7691 -1.6776
   57MOL    H7020342   2.162   3.793   1.536 -1.2437 -1.2824  0.0099
   57MOL    H7120343   1.962   3.616   1.665 -0.9698 -0.9538 -0.7337
   57MOL    H7220344   2.080   3.488   1.721  3.0012  0.5000 -0.5094
   57MOL    H7320345   2.082   3.562   1.559 -1.0890  2.3271 -0.5510
   57MOL    C7420346   2.411   3.610   1.892  0.1520  0.0890 -0.1837
   57MOL    C7520347   2.560   3.616   1.946  0.3700 -0.2544  0.3503
   57MOL    C7620348   2.640   3.732   1.885 -0.2608  0.2420 -0.5550
   57MOL    C7720349   2.777   3.768   1.938  0.1440 -0.0747 -0.1976
   57MOL    C7820350   2.786   3.784   2.092  0.0455 -0.2377  0.4167
   57MOL    C7920351   2.825   3.894   1.877  0.2121  0.1905 -0.5583
   57MOL    H8020352   2.422   3.593   1.785  1.1408  0.1442 -0.0874
   57MOL    H8120353   2.369   3.514   1.923  0.7046 -0.2745 -0.5587
   57MOL    H8220354   2.567   3.640   2.052 -0.6660  0.5589  0.2480
   57MOL    H8320355   2.645   3.714   1.778 -0.5113 -1.0385 -0.3631
   57MOL    H8420356   2.583   3.824   1.895 -0.6501  0.1476 -1.8696
   57MOL    H8520357   2.849   3.692   1.907  0.2030 -0.4586  0.8583
   57MOL    H8620358   2.886   3.807   2.128 -0.9736 -0.0881  3.2815
   57MOL    H8720359   2.749   3.699   2.149 -1.1631  1.7228  2.6264
   57MOL    H8820360   2.734   3.876   2.119  0.1173 -0.0631 -0.0371
   57MOL    H8920361   2.921   3.919   1.923 -0.6615  1.5328  0.5550
   57MOL    H9020362   2.827   3.876   1.769  1.1342 -0.0684 -0.5057
   57MOL    H9120363   2.750   3.969   1.902  0.2250 -0.5768  1.8977
   57MOL    C9220364   2.637   3.488   1.894  0.3324  0.1707 -0.2663
   57MOL    C9320365   2.600   3.353   1.962 -0.6905 -0.5842  0.3299
   57MOL    C9420366   2.646   3.230   1.876  0.5986  0.2695 -0.6320
   57MOL    C9520367   2.538   3.200   1.763  0.0990 -0.0677 -0.5030
   57MOL    C9620368   2.606   3.152   1.632  0.4524  0.2012 -0.1555
   57MOL    C9720369   2.436   3.100   1.815 -0.4116 -0.2254 -0.3643
   57MOL    H9820370   2.621   3.470   1.787 -0.1685  1.3306 -0.3982
   57MOL    H9920371   2.744   3.503   1.907  0.4912 -0.9036 -0.3013
   57MOL   H10020372   2.492   3.346   1.972 -0.6568 -1.1971  0.2826
   57MOL   H10120373   2.669   3.145   1.940  1.2834 -0.6669 -2.1090
   57MOL   H10220374   2.733   3.272   1.826  0.9698  2.6730  1.9046
   57MOL   H10320375   2.485   3.289   1.731  0.1777 -0.0475 -0.5766
   57MOL   H10420376   2.630   3.046   1.640 -0.2019 -0.0160 -1.0126
   57MOL   H10520377   2.689   3.216   1.602 -0.2547  0.6233 -1.2177
   57MOL   H10620378   2.533   3.168   1.553  1.2887  2.3394 -0.5174
   57MOL   H10720379   2.495   3.029   1.873  1.8959  1.9130 -0.0386
   57MOL   H10820380   2.368   3.042   1.753 -0.2464  0.2909 -1.0285
   57MOL   H10920381   2.367   3.161   1.874  0.8045 -0.8104  1.7144
   57MOL   C11020382   2.666   3.348   2.104  0.2921 -0.2806  1.1211
   57MOL   C11120383   2.574   3.269   2.198  0.7452  0.2910 -0.3766
   57MOL   C11220384   2.658   3.195   2.310  0.1077  0.5361  0.6401
   57MOL   C11320385   2.751   3.076   2.268  0.1694 -0.3963  0.1550
   57MOL   C11420386   2.671   2.959   2.207  0.0266  0.2257  1.0119
   57MOL   C11520387   2.834   3.029   2.392 -0.4469  0.6737  0.4784
   57MOL   H11620388   2.682   3.451   2.135  0.1794  0.2989 -0.6726
   57MOL   H11720389   2.763   3.302   2.086 -0.1742 -0.4421 -1.1942
   57MOL   H11820390   2.536   3.188   2.136  0.2694 -1.2446  1.8624
   57MOL   H11920391   2.590   3.162   2.388 -0.9593 -2.3350 -1.4062
   57MOL   H12020392   2.724   3.271   2.353  0.3692  1.7514 -1.8290
   57MOL   H12120393   2.818   3.121   2.194  0.0796 -0.6244 -0.0624
   57MOL   H12220394   2.650   2.971   2.100  1.7265  0.2968  0.6710
   57MOL   H12320395   2.584   2.938   2.269 -0.8468 -0.7537 -0.5106
   57MOL   H12420396   2.729   2.868   2.192  0.1670  0.3326  0.9025
   57MOL   H12520397   2.906   2.958   2.351 -1.7656 -1.1530  1.2494
   57MOL   H12620398   2.771   2.977   2.464 -0.9262 -0.8539 -1.0126
   57MOL   H12720399   2.887   3.105   2.450 -1.5492  1.0873  0.9602
   57MOL   C12820400   2.459   3.362   2.249  0.5521  0.5889 -0.3368
   57MOL   C12920401   2.344   3.280   2.313 -0.4959  0.3886  1.2079
   57MOL   C13020402   2.256   3.202   2.214  0.2495  0.3619  0.5981
   57MOL   C13120403   2.157   3.108   2.274  0.1743  0.5365  0.8221
   57MOL   C13220404   2.037   3.088   2.184  0.1676  0.2106 -0.1249
   57MOL   C13320405   2.224   2.968   2.312  0.1049  0.5563 -0.1573
   57MOL   H13420406   2.410   3.430   2.179 -0.7395  0.4367  0.3949
   57MOL   H13520407   2.497   3.437   2.319 -0.0320  0.5460  0.0321
   57MOL   H13620408   2.390   3.201   2.373  0.2980  0.3078  0.4974
   57MOL   H13720409   2.202   3.271   2.148 -1.7063 -1.1046  0.6113
   57MOL   H13820410   2.321   3.148   2.145 -0.5878  0.0262  0.0590
   57MOL   H13920411   2.124   3.149   2.370 -1.1739  1.2346  0.0772
   57MOL   H14020412   1.970   3.174   2.178  0.6056  0.7181  1.9358
   57MOL   H14120413   1.987   3.000   2.224 -1.5841  1.2602  0.0841
   57MOL   H14220414   2.067   3.054   2.085  0.0186  1.7406 -0.7187
   57MOL   H14320415   2.313   2.991   2.371  0.7754 -4.0636  0.8514
   57MOL   H14420416   2.166   2.901   2.376 -0.0906  1.7454  0.9395
   57MOL   H14520417   2.260   2.913   2.225  0.1668 -0.3976  0.4626
   57MOL   C14620418   2.264   3.374   2.414  0.5350 -0.3896 -0.4679
   57MOL   C14720419   2.280   3.333   2.560 -0.2495  0.1680 -0.4485
   57MOL   C14820420   2.167   3.383   2.647  0.0164 -0.1102 -1.0605
   57MOL   C14920421   2.034   3.306   2.622 -0.1916  0.5120 -0.5750
   57MOL   C15020422   2.037   3.151   2.636 -0.1615  0.4189 -0.0906
   57MOL   C15120423   1.925   3.378   2.698  0.3710  0.0535 -0.5958
   57MOL   H15220424   2.159   3.364   2.385  0.5833 -0.2309 -0.6910
   57MOL   H15320425   2.290   3.478   2.392  2.6283  0.0533  3.5767
   57MOL   H15420426   2.268   3.225   2.572  1.7984 -0.0861 -0.4266
   57MOL   H15520427   2.197   3.365   2.750  0.2610 -0.4159 -1.1839
   57MOL   H15620428   2.159   3.491   2.630 -1.8129 -0.4467 -2.4198
   57MOL   H15720429   1.995   3.327   2.522  0.7363  0.3274 -0.9815
   57MOL   H15820430   1.941   3.100   2.636 -0.4634  0.9851 -0.1203
   57MOL   H15920431   2.073   3.137   2.738  1.4039 -0.5900 -0.7600
   57MOL   H16020432   2.105   3.092   2.574  0.4597 -1.9489  2.7164
   57MOL   H16120433   1.917   3.484   2.675 -0.5576  0.1602  0.1709
   57MOL   H16220434   1.944   3.363   2.805  0.5470  0.7021 -0.5314
   57MOL   H16320435   1.831   3.329   2.671  0.3196  0.6080 -1.4327
   57MOL   C16420436   2.421   3.375   2.606 -0.0041 -0.4444 -0.5105
   57MOL   C16520437   2.481   3.282   2.710 -1.5146 -0.3336 -0.6350
   57MOL   C16620438   2.490   3.134   2.655 -0.2967  0.3208 -0.3728
   57MOL   C16720439   2.477   3.030   2.761 -0.0624  0.6873  0.1948
   57MOL   C16820440   2.335   3.019   2.813  0.4093  0.3855 -0.4034
   57MOL   C16920441   2.536   2.899   2.707  0.2124  0.2270  0.1555
   57MOL   H17020442   2.497   3.363   2.529  0.0839  1.0175 -0.6637
   57MOL   H17120443   2.426   3.481   2.631  1.6886 -0.7019  0.3062
   57MOL   H17220444   2.404   3.279   2.787 -0.7399 -1.0333  0.1212
   57MOL   H17320445   2.421   3.107   2.576 -0.7268 -1.4377  0.5705
   57MOL   H17420446   2.584   3.111   2.605 -0.1160 -2.3165  1.0265
   57MOL   H17520447   2.543   3.060   2.843 -1.0998  0.9886  0.9405
   57MOL   H17620448   2.312   3.111   2.867 -0.9994 -0.8885  1.2335
   57MOL   H17720449   2.316   2.938   2.884 -2.8867  0.9176 -0.5978
   57MOL   H17820450   2.263   3.001   2.734 -1.6945  2.5764  0.9455
   57MOL   H17920451   2.478   2.861   2.622 -0.6784  0.0758  0.8253
   57MOL   H18020452   2.537   2.828   2.790  0.1259 -0.9311 -0.8183
   57MOL   H18120453   2.641   2.912   2.681  0.7728 -2.2897  0.9539
   57MOL   C18220454   2.618   3.338   2.763 -0.1539 -0.1849 -0.3697
   57MOL   C18320455   2.596   3.465   2.860 -0.1488  0.4720  0.9733
   57MOL   C18420456   2.578   3.423   3.008 -0.7691 -0.7388  0.2450
   57MOL   C18520457   2.504   3.531   3.094 -0.1251  0.3887  0.2891
   57MOL   C18620458   2.360   3.573   3.043 -0.4888  0.7791 -0.1857
   57MOL   C18720459   2.483   3.462   3.227 -0.0796  0.0970 -0.7074
   57MOL   H18820460   2.694   3.358   2.687  0.1616 -0.3878 -0.1091
   57MOL   H18920461   2.667   3.260   2.821  2.8545  2.4153  0.7219
   57MOL   H19020462   2.507   3.518   2.825  0.5949  0.3094 -1.2413
   57MOL   H19120463   2.677   3.405   3.050 -0.7029 -1.6606 -0.3061
   57MOL   H19220464   2.514   3.336   3.005  1.5063 -2.4101 -2.2706
   57MOL   H19320465   2.561   3.623   3.097 -0.8045  0.8122  0.4655
   57MOL   H19420466   2.295   3.624   3.115  1.6615  1.0671  1.6025
   57MOL   H19520467   2.298   3.487   3.017  0.5336  0.2181 -0.7577
   57MOL   H19620468   2.349   3.638   2.956 -0.3550 -0.5145 -1.1786
   57MOL   H19720469   2.414   3.525   3.283  0.2500 -0.8688  0.8280
   57MOL   H19820470   2.571   3.434   3.285  0.3338 -1.7550 -2.1959
   57MOL   H19920471   2.437   3.363   3.230  2.3779 -1.0490  3.7958
   57MOL   C20020472   2.723   3.559   2.852 -0.4143  0.1728 -0.0514
   57MOL   C20120473   2.695   3.694   2.780 -0.3553 -0.3619 -0.0719
   57MOL   C20220474   2.682   3.671   2.626 -0.1622 -0.1817 -0.1358
   57MOL   C20320475   2.646   3.789   2.543 -0.2096 -0.0570  0.4404
   57MOL   C20420476   2.644   3.764   2.389 -0.7703  1.0339  0.3806
   57MOL   C20520477   2.502   3.836   2.577  0.1463 -0.2399  0.1012
   57MOL   H20620478   2.803   3.514   2.792 -2.2675 -4.3946  0.6940
   57MOL   H20720479   2.754   3.581   2.954  0.4795  0.5619 -0.3949
   57MOL   H20820480   2.600   3.731   2.818 -0.4265 -1.5261  0.9179
   57MOL   H20920481   2.774   3.616   2.603 -0.2256 -0.4301  0.1981
   57MOL   H21020482   2.604   3.597   2.610 -1.5288  1.3646 -0.6912
   57MOL   H21120483   2.705   3.878   2.566  0.0699  0.0223 -0.5968
   57MOL   H21220484   2.749   3.752   2.363 -0.6292 -0.3371  1.5119
   57MOL   H21320485   2.615   3.854   2.335  1.6432  1.4455 -0.3024
   57MOL   H21420486   2.582   3.680   2.358  0.0249  0.1737  1.1075
   57MOL   H21520487   2.423   3.762   2.575 -1.6274  1.5481  1.6747
   57MOL   H21620488   2.481   3.929   2.524 -0.5677 -0.5946 -0.2396
   57MOL   H21720489   2.497   3.865   2.682  1.0508  0.0418  0.0743
   57MOL   C21820490   2.800   3.800   2.824 -0.1382 -0.4839 -0.3049
   57MOL   C21920491   2.751   3.917   2.921  0.0485  0.4463 -0.3269
   57MOL   C22020492   2.827   4.047   2.904  0.8592  0.3856  0.5393
   57MOL   C22120493   2.804   4.141   2.777  0.4439 -0.6768 -0.5138
   57MOL   C22220494   2.652   4.168   2.773 -0.3004 -0.8859 -0.2310
   57MOL   C22320495   2.877   4.281   2.788  0.8880  0.4467  0.0188
   57MOL   H22420496   2.889   3.755   2.867 -0.6269 -0.1496  1.0821
   57MOL   H22520497   2.852   3.850   2.742  0.6792 -1.6289 -0.4899
   57MOL   H22620498   2.646   3.937   2.903  0.2564  1.5203 -0.3994
   57MOL   H22720499   2.799   4.106   2.992 -2.5294  0.0617 -0.2702
   57MOL   H22820500   2.933   4.024   2.915  1.1605  2.5782  2.5387
   57MOL   H22920501   2.847   4.097   2.687  0.9530 -0.3760 -0.4187
   57MOL   H23020502   2.627   4.250   2.706  1.8857 -0.3670 -0.4463
   57MOL   H23120503   2.584   4.090   2.736 -2.4600  0.7947  0.1251
   57MOL   H23220504   2.620   4.207   2.869 -0.5881 -0.0729 -0.6490
   57MOL   H23320505   2.880   4.320   2.890  1.8118  1.9990 -0.5884
   57MOL   H23420506   2.982   4.277   2.759  0.4694 -1.7566 -1.3374
   57MOL   H23520507   2.824   4.359   2.734  0.5988 -0.3120 -0.8040
   57MOL   C23620508   2.746   3.865   3.067  0.0279  0.3972 -0.7671
   57MOL   C23720509   2.639   3.937   3.155  1.0839  0.2935  0.5812
   57MOL   C23820510   2.665   3.913   3.307  0.2667  0.7630 -0.5189
   57MOL   C23920511   2.783   3.988   3.364  0.2854 -0.5498 -0.3803
   57MOL   C24020512   2.747   4.093   3.471  0.3229 -0.8038 -0.3595
   57MOL   C24120513   2.886   3.885   3.413  0.0180  0.1500  0.4702
   57MOL   H24220514   2.846   3.873   3.111 -0.6639 -0.9404  1.1226
   57MOL   H24320515   2.705   3.764   3.070  0.4887  0.2302 -0.0120
   57MOL   H24420516   2.659   4.044   3.150 -0.6827  0.6363  0.6490
   57MOL   H24520517   2.672   3.805   3.322 -0.4836  0.4625 -2.2760
   57MOL   H24620518   2.581   3.933   3.374  1.6495  2.5115  0.7388
   57MOL   H24720519   2.839   4.046   3.290  0.0470  0.5951  0.3131
   57MOL   H24820520   2.700   4.050   3.559 -0.1630  2.2172  0.9117
   57MOL   H24920521   2.681   4.165   3.423  1.2910 -0.8012 -1.7427
   57MOL   H25020522   2.837   4.149   3.498  2.1482 -3.1215 -1.3533
   57MOL   H25120523   2.956   3.950   3.465 -0.3652  1.5950 -0.7808
   57MOL   H25220524   2.944   3.844   3.330 -1.9511  0.5747 -1.1642
   57MOL   H25320525   2.838   3.799   3.460 -1.4893  0.8329  0.1956
   57MOL   C25420526   2.486   3.922   3.120 -0.3392 -0.3955 -0.4121
   57MOL   C25520527   2.416   4.061   3.093 -0.5577  0.4515 -0.0732
   57MOL   C25620528   2.277   4.037   3.034  0.7530  0.4959 -0.2555
   57MOL   C25720529   2.278   3.992   2.883  0.3121  0.0900 -0.7855
   57MOL   C25820530   2.274   4.114   2.794 -0.4151  0.8357  0.5577
   57MOL   C25920531   2.160   3.897   2.850  0.0739  0.5060 -0.0649
   57MOL   H26020532   2.483   3.876   3.021  0.2803  0.7949 -0.9920
   57MOL   H26120533   2.429   3.847   3.176 -2.0558 -0.3919 -2.1048
   57MOL   H26220534   2.483   4.113   3.024 -0.1700 -0.5188 -0.4397
   57MOL   H26320535   2.206   4.119   3.042  1.0120  0.5301  2.3684
   57MOL   H26420536   2.213   3.960   3.077 -0.5952  1.7859  0.0666
   57MOL   H26520537   2.371   3.949   2.846  1.5013  1.6067  0.3546
   57MOL   H26620538   2.360   4.177   2.818  1.2331 -1.4886  0.9251
   57MOL   H26720539   2.190   4.177   2.824 -0.5013  0.8731  0.2429
   57MOL   H26820540   2.268   4.084   2.689 -2.9214 -1.4419  1.2866
   57MOL   H26920541   2.061   3.939   2.867  0.6644  2.5066 -1.4077
   57MOL   H27020542   2.164   3.892   2.741  0.5858  0.4762 -0.0454
   57MOL   H27120543   2.153   3.800   2.900 -0.7743  1.2090  1.2032
   57MOL   C27220544   2.412   4.152   3.221 -0.1988 -0.0530  0.4159
   57MOL   C27320545   2.360   4.297   3.193 -0.0544  0.1803  0.2377
   57MOL   C27420546   2.352   4.370   3.327  0.1784  0.3755 -0.1244
   57MOL   C27520547   2.243   4.306   3.426 -1.0943  0.4736 -0.0759
   57MOL   C27620548   2.110   4.284   3.366  0.1298 -0.2592  0.1482
   57MOL   C27720549   2.235   4.397   3.550  0.6037 -0.0805  0.0079
   57MOL   H27820550   2.337   4.101   3.281  1.5713 -1.1112  1.7875
   57MOL   H27920551   2.500   4.154   3.285  0.6230  1.5062 -0.7409
   57MOL   H28020552   2.260   4.292   3.149 -0.5872  0.7579  1.3556
   57MOL   H28120553   2.339   4.478   3.316 -0.3400  0.1811 -1.5289
   57MOL   H28220554   2.450   4.350   3.369  0.3621 -0.0738 -0.7583
   57MOL   H28320555   2.271   4.208   3.466  0.1384  1.0632  0.5282
   57MOL   H28420556   2.071   4.378   3.326  0.1451 -0.6291 -0.7598
   57MOL   H28520557   2.099   4.209   3.287 -1.6389  0.6994 -0.5584
   57MOL   H28620558   2.033   4.259   3.439 -0.5838 -1.5391 -1.0067
   57MOL   H28720559   2.212   4.500   3.524 -3.9687 -1.6593 -2.7880
   57MOL   H28820560   2.147   4.372   3.609 -0.4211  0.6887 -1.1850
   57MOL   H28920561   2.328   4.382   3.606  1.5029  0.7059 -1.2455
   57MOL   C29020562   2.450   4.366   3.093  0.3256 -0.6016 -0.2513
   57MOL   C29120563   2.426   4.516   3.063 -0.1467 -0.7233  0.2165
   57MOL   C29220564   2.278   4.551   3.047  0.6573  0.5755 -0.0411
   57MOL   C29320565   2.209   4.494   2.917  0.6293  0.5392  0.2616
   57MOL   C29420566   2.060   4.514   2.919 -0.4345 -0.4693  0.7501
   57MOL   C29520567   2.267   4.560   2.787 -0.1229 -0.3470  0.1795
   57MOL   H29620568   2.553   4.342   3.118  0.9518  0.4665 -1.7798
   57MOL   H29720569   2.423   4.320   2.998 -1.1756  1.6575 -0.9576
   57MOL   H29820570   2.472   4.522   2.964  1.0787 -1.3618  0.7331
   57MOL   H29920571   2.264   4.659   3.053 -1.5193  0.2312  2.1153
   57MOL   H30020572   2.224   4.510   3.133 -0.3536  2.6902  0.3882
   57MOL   H30120573   2.237   4.389   2.914 -2.3881 -0.4393  3.3895
   57MOL   H30220574   2.018   4.476   2.825 -0.4233 -2.5783  1.5652
   57MOL   H30320575   2.039   4.620   2.923  1.1157 -0.1055 -0.2378
   57MOL   H30420576   2.024   4.454   3.003 -0.3305 -0.6784  0.6475
   57MOL   H30520577   2.306   4.661   2.799 -0.6799 -0.0702 -0.3275
   57MOL   H30620578   2.192   4.567   2.708  0.4546  0.8903 -0.2894
   57MOL   H30720579   2.342   4.490   2.750 -2.2514 -3.1190  0.9355
   57MOL   C30820580   2.514   4.629   3.136  0.2186  0.8322  0.2841
   57MOL   C30920581   2.669   4.630   3.107 -0.6579 -0.4373  0.8283
   57MOL   C31020582   2.706   4.734   3.005 -0.0343  0.3206  0.9012
   57MOL   C31120583   2.651   4.728   2.857  0.6575  0.0406 -0.5473
   57MOL   C31220584   2.714   4.844   2.766 -0.9793 -0.3678 -0.6762
   57MOL   C31320585   2.688   4.598   2.784 -0.0175 -0.0936  0.1127
   57MOL   H31420586   2.470   4.725   3.111 -2.5748 -0.4110  0.1907
   57MOL   H31520587   2.500   4.618   3.244  0.1270  1.7310  0.3657
   57MOL   H31620588   2.701   4.540   3.053 -2.6140 -0.2129 -0.7699
   57MOL   H31720589   2.814   4.733   2.995 -0.1159  0.2632 -0.1111
   57MOL   H31820590   2.682   4.832   3.046 -2.3350 -0.2441  1.0082
   57MOL   H31920591   2.542   4.731   2.863  0.5746 -3.5312  0.9224
   57MOL   H32020592   2.822   4.830   2.772 -0.8424  1.1645  0.8945
   57MOL   H32120593   2.690   4.942   2.809  0.5395 -0.6162  0.7870
   57MOL   H32220594   2.673   4.839   2.665 -2.9357 -2.3573  0.1690
   57MOL   H32320595   2.657   4.606   2.680  0.6249  2.1172  0.0658
   57MOL   H32420596   2.794   4.573   2.788  0.3831  1.4218 -0.8368
   57MOL   H32520597   2.637   4.509   2.822 -1.0881  1.6193  2.8242
   57MOL   C32620598   2.751   4.634   3.239  0.5758 -0.1065  0.1665
   57MOL   C32720599   2.751   4.493   3.308  0.3619  0.1028  0.0723
   57MOL   C32820600   2.812   4.491   3.454  0.1934 -0.1516  0.1364
   57MOL   C32920601   2.727   4.566   3.568 -0.2222 -0.3979  0.1003
   57MOL   C33020602   2.575   4.512   3.577  0.7812 -0.3277 -0.1157
   57MOL   C33120603   2.798   4.542   3.697  0.2689  0.4717  0.8109
   57MOL   H33220604   2.699   4.714   3.291  1.5947  0.4861  0.2909
   57MOL   H33320605   2.855   4.654   3.213  0.1058  2.9570  0.5151
   57MOL   H33420606   2.649   4.457   3.322  0.4407  0.9973  3.5515
   57MOL   H33520607   2.849   4.396   3.491  0.1656 -0.2284 -0.0334
   57MOL   H33620608   2.900   4.554   3.441  0.5372 -0.8380 -0.8629
   57MOL   H33720609   2.726   4.666   3.525  1.3907 -1.1334 -1.6936
   57MOL   H33820610   2.575   4.403   3.571 -0.9960 -0.4258  1.3759
   57MOL   H33920611   2.517   4.551   3.493  0.8262 -0.2062 -0.0911
   57MOL   H34020612   2.523   4.542   3.668 -0.7968  0.6535 -1.3197
   57MOL   H34120613   2.906   4.556   3.690  0.3755  0.0779  1.6134
   57MOL   H34220614   2.755   4.595   3.782  0.0451 -0.9535  1.5993
   57MOL   H34320615   2.795   4.443   3.741 -3.2846  0.1762  0.0819
   57MOL   C34420616   2.829   4.382   3.238 -0.0283  0.2421  0.6907
   57MOL   C34520617   2.973   4.404   3.197  0.0075 -0.2089  0.2814
   57MOL   C34620618   3.049   4.266   3.188  0.2695 -0.2794 -0.5551
   57MOL   C34720619   3.183   4.283   3.126  0.3570  0.4463 -0.2006
   57MOL   C34820620   3.279   4.378   3.197  0.4312 -0.0617 -0.2607
   57MOL   C34920621   3.186   4.307   2.972  0.0599  0.1545 -0.3726
   57MOL   H35020622   2.768   4.333   3.162 -0.1989  1.9764 -0.2986
   57MOL   H35120623   2.832   4.292   3.301 -1.1674 -0.3858 -0.1206
   57MOL   H35220624   3.021   4.481   3.258 -1.5805  3.0552 -2.4015
   57MOL   H35320625   3.052   4.220   3.286 -2.3161  1.5399  0.4448
   57MOL   H35420626   2.985   4.197   3.134 -0.4448  0.5050 -0.7233
   57MOL   H35520627   3.224   4.183   3.137 -1.8005 -0.2062  2.3385
   57MOL   H35620628   3.264   4.370   3.305 -2.6907 -2.2504 -0.7873
   57MOL   H35720629   3.385   4.359   3.181  0.6168  1.6774 -1.2250
   57MOL   H35820630   3.264   4.483   3.171 -0.7435  0.2563  1.5914
   57MOL   H35920631   3.112   4.242   2.925 -1.6987  1.2049  0.8677
   57MOL   H36020632   3.278   4.275   2.924  1.7250 -0.0602  2.8536
   57MOL   H36120633   3.170   4.408   2.934  1.4406  0.1971 -0.8587
   57MOL   H36220634   2.978   4.438   3.094 -0.3872 -0.5442  0.1528
   58MOL     C120635   1.340   5.582   3.630 -0.5207  0.5996 -0.0166
   58MOL     C220636   1.201   5.626   3.675  0.6126  0.7123 -0.2287
   58MOL     C320637   1.138   5.543   3.793  0.0395  0.4349 -1.2095
   58MOL     C420638   1.221   5.528   3.919 -0.2472 -0.3050 -0.0263
   58MOL     C520639   1.160   5.419   4.007 -0.1554  0.3920  0.0539
   58MOL     C620640   1.247   5.651   4.000  0.0712  0.3672  0.1330
   58MOL     H720641   1.371   5.654   3.554  0.4758  0.1388 -0.0558
   58MOL     H820642   1.415   5.590   3.708  0.1423 -0.4623 -0.5348
   58MOL     H920643   1.206   5.729   3.710 -0.3960 -0.3741  3.2696
   58MOL    H1020644   1.040   5.581   3.821  0.1059 -1.8900  2.5343
   58MOL    H1120645   1.128   5.443   3.752  0.9139 -1.0602  2.0580
   58MOL    H1220646   1.314   5.492   3.875  0.3994  0.8632  0.3488
   58MOL    H1320647   1.215   5.424   4.102  1.3046 -1.6766 -0.6412
   58MOL    H1420648   1.055   5.428   4.035 -0.3642 -1.2660 -0.1336
   58MOL    H1520649   1.179   5.323   3.960 -1.4518 -0.0823  0.4893
   58MOL    H1620650   1.295   5.732   3.945 -0.6683 -0.8591 -2.3773
   58MOL    H1720651   1.312   5.631   4.085 -0.6784 -0.1285  0.6011
   58MOL    H1820652   1.158   5.699   4.042 -0.5026  0.1188 -0.8007
   58MOL    H1920653   1.343   5.485   3.579  1.6895  0.3453  0.5648
   58MOL    C2020654   1.102   5.629   3.557 -0.5818  0.1561  0.2435
   58MOL    C2120655   1.147   5.721   3.440  0.3347  0.1631 -0.1764
   58MOL    C2220656   1.215   5.632   3.332 -0.6937 -1.0675 -0.0875
   58MOL    C2320657   1.310   5.700   3.224  1.0443 -0.5265  0.4147
   58MOL    C2420658   1.460   5.709   3.265  0.0052 -0.0418  0.4119
   58MOL    C2520659   1.308   5.630   3.086  0.1539  0.4294 -0.2076
   58MOL    H2620660   1.084   5.528   3.520 -2.7569  0.8041 -0.6064
   58MOL    H2720661   1.009   5.663   3.603 -0.8131 -0.4892  0.2592
   58MOL    H2820662   1.216   5.800   3.469  0.5648  0.8004 -2.3501
   58MOL    H2920663   1.132   5.580   3.283  0.0400  0.8640 -3.5509
   58MOL    H3020664   1.274   5.554   3.380 -0.4892 -1.1243 -0.4296
   58MOL    H3120665   1.278   5.802   3.199  0.9730 -0.4309  0.8932
   58MOL    H3220666   1.485   5.784   3.341  1.2545  0.0008 -0.0305
   58MOL    H3320667   1.529   5.721   3.182  0.8981  2.2320  1.4272
   58MOL    H3420668   1.492   5.614   3.307 -0.6879  0.0102  1.0660
   58MOL    H3520669   1.314   5.524   3.111  0.6279  0.7940  1.2908
   58MOL    H3620670   1.217   5.653   3.030 -0.7363 -0.4377  0.8689
   58MOL    H3720671   1.395   5.654   3.025  0.0215  0.0349 -0.5532
   58MOL    C3820672   1.015   5.784   3.373 -0.4954 -0.3627  0.1759
   58MOL    C3920673   0.950   5.903   3.450 -0.1688  0.5234  0.5323
   58MOL    C4020674   0.793   5.917   3.426  0.6573 -0.0513 -0.8158
   58MOL    C4120675   0.698   5.796   3.473 -0.0588 -0.4248 -0.2258
   58MOL    C4220676   0.548   5.825   3.434  0.2149 -0.1087 -0.3081
   58MOL    C4320677   0.711   5.768   3.622 -0.1166 -0.5157  0.2965
   58MOL    H4420678   0.934   5.712   3.366 -2.2574  1.6420 -0.7280
   58MOL    H4520679   1.038   5.797   3.267  3.5969  0.5333  1.0855
   58MOL    H4620680   0.955   5.863   3.552  1.1917  0.6211  0.5061
   58MOL    H4720681   0.776   5.937   3.320  1.3614  0.0926 -0.9059
   58MOL    H4820682   0.746   6.002   3.474  0.0532 -0.5917 -0.4352
   58MOL    H4920683   0.729   5.706   3.420  0.4429 -0.1379 -0.4224
   58MOL    H5020684   0.508   5.921   3.466 -0.4225 -0.4298 -0.1110
   58MOL    H5120685   0.538   5.823   3.325 -1.3773  0.7530 -0.1870
   58MOL    H5220686   0.480   5.749   3.474 -0.7481  0.4925 -0.7895
   58MOL    H5320687   0.662   5.674   3.645 -0.7158 -0.1514  0.5311
   58MOL    H5420688   0.675   5.850   3.684 -0.1591 -0.6609  0.4633
   58MOL    H5520689   0.812   5.742   3.654  0.2370 -1.1565 -1.2850
   58MOL    C5620690   1.020   6.042   3.416 -0.8026 -0.1828  0.3596
   58MOL    C5720691   0.999   6.148   3.514  0.2544  0.8956 -1.2000
   58MOL    C5820692   1.018   6.296   3.470 -0.1740  0.2173  0.0986
   58MOL    C5920693   1.162   6.330   3.413 -0.5057  0.1177 -0.0009
   58MOL    C6020694   1.215   6.465   3.463 -0.0316 -0.3022  0.1135
   58MOL    C6120695   1.165   6.306   3.259 -0.5108 -0.1364 -0.1446
   58MOL    H6220696   0.967   6.080   3.328 -1.9011  0.1296  1.1472
   58MOL    H6320697   1.123   6.025   3.384 -1.3270 -0.2796 -1.3101
   58MOL    H6420698   0.892   6.151   3.536  0.7627 -0.3349  1.8344
   58MOL    H6520699   0.944   6.320   3.393  1.2775  0.7493 -1.1681
   58MOL    H6620700   0.994   6.359   3.555  1.6923  0.3348  0.5507
   58MOL    H6720701   1.232   6.255   3.449  1.3270  0.8640 -1.9060
   58MOL    H6820702   1.175   6.552   3.413 -1.1260 -0.8994 -0.0543
   58MOL    H6920703   1.320   6.459   3.432 -0.1619  1.5208 -0.7294
   58MOL    H7020704   1.211   6.471   3.572  0.2080  1.3822  0.0337
   58MOL    H7120705   1.264   6.330   3.219 -0.1961 -0.0654  0.6796
   58MOL    H7220706   1.092   6.364   3.202 -0.5780  0.2629  0.3511
   58MOL    H7320707   1.138   6.205   3.230  0.3779 -0.0324 -1.3936
   58MOL    C7420708   1.073   6.120   3.639 -0.4768 -0.6968  0.3118
   58MOL    C7520709   0.984   6.081   3.765 -0.2127  0.3880 -0.2846
   58MOL    C7620710   0.904   6.200   3.816  0.3271 -0.0660  0.0719
   58MOL    C7720711   0.757   6.218   3.772  0.2088  0.3367 -0.2352
   58MOL    C7820712   0.705   6.358   3.803 -0.1846 -0.0531 -0.1433
   58MOL    C7920713   0.672   6.105   3.833 -0.0311 -0.2889 -0.0191
   58MOL    H8020714   1.137   6.206   3.657  1.9683 -2.2124 -0.9100
   58MOL    H8120715   1.142   6.037   3.623 -2.3844 -2.0530 -1.2279
   58MOL    H8220716   0.909   6.013   3.725 -0.2150 -0.1557  0.6491
   58MOL    H8320717   0.902   6.211   3.925 -2.4482  0.5258 -0.0014
   58MOL    H8420718   0.957   6.288   3.780  1.4728  1.1112  4.3397
   58MOL    H8520719   0.750   6.220   3.663  2.0725 -0.7342 -0.4065
   58MOL    H8620720   0.778   6.432   3.768  1.1704 -0.8545  0.9328
   58MOL    H8720721   0.679   6.374   3.907  1.5036 -1.6998  0.5641
   58MOL    H8820722   0.616   6.365   3.741 -0.2013 -2.7410 -0.4796
   58MOL    H8920723   0.571   6.088   3.795  0.1413  1.0289 -1.1171
   58MOL    H9020724   0.710   6.004   3.818  0.8370  0.1225 -0.6124
   58MOL    H9120725   0.668   6.130   3.939  0.0663 -1.1747  0.2026
   58MOL    C9220726   1.065   6.020   3.889 -0.1832  0.4181 -0.2291
   58MOL    C9320727   0.980   5.971   4.006 -0.1530 -0.3634 -0.0986
   58MOL    C9420728   0.909   5.846   3.958 -0.1668 -0.4871 -0.0541
   58MOL    C9520729   0.803   5.779   4.050  0.7715 -0.5043  0.2470
   58MOL    C9620730   0.670   5.857   4.063  0.2683 -0.4610 -0.2138
   58MOL    C9720731   0.769   5.631   4.019 -0.4187 -0.5683 -0.0264
   58MOL    H9820732   1.138   5.944   3.861 -0.5205  0.4429 -1.1644
   58MOL    H9920733   1.122   6.107   3.922  0.1105 -0.7537  2.5162
   58MOL   H10020734   0.903   6.040   4.040  0.2574  0.3655 -0.6439
   58MOL   H10120735   0.983   5.770   3.930  0.2401 -0.8339  1.9244
   58MOL   H10220736   0.862   5.850   3.860 -0.4344  0.5113  0.1159
   58MOL   H10320737   0.842   5.786   4.151  1.6740 -1.4252 -0.0384
   58MOL   H10420738   0.623   5.835   4.159  1.1671 -0.0609  0.3157
   58MOL   H10520739   0.593   5.835   3.989  0.0867 -0.2634 -0.0856
   58MOL   H10620740   0.687   5.963   4.077 -0.0644 -0.0828 -2.4740
   58MOL   H10720741   0.867   5.584   4.006  0.6228  1.7572 -1.0786
   58MOL   H10820742   0.709   5.625   3.928 -0.1610 -0.8417 -0.1825
   58MOL   H10920743   0.712   5.584   4.099 -1.8041  0.6925 -0.2479
   58MOL   C11020744   1.069   5.949   4.124  0.1762  0.0203 -0.9893
   58MOL   C11120745   1.093   6.066   4.224  0.4678 -0.0312 -1.1195
   58MOL   C11220746   1.167   6.190   4.168 -0.1870  0.0966 -0.7483
   58MOL   C11320747   1.312   6.165   4.115 -0.8105  0.2192  0.1070
   58MOL   C11420748   1.400   6.087   4.213  0.2455 -0.1851 -0.3011
   58MOL   C11520749   1.377   6.294   4.070  0.8628  0.3824  0.2369
   58MOL   H11620750   1.167   5.922   4.083 -1.1590  0.7869 -4.9661
   58MOL   H11720751   1.038   5.864   4.184  0.6094 -0.3566 -1.2901
   58MOL   H11820752   1.159   6.025   4.300  1.1813  1.5288 -0.8745
   58MOL   H11920753   1.174   6.269   4.243 -1.2922 -0.4948 -0.0213
   58MOL   H12020754   1.105   6.236   4.091 -3.1399 -2.3652  0.0875
   58MOL   H12120755   1.296   6.099   4.030 -0.4265  1.4156 -0.9225
   58MOL   H12220756   1.503   6.089   4.177  0.0222 -1.5553 -1.0306
   58MOL   H12320757   1.368   5.984   4.225 -0.6783  0.0956 -0.3687
   58MOL   H12420758   1.385   6.130   4.313  1.8030 -0.2450 -0.0287
   58MOL   H12520759   1.485   6.284   4.062  0.9084  1.1309 -0.1148
   58MOL   H12620760   1.375   6.376   4.141  1.8799  0.9017 -0.3261
   58MOL   H12720761   1.322   6.331   3.984 -1.4887  0.5762  1.7644
   58MOL   C12820762   0.956   6.099   4.294  0.1034  0.2188 -0.0640
   58MOL   C12920763   0.968   6.188   4.421  0.0741 -0.2860 -0.0159
   58MOL   C13020764   1.044   6.117   4.535  0.9429  0.0506  0.2594
   58MOL   C13120765   1.186   6.171   4.556 -0.2271  0.2872  0.2492
   58MOL   C13220766   1.192   6.315   4.603  0.2410  0.7426  0.1454
   58MOL   C13320767   1.269   6.077   4.650  0.2402 -0.0619  1.0045
   58MOL   H13420768   0.908   6.006   4.324 -1.6017  1.7613  2.1590
   58MOL   H13520769   0.902   6.153   4.218 -1.3971  0.4017  1.1116
   58MOL   H13620770   1.023   6.272   4.378 -0.8710  0.0425 -0.5794
   58MOL   H13720771   0.991   6.131   4.629 -1.6773 -0.3711 -1.0772
   58MOL   H13820772   1.042   6.010   4.513 -2.6457  0.6055 -2.6495
   58MOL   H13920773   1.235   6.165   4.459 -2.6552 -1.6121 -0.9344
   58MOL   H14020774   1.153   6.308   4.704 -0.6069  1.5507 -0.1167
   58MOL   H14120775   1.127   6.380   4.544 -0.1238  0.4331  0.1996
   58MOL   H14220776   1.296   6.347   4.595 -0.0798  1.7537 -0.1841
   58MOL   H14320777   1.272   5.973   4.620 -1.0173  0.0657  0.3972
   58MOL   H14420778   1.374   6.106   4.653  0.1498  0.2917  0.8331
   58MOL   H14520779   1.239   6.075   4.755  0.7513 -0.1957  1.1466
   58MOL   C14620780   0.832   6.247   4.466  0.3135  0.0004 -0.1330
   58MOL   C14720781   0.764   6.357   4.384  0.4812  0.4216 -0.1976
   58MOL   C14820782   0.840   6.490   4.360 -0.2564 -0.8310 -0.8481
   58MOL   C14920783   0.943   6.496   4.246 -0.6608 -0.3983 -0.3702
   58MOL   C15020784   0.873   6.484   4.114  0.1567  0.1817 -0.3720
   58MOL   C15120785   1.031   6.628   4.252  0.0211  0.2900  0.5162
   58MOL   H15220786   0.852   6.287   4.565  1.0430 -1.7719  0.4540
   58MOL   H15320787   0.767   6.159   4.467 -0.6669  0.7166 -0.1170
   58MOL   H15420788   0.739   6.323   4.283  1.8619 -2.2823  0.3238
   58MOL   H15520789   0.763   6.564   4.339  0.9878  0.3867 -1.1476
   58MOL   H15620790   0.890   6.526   4.450  0.3959  0.0427 -1.5525
   58MOL   H15720791   1.027   6.426   4.248  1.1068  1.6778 -0.4689
   58MOL   H15820792   0.796   6.560   4.102  0.5563  0.2620 -2.7974
   58MOL   H15920793   0.828   6.386   4.099  1.6564 -0.0595 -3.8670
   58MOL   H16020794   0.936   6.510   4.029  1.9893  1.6112  1.3765
   58MOL   H16120795   1.079   6.659   4.345 -0.4710 -0.5305  1.0538
   58MOL   H16220796   0.977   6.716   4.219  3.0649  1.0409 -2.7817
   58MOL   H16320797   1.109   6.633   4.175 -2.5717  1.4133 -2.1219
   58MOL   C16420798   0.622   6.389   4.447 -0.2427  0.2765 -0.7441
   58MOL   C16520799   0.493   6.354   4.356  0.3233  0.4347 -0.0501
   58MOL   C16620800   0.477   6.200   4.331 -0.0172 -0.1523 -0.3454
   58MOL   C16720801   0.369   6.154   4.240  0.1120 -0.2629 -0.1272
   58MOL   C16820802   0.386   6.204   4.094 -0.3392 -0.6111 -0.4130
   58MOL   C16920803   0.351   6.003   4.235  0.1148 -0.1947 -0.3546
   58MOL   H17020804   0.614   6.331   4.539  0.9181 -0.9595 -1.3979
   58MOL   H17120805   0.611   6.493   4.476  1.2831 -0.8896  4.6249
   58MOL   H17220806   0.504   6.393   4.254  0.6800  1.7805  0.4837
   58MOL   H17320807   0.573   6.155   4.303 -0.8644 -2.5524  0.5554
   58MOL   H17420808   0.453   6.152   4.426 -0.4657  1.8267  0.5710
   58MOL   H17520809   0.276   6.183   4.289  0.5521 -1.0905  1.2052
   58MOL   H17620810   0.493   6.195   4.073 -0.1066 -1.3418  1.0207
   58MOL   H17720811   0.367   6.311   4.094 -2.4339 -0.9653  0.2580
   58MOL   H17820812   0.323   6.152   4.022  0.1104  0.5824 -1.6961
   58MOL   H17920813   0.324   5.955   4.329  0.0831 -0.0936 -0.3129
   58MOL   H18020814   0.427   5.953   4.175  1.8043  1.0187  0.7262
   58MOL   H18120815   0.265   5.983   4.171  1.4437 -1.4718 -1.7833
   58MOL   C18220816   0.367   6.435   4.399  0.1072  0.3240  0.0244
   58MOL   C18320817   0.371   6.586   4.382 -0.5054  0.0029  0.3338
   58MOL   C18420818   0.441   6.640   4.251 -0.0343  0.1300 -0.3382
   58MOL   C18520819   0.472   6.789   4.236 -0.0660  0.5589 -0.6537
   58MOL   C18620820   0.559   6.834   4.353 -0.0102  0.1876 -0.5168
   58MOL   C18720821   0.539   6.801   4.102  0.5927 -0.0165 -0.7737
   58MOL   H18820822   0.352   6.415   4.505  0.3946  1.4875  0.2921
   58MOL   H18920823   0.279   6.398   4.347  0.9846 -1.2381 -0.3919
   58MOL   H19020824   0.443   6.618   4.457 -0.0786 -1.4470  0.5458
   58MOL   H19120825   0.398   6.605   4.158 -2.5898  0.3716  0.7310
   58MOL   H19220826   0.537   6.589   4.239  0.1876  0.7080 -1.0382
   58MOL   H19320827   0.380   6.848   4.240  1.4464  3.0061 -0.7782
   58MOL   H19420828   0.606   6.930   4.333 -0.8154  0.5303 -0.7614
   58MOL   H19520829   0.630   6.755   4.379 -1.0099 -0.4141  0.4287
   58MOL   H19620830   0.505   6.853   4.445 -1.0126 -1.2278 -0.7894
   58MOL   H19720831   0.618   6.726   4.098  1.8225  1.2106  0.3572
   58MOL   H19820832   0.581   6.901   4.091  1.5732  0.0110  2.7054
   58MOL   H19920833   0.471   6.801   4.016 -0.4120 -2.3779 -0.0167
   58MOL   C20020834   0.236   6.651   4.417  0.2857 -0.0717 -0.0029
   58MOL   C20120835   0.115   6.628   4.315  0.0530 -0.2791  0.5883
   58MOL   C20220836   0.057   6.768   4.268  0.8087 -0.0516 -0.0646
   58MOL   C20320837   7.745   6.865   4.376  0.6528  0.3850  0.1949
   58MOL   C20420838   0.081   6.987   4.404 -0.3779 -0.4803  0.3901
   58MOL   C20520839   7.609   6.917   4.340  0.0886  0.1225 -0.2503
   58MOL   H20620840   0.262   6.753   4.443  2.1341 -0.9690  1.9240
   58MOL   H20720841   0.213   6.617   4.518  2.1361 -3.5869 -0.6673
   58MOL   H20820842   0.173   6.583   4.235  0.7215  2.1870 -0.3571
   58MOL   H20920843   0.136   6.828   4.223 -0.0386  0.1190 -1.3460
   58MOL   H21020844   7.743   6.750   4.184 -0.3191 -1.1903  1.0421
   58MOL   H21120845   7.720   6.805   4.463 -0.9927  1.5799  0.5517
   58MOL   H21220846   0.101   7.063   4.328 -2.4634 -1.3078 -1.0495
   58MOL   H21320847   0.185   6.959   4.419 -0.5939 -1.5405 -0.0588
   58MOL   H21420848   0.050   7.029   4.499  1.8081 -0.4193  1.0861
   58MOL   H21520849   7.621   6.991   4.261  0.4755 -0.4171 -0.7025
   58MOL   H21620850   7.574   6.978   4.423  0.6705  1.4272 -0.9553
   58MOL   H21720851   7.526   6.846   4.331  2.2154 -2.2104 -2.4007
   58MOL   C21820852   0.018   6.532   4.377 -0.0337  0.3470  0.2224
   58MOL   C21920853   7.656   6.484   4.287  0.4142  0.1539 -0.1423
   58MOL   C22020854   7.548   6.398   4.358 -0.5136 -0.4076 -0.0834
   58MOL   C22120855   7.486   6.452   4.486  0.0054  0.2747  0.2676
   58MOL   C22220856   7.400   6.573   4.452 -0.8538 -0.3268  0.5132
   58MOL   C22320857   7.409   6.333   4.551  0.0051  0.8291 -0.2623
   58MOL   H22420858   0.079   6.450   4.416  1.0822  0.9662 -0.1672
   58MOL   H22520859   7.716   6.573   4.461 -1.2772  0.2053 -0.4938
   58MOL   H22620860   7.616   6.576   4.246 -1.3846 -0.2254  0.7460
   58MOL   H22720861   7.462   6.364   4.299 -1.7412  1.5618  0.5536
   58MOL   H22820862   7.598   6.305   4.385  2.1340  0.9293 -0.2659
   58MOL   H22920863   7.562   6.492   4.553  0.1057  3.3521 -1.5607
   58MOL   H23020864   7.461   6.634   4.386 -0.5805 -1.0864  0.0511
   58MOL   H23120865   7.309   6.542   4.400  0.6883  2.8684 -4.4028
   58MOL   H23220866   7.368   6.617   4.546  1.7170  1.0540  0.7755
   58MOL   H23320867   7.390   6.350   4.657  2.1940 -2.4205  0.7388
   58MOL   H23420868   7.315   6.309   4.502  0.4521 -1.0175 -0.2541
   58MOL   H23520869   7.469   6.242   4.559  1.6102  1.8303 -0.7025
   58MOL   C23620870   7.701   6.392   4.164  0.3371  0.1125 -0.5077
   58MOL   C23720871   7.595   6.387   4.054 -0.7610 -0.0331  0.3949
   58MOL   C23820872   7.631   6.267   3.961  0.2120 -0.3662  0.1886
   58MOL   C23920873   7.598   6.122   4.007 -0.4465  0.2091 -0.1885
   58MOL   C24020874   7.523   6.045   3.896  0.2203 -0.4516  0.1429
   58MOL   C24120875   7.730   6.039   4.054  0.3970  0.8975  0.4028
   58MOL   H24220876   7.720   6.291   4.201 -0.4805 -0.1266 -0.7313
   58MOL   H24320877   0.045   6.425   4.124  0.8156  0.9382  1.2667
   58MOL   H24420878   7.492   6.368   4.086 -0.7226 -0.2648  0.3823
   58MOL   H24520879   7.733   6.270   3.925 -0.4135  2.2858 -1.4689
   58MOL   H24620880   7.566   6.279   3.875  2.1843  1.2776 -1.1108
   58MOL   H24720881   7.535   6.139   4.095  1.0391 -0.2573  0.9896
   58MOL   H24820882   7.433   6.097   3.865 -0.0588 -1.8465 -1.4621
   58MOL   H24920883   7.505   5.943   3.928 -1.1207 -0.3250 -0.1822
   58MOL   H25020884   7.580   6.051   3.803 -0.6020 -0.3335 -0.3561
   58MOL   H25120885   7.705   5.936   4.080  0.2305  0.7194 -0.4367
   58MOL   H25220886   0.029   6.088   4.136 -0.9967  2.3213  0.4674
   58MOL   H25320887   0.041   6.041   3.965  0.7790 -0.3417  0.6395
   58MOL   C25420888   7.598   6.516   3.969  0.5011 -0.5651  0.1121
   58MOL   C25520889   7.460   6.581   3.941  0.0193 -0.9663  0.4298
   58MOL   C25620890   7.402   6.644   4.066  0.0466  0.2333  0.0353
   58MOL   C25720891   7.253   6.667   4.064  0.8129 -0.2027  0.6317
   58MOL   C25820892   7.216   6.767   4.175  0.2323 -0.6412  1.0308
   58MOL   C25920893   7.178   6.532   4.076  0.4217 -0.3055  0.3284
   58MOL   H26020894   7.666   6.591   4.011 -1.4042 -0.2387  2.7087
   58MOL   H26120895   7.644   6.488   3.874  0.0881  0.2112 -0.3256
   58MOL   H26220896   7.403   6.491   3.917  0.7581 -1.7435  1.5568
   58MOL   H26320897   7.456   6.736   4.085 -1.4997  1.0794  0.4104
   58MOL   H26420898   7.413   6.581   4.154 -3.3999  2.4402  2.1366
   58MOL   H26520899   7.215   6.715   3.974 -0.4582 -0.7877  0.8415
   58MOL   H26620900   7.221   6.719   4.273 -1.8475 -1.4323  0.7662
   58MOL   H26720901   7.117   6.812   4.176  0.6048  0.2868 -1.1535
   58MOL   H26820902   7.282   6.854   4.177 -1.7426  0.8624  3.2258
   58MOL   H26920903   7.200   6.471   4.163 -3.5528  0.9671  2.3645
   58MOL   H27020904   7.077   6.567   4.101  0.4928  0.4378 -0.4027
   58MOL   H27120905   7.184   6.471   3.985  1.2327  1.3377 -0.7428
   58MOL   C27220906   7.469   6.675   3.821 -0.4420  0.3762 -0.2612
   58MOL   C27320907   7.437   6.614   3.677  0.5016 -0.5192 -0.1355
   58MOL   C27420908   7.290   6.568   3.663  0.5870 -0.4735 -0.3516
   58MOL   C27520909   7.280   6.485   3.533 -0.0356 -0.1946  0.0020
   58MOL   C27620910   7.140   6.462   3.490  0.8099  0.6859 -0.2423
   58MOL   C27720911   7.344   6.345   3.561 -0.1226 -1.0671  0.6363
   58MOL   H27820912   7.400   6.758   3.831 -1.8097 -0.7219 -0.3677
   58MOL   H27920913   7.572   6.709   3.812 -0.4321  0.5877  0.5908
   58MOL   H28020914   7.505   6.530   3.668 -0.2050 -1.3114  1.5332
   58MOL   H28120915   7.227   6.657   3.652  0.0523 -0.5829  1.5870
   58MOL   H28220916   7.241   6.515   3.745 -0.6756  0.0638 -0.7302
   58MOL   H28320917   7.341   6.531   3.456  0.0572 -0.7335 -0.2533
   58MOL   H28420918   7.141   6.390   3.409  1.1897 -0.2281  0.5640
   58MOL   H28520919   7.083   6.416   3.571  1.9125 -0.8490 -0.3138
   58MOL   H28620920   7.103   6.562   3.469 -0.6997  0.0640 -0.6436
   58MOL   H28720921   7.449   6.334   3.586  0.0031  1.7769  1.5510
   58MOL   H28820922   7.300   6.312   3.655 -1.2174 -0.7370  0.2474
   58MOL   H28920923   7.329   6.268   3.486 -0.7824 -0.2905 -0.0473
   58MOL   C29020924   7.473   6.732   3.580 -0.1083  0.2803  0.4732
   58MOL   C29120925   7.600   6.729   3.493  0.3195  0.0724 -0.4461
   58MOL   C29220926   7.625   6.872   3.429  0.3028 -0.0326  0.5561
   58MOL   C29320927   7.529   6.899   3.314  0.3561 -0.3148  0.0267
   58MOL   C29420928   7.519   7.046   3.272  0.2232  0.1549  0.8398
   58MOL   C29520929   7.556   6.816   3.184  0.3333 -0.0870  0.3660
   58MOL   H29620930   7.398   6.748   3.502  1.0729  1.3702 -0.4646
   58MOL   H29720931   7.459   6.823   3.638  2.9312  1.2614 -0.2618
   58MOL   H29820932   7.573   6.658   3.415 -1.6136  0.5996 -0.2786
   58MOL   H29920933   7.723   6.892   3.385 -0.3295 -1.1146 -1.3610
   58MOL   H30020934   7.620   6.947   3.509  3.2562  0.2366  0.5454
   58MOL   H30120935   7.428   6.880   3.351 -0.0742  1.9218  0.1037
   58MOL   H30220936   7.618   7.065   3.230  0.4955 -1.0985  0.9011
   58MOL   H30320937   7.509   7.116   3.355  0.0353  0.2535  0.7351
   58MOL   H30420938   7.446   7.061   3.192  0.1201  0.4925  0.9943
   58MOL   H30520939   7.646   6.856   3.138  0.6224  1.4198  2.2156
   58MOL   H30620940   7.477   6.834   3.111  0.9964 -2.1669 -0.9216
   58MOL   H30720941   7.546   6.708   3.200 -1.3768  0.2249  1.4570
   58MOL   C30820942   7.727   6.678   3.576  0.6921 -0.2545  0.2693
   58MOL   C30920943   0.111   6.671   3.503  0.6755  0.1809 -0.7942
   58MOL   C31020944   0.204   6.577   3.589  0.5501 -0.1996 -0.0892
   58MOL   C31120945   0.228   6.617   3.739 -1.0326  0.4028 -0.0347
   58MOL   C31220946   0.325   6.525   3.811  0.0068  0.2572 -0.8787
   58MOL   C31320947   0.279   6.759   3.772  0.8112  0.0885  0.5172
   58MOL   H31420948   7.735   6.752   3.656 -2.0874  0.0938  0.2761
   58MOL   H31520949   7.722   6.584   3.630 -0.4510  0.1120  0.8291
   58MOL   H31620950   0.150   6.773   3.500 -0.1818  0.5613  0.6105
   58MOL   H31720951   0.300   6.575   3.537  2.0976  1.2331  2.5934
   58MOL   H31820952   0.166   6.475   3.590 -0.0601  0.0019 -1.4236
   58MOL   H31920953   0.136   6.600   3.795 -1.6106  1.1040 -0.7793
   58MOL   H32020954   0.286   6.424   3.796 -0.8851  0.5898 -0.8124
   58MOL   H32120955   0.325   6.534   3.919  1.0315  0.3257 -0.8820
   58MOL   H32220956   0.426   6.512   3.772  1.1515 -0.9689  2.3565
   58MOL   H32320957   0.270   6.780   3.879 -1.3998  0.8122  0.2064
   58MOL   H32420958   0.382   6.764   3.737  0.1715  0.3088 -1.3746
   58MOL   H32520959   0.219   6.828   3.715 -0.4304 -0.3716  1.2568
   58MOL   C32620960   0.103   6.610   3.362  0.1264 -0.3363  0.7548
   58MOL   C32720961   0.227   6.640   3.273  0.8576  0.1890 -0.0331
   58MOL   C32820962   0.215   6.780   3.214  0.4629 -0.0594 -0.0055
   58MOL   C32920963   0.339   6.874   3.207 -0.5379  0.0152  0.5890
   58MOL   C33020964   0.406   6.911   3.343  0.1722  0.3855 -0.0761
   58MOL   C33120965   0.430   6.825   3.095 -0.4604  0.0587  0.1586
   58MOL   H33220966   0.020   6.633   3.296  0.4093  1.1044  0.8646
   58MOL   H33320967   0.092   6.503   3.378 -2.1928 -0.9145 -4.1217
   58MOL   H33420968   0.316   6.639   3.336  0.3409  3.4480  0.8530
   58MOL   H33520969   0.162   6.772   3.119 -3.2316 -1.0184  2.0330
   58MOL   H33620970   0.142   6.828   3.280 -1.0842  0.2474 -1.9025
   58MOL   H33720971   0.299   6.968   3.166  1.3986  1.1555  1.2605
   58MOL   H33820972   0.499   6.968   3.336  1.3356 -1.4977 -0.2066
   58MOL   H33920973   0.430   6.813   3.386 -1.1795  0.3973  0.7397
   58MOL   H34020974   0.337   6.965   3.408 -1.0643 -0.4204 -0.7149
   58MOL   H34120975   0.488   6.741   3.134 -0.4325 -0.1072 -0.2452
   58MOL   H34220976   0.370   6.811   3.005  1.0644  0.3120 -0.9024
   58MOL   H34320977   0.504   6.902   3.074  0.0361 -0.6459 -0.6646
   58MOL   C34420978   0.245   6.528   3.166 -0.2816 -0.1336 -0.8291
   58MOL   C34520979   0.311   6.400   3.219  0.0661 -0.1805  0.4422
   58MOL   C34620980   0.462   6.424   3.232 -0.1690  1.3157  0.6551
   58MOL   C34720981   0.553   6.306   3.284 -0.2551 -0.4316  0.0374
   58MOL   C34820982   0.552   6.191   3.187 -0.6992 -0.3429  0.5607
   58MOL   C34920983   0.511   6.250   3.420  0.1582 -0.6284  0.8034
   58MOL   H35020984   0.301   6.576   3.087  2.9361 -0.4662  1.1519
   58MOL   H35120985   0.150   6.493   3.126 -0.9692  0.3414  0.3439
   58MOL   H35220986   0.283   6.322   3.148  1.2127 -1.6811  1.5951
   58MOL   H35320987   0.494   6.459   3.134 -0.4260 -0.9338 -0.2675
   58MOL   H35420988   0.483   6.508   3.297 -0.4670  1.0116  1.1446
   58MOL   H35520989   0.654   6.345   3.292 -0.8376  0.8092  1.7398
   58MOL   H35620990   0.455   6.172   3.141  0.3506 -1.8377 -1.0831
   58MOL   H35720991   0.634   6.187   3.116 -0.2393 -2.0907  1.1643
   58MOL   H35820992   0.568   6.098   3.241  2.2100 -0.8051 -1.0267
   58MOL   H35920993   0.549   6.149   3.435  2.0865 -0.1868 -0.9132
   58MOL   H36020994   0.403   6.241   3.434  0.0159  0.2345  0.2937
   58MOL   H36120995   0.552   6.303   3.506  0.9208  0.8874 -0.4711
   58MOL   H36220996   0.266   6.360   3.310  0.3694 -1.1714  0.1667
   59MOL     C120997   0.365   2.646   6.239  0.1709 -0.3706 -0.7493
   59MOL     C220998   0.495   2.589   6.284 -0.8132  0.6798 -0.2580
   59MOL     C320999   0.482   2.453   6.363  0.7216 -0.3885  0.4511
   59MOL     C421000   0.607   2.369   6.393  0.0744  0.2217 -0.0078
   59MOL     C521001   0.659   2.298   6.267 -0.1205 -0.0937 -0.8658
   59MOL     C621002   0.564   2.280   6.510 -0.2109 -0.5476  0.2243
   59MOL     H721003   0.381   2.739   6.185  0.8470 -0.8101 -1.3226
   59MOL     H821004   0.306   2.576   6.178 -2.0961 -0.4362  1.4227
   59MOL     H921005   0.540   2.562   6.188  3.5175  1.3273  1.5292
   59MOL    H1021006   0.434   2.486   6.455 -1.8499  1.6238 -1.5328
   59MOL    H1121007   0.410   2.395   6.306 -1.4113 -0.1381  2.8124
   59MOL    H1221008   0.685   2.434   6.431  1.2423 -1.0773 -0.1359
   59MOL    H1321009   0.752   2.248   6.291 -0.1105  0.3516  0.0530
   59MOL    H1421010   0.599   2.222   6.217  3.3137 -3.8784  0.5041
   59MOL    H1521011   0.680   2.385   6.205  0.6765  0.3152 -0.0417
   59MOL    H1621012   0.549   2.333   6.604  3.6654 -0.0556  0.6284
   59MOL    H1721013   0.648   2.219   6.543 -2.2499 -0.9027  5.1576
   59MOL    H1821014   0.476   2.219   6.490  0.2153 -0.4966 -1.8565
   59MOL    H1921015   0.306   2.684   6.322  1.0827  0.4298 -0.4694
   59MOL    C2021016   0.578   2.694   6.356  0.3415 -0.6399 -0.0774
   59MOL    C2121017   0.723   2.695   6.303  0.5775 -0.1193  0.5481
   59MOL    C2221018   0.742   2.788   6.176 -0.1542 -0.9592  0.5556
   59MOL    C2321019   0.836   2.728   6.062 -0.3675  0.0326  0.4134
   59MOL    C2421020   0.759   2.624   5.980  0.7153  0.4269  0.5379
   59MOL    C2521021   0.879   2.842   5.968 -0.4567  0.4362 -0.1414
   59MOL    H2621022   0.541   2.796   6.348 -0.5943 -1.0582 -1.3003
   59MOL    H2721023   0.582   2.687   6.465 -0.0067 -2.4530 -0.1744
   59MOL    H2821024   0.744   2.594   6.267 -0.4706 -0.0284 -0.3219
   59MOL    H2921025   0.785   2.884   6.203 -0.5548 -0.5882 -0.1085
   59MOL    H3021026   0.639   2.815   6.149  0.2457 -2.6750 -2.9555
   59MOL    H3121027   0.928   2.683   6.099  0.6914  1.6543 -0.2198
   59MOL    H3221028   0.778   2.530   6.032 -1.0549  0.9074  2.0964
   59MOL    H3321029   0.803   2.614   5.880 -0.8867  1.5211 -0.3003
   59MOL    H3421030   0.652   2.637   5.965 -0.0849 -1.8686  3.7132
   59MOL    H3521031   0.802   2.881   5.902 -0.7116  0.4331  0.1518
   59MOL    H3621032   0.912   2.926   6.029 -1.4200 -0.1420  1.2067
   59MOL    H3721033   0.971   2.814   5.917 -0.0798 -2.1850  1.9066
   59MOL    C3821034   0.820   2.732   6.423 -0.3253  0.3416  0.0540
   59MOL    C3921035   0.971   2.719   6.397 -0.1209 -0.3030 -0.0608
   59MOL    C4021036   1.006   2.565   6.392 -0.1432 -0.2791  0.2884
   59MOL    C4121037   1.155   2.526   6.374 -0.1604 -0.0922  0.5254
   59MOL    C4221038   1.195   2.555   6.230 -0.8275 -0.2126  0.0986
   59MOL    C4321039   1.165   2.378   6.398  0.2669 -0.3562 -0.0040
   59MOL    H4421040   0.796   2.663   6.504  1.1802 -0.9006 -0.5486
   59MOL    H4521041   0.805   2.836   6.451 -1.7008  0.4067 -0.8665
   59MOL    H4621042   0.980   2.757   6.295  1.3524  0.0938  0.1951
   59MOL    H4721043   0.938   2.518   6.322 -0.5368  2.1576 -1.0244
   59MOL    H4821044   0.974   2.520   6.486 -0.0440 -0.9521  0.0020
   59MOL    H4921045   1.232   2.569   6.438  1.4046 -1.7749 -0.1467
   59MOL    H5021046   1.175   2.656   6.195  0.2689 -0.2495 -0.6476
   59MOL    H5121047   1.300   2.532   6.209 -1.2306  0.9896 -3.6204
   59MOL    H5221048   1.138   2.499   6.156  2.2813  0.1416 -2.6882
   59MOL    H5321049   1.145   2.350   6.502 -0.6223 -0.1981 -0.1288
   59MOL    H5421050   1.258   2.330   6.367  0.6374 -1.0313  2.0605
   59MOL    H5521051   1.087   2.334   6.337  0.2414 -2.7154  1.6494
   59MOL    C5621052   1.048   2.821   6.484 -0.1034  0.3657  0.2309
   59MOL    C5721053   1.042   2.819   6.638  0.2395 -0.0869 -0.4851
   59MOL    C5821054   1.108   2.953   6.690  0.8696  0.1280  0.1482
   59MOL    C5921055   1.026   3.056   6.766  0.0615  0.3579 -0.5382
   59MOL    C6021056   0.964   3.137   6.658 -0.4907 -0.0435 -0.2487
   59MOL    C6121057   1.112   3.117   6.875 -0.4205 -0.5092  0.1058
   59MOL    H6221058   1.000   2.914   6.455  1.7875  0.5879 -2.3417
   59MOL    H6321059   1.153   2.822   6.455 -0.1753  1.4578  0.0033
   59MOL    H6421060   0.936   2.817   6.664  0.0266 -0.6562 -1.3883
   59MOL    H6521061   1.191   2.920   6.752  0.9718  0.4186  0.1658
   59MOL    H6621062   1.161   3.004   6.610  2.5610 -0.2456  1.0120
   59MOL    H6721063   0.950   3.004   6.824  0.6583  1.8917  1.6674
   59MOL    H6821064   0.895   3.207   6.706 -0.7421  0.0263 -0.7083
   59MOL    H6921065   0.909   3.086   6.578 -2.0363 -2.9373  2.5299
   59MOL    H7021066   1.035   3.195   6.600  0.7576 -1.0295  0.2631
   59MOL    H7121067   1.063   3.207   6.913 -0.4880 -1.0718  1.3728
   59MOL    H7221068   1.206   3.151   6.830 -1.3157  0.4360 -1.0824
   59MOL    H7321069   1.124   3.051   6.961  1.4673  0.1211  0.3494
   59MOL    C7421070   1.118   2.698   6.691 -0.3595  0.3076 -0.1463
   59MOL    C7521071   1.099   2.665   6.840 -0.2834  0.0054 -0.9409
   59MOL    C7621072   1.220   2.620   6.915 -0.0682  0.1750  0.0459
   59MOL    C7721073   1.277   2.475   6.900  0.2873  0.1476 -0.4787
   59MOL    C7821074   1.417   2.460   6.960 -0.2690 -0.3391 -0.4874
   59MOL    C7921075   1.280   2.433   6.754 -0.4175 -0.3376  0.4078
   59MOL    H8021076   1.223   2.701   6.662 -0.2348 -1.6458  0.0511
   59MOL    H8121077   1.085   2.608   6.640  1.5284 -1.0364  0.9349
   59MOL    H8221078   1.094   2.764   6.886  0.4794 -0.2702 -0.2458
   59MOL    H8321079   1.299   2.687   6.882 -1.7177  1.9062 -0.4155
   59MOL    H8421080   1.216   2.639   7.022  1.8370 -0.6858  0.3140
   59MOL    H8521081   1.217   2.408   6.962  1.2829 -0.3019  0.0104
   59MOL    H8621082   1.466   2.376   6.911  3.7094  1.4429  0.2179
   59MOL    H8721083   1.415   2.441   7.067  3.3823  1.1377 -0.0881
   59MOL    H8821084   1.484   2.540   6.930 -1.6491  0.8277 -0.5352
   59MOL    H8921085   1.346   2.491   6.690 -0.7726  0.7046  0.9720
   59MOL    H9021086   1.313   2.329   6.741  1.2492  0.0984  1.0575
   59MOL    H9121087   1.181   2.439   6.708  0.5794 -1.2824 -1.9268
   59MOL    C9221088   0.966   2.590   6.878  0.0740 -0.1503 -0.5551
   59MOL    C9321089   0.842   2.675   6.925  0.3689 -0.5757  0.1380
   59MOL    C9421090   0.707   2.596   6.915 -0.1636  0.2848  0.7151
   59MOL    C9521091   0.628   2.604   6.778  0.6957  0.3869 -0.5231
   59MOL    C9621092   0.503   2.514   6.789  0.2432  0.0490 -0.2063
   59MOL    C9721093   0.592   2.752   6.730  0.0789 -0.0370 -0.0739
   59MOL    H9821094   0.933   2.526   6.797  1.4734 -2.5384  0.6962
   59MOL    H9921095   0.992   2.517   6.955 -0.5568 -0.5202 -0.6885
   59MOL   H10021096   0.830   2.769   6.871 -0.7991 -2.1898 -2.5143
   59MOL   H10121097   0.640   2.638   6.990 -2.5012 -0.0925 -1.0998
   59MOL   H10221098   0.733   2.497   6.951 -1.0430  0.0903  0.8160
   59MOL   H10321099   0.687   2.550   6.704 -0.8216 -0.2465 -1.2985
   59MOL   H10421100   0.451   2.548   6.878  2.2078 -0.5421  1.2148
   59MOL   H10521101   0.527   2.408   6.793  0.9999  0.2387  0.4371
   59MOL   H10621102   0.440   2.538   6.704 -0.2816 -0.6094 -0.0050
   59MOL   H10721103   0.510   2.742   6.659  0.4748 -0.9218 -0.4222
   59MOL   H10821104   0.671   2.802   6.674  2.0384 -1.8568  0.9866
   59MOL   H10921105   0.560   2.818   6.810  0.2998  0.2721 -0.2391
   59MOL   C11021106   0.856   2.742   7.068  0.4117  0.2662 -0.0476
   59MOL   C11121107   0.943   2.676   7.174  0.4799  0.0896  0.7689
   59MOL   C11221108   0.978   2.778   7.282  0.6886  0.2436 -0.5729
   59MOL   C11321109   1.095   2.866   7.238  0.3020 -0.1601 -0.3170
   59MOL   C11421110   1.229   2.791   7.256  0.2669  0.1841 -0.2856
   59MOL   C11521111   1.101   3.003   7.307  0.0665  0.1678 -0.4455
   59MOL   H11621112   0.757   2.755   7.110  0.6919  0.3557  0.5794
   59MOL   H11721113   0.883   2.848   7.062  2.1617 -0.1869 -0.6635
   59MOL   H11821114   1.031   2.653   7.114  0.5251  0.4936  0.6766
   59MOL   H11921115   0.991   2.741   7.384 -2.8844  0.1657 -0.0965
   59MOL   H12021116   0.890   2.836   7.307 -0.4741 -0.7306 -2.2833
   59MOL   H12121117   1.081   2.884   7.131 -1.3735 -0.4359 -0.1606
   59MOL   H12221118   1.311   2.837   7.201 -0.5823  2.1732  0.0478
   59MOL   H12321119   1.235   2.690   7.216 -0.5497  0.2546 -0.5994
   59MOL   H12421120   1.248   2.777   7.362 -0.5062 -1.2998 -0.3258
   59MOL   H12521121   1.000   3.044   7.318  0.4627  0.5802  2.1161
   59MOL   H12621122   1.155   3.079   7.251 -0.6313 -0.5406 -2.0927
   59MOL   H12721123   1.139   2.996   7.409  0.8243 -1.6061 -0.8375
   59MOL   C12821124   0.880   2.554   7.241  0.5338 -0.4317  0.3472
   59MOL   C12921125   0.956   2.463   7.337  0.6728  0.5792 -0.1927
   59MOL   C13021126   1.056   2.370   7.258  0.2185 -0.6387 -0.1758
   59MOL   C13121127   1.172   2.304   7.339  0.9830 -0.9163  0.4261
   59MOL   C13221128   1.248   2.197   7.250 -0.0782 -0.0962 -0.0974
   59MOL   C13321129   1.274   2.411   7.390  0.4626  0.7548 -0.1742
   59MOL   H13421130   0.841   2.488   7.164 -0.2020  0.1949  0.1637
   59MOL   H13521131   0.789   2.600   7.280  0.9048  0.0756  0.6214
   59MOL   H13621132   1.008   2.530   7.405  0.1165 -1.0883  1.9134
   59MOL   H13721133   0.996   2.291   7.213 -1.4410 -0.5271  1.7511
   59MOL   H13821134   1.104   2.426   7.177  2.1938 -1.0674  0.6678
   59MOL   H13921135   1.136   2.256   7.429  0.1899 -0.5639  0.3028
   59MOL   H14021136   1.166   2.131   7.222 -0.1844 -0.3130  0.6911
   59MOL   H14121137   1.315   2.142   7.316 -0.0508 -0.7312 -0.6625
   59MOL   H14221138   1.296   2.240   7.162  1.2541 -0.2422  0.5407
   59MOL   H14321139   1.220   2.456   7.473  0.1358  0.2775 -0.1211
   59MOL   H14421140   1.370   2.373   7.426 -0.5443 -1.8110 -0.0614
   59MOL   H14521141   1.307   2.486   7.319  0.1831 -1.0697 -2.2909
   59MOL   C14621142   0.859   2.387   7.428  0.2473  0.0612  0.1726
   59MOL   C14721143   0.810   2.460   7.554  0.2186  0.6609 -0.0334
   59MOL   C14821144   0.901   2.427   7.672  0.0895  0.8968 -0.0152
   59MOL   C14921145   0.896   2.530   0.039  0.3640 -0.1949 -0.3425
   59MOL   C15021146   0.999   2.497   0.145 -0.2949  0.7232  0.5110
   59MOL   C15121147   0.905   2.682   7.749 -0.4423  0.4253 -0.1488
   59MOL   H15221148   0.900   2.290   7.455  2.6494  0.8806 -0.3946
   59MOL   H15321149   0.773   2.356   7.369  1.8949 -0.1673 -2.2237
   59MOL   H15421150   0.809   2.569   7.542  3.6342  0.6687 -0.7263
   59MOL   H15521151   0.889   2.326   7.709  0.5052  0.5750 -0.7444
   59MOL   H15621152   1.002   2.421   7.631  0.2925  0.2139  0.5804
   59MOL   H15721153   0.797   2.534   0.084  0.1377 -0.1842 -0.8474
   59MOL   H15821154   1.097   2.523   0.104  0.3160 -2.4794 -0.2242
   59MOL   H15921155   0.993   2.388   0.150 -0.7879  0.5571 -2.4878
   59MOL   H16021156   0.991   2.541   0.244 -1.5814  0.5191  0.4969
   59MOL   H16121157   0.924   2.742   0.086  1.3626 -0.7363  0.2888
   59MOL   H16221158   0.820   2.720   7.694  0.0720  1.5794 -0.1702
   59MOL   H16321159   0.999   2.693   7.694 -0.9388 -0.5625 -1.1865
   59MOL   C16421160   0.663   2.418   7.583 -0.5556  0.3687  0.5283
   59MOL   C16521161   0.554   2.484   7.486 -1.0103 -0.4210 -0.7872
   59MOL   C16621162   0.421   2.415   7.502 -0.3853 -0.2316  0.2510
   59MOL   C16721163   0.400   2.282   7.421  0.5604  0.3855  0.2022
   59MOL   C16821164   0.263   2.224   7.446  0.2279  0.3115  0.0418
   59MOL   C16921165   0.433   2.300   7.273  0.0148 -0.2709 -0.3205
   59MOL   H17021166   0.648   2.310   7.577  0.4693  0.1607  1.4628
   59MOL   H17121167   0.631   2.436   7.686 -1.8526  0.3776  0.1268
   59MOL   H17221168   0.587   2.462   7.384  0.7450  2.2219 -0.8386
   59MOL   H17321169   0.391   2.394   7.604 -1.3019 -0.5648 -0.0859
   59MOL   H17421170   0.344   2.488   7.476  2.6968  1.9522 -3.4438
   59MOL   H17521171   0.471   2.205   7.449  0.7836  0.0571 -1.2062
   59MOL   H17621172   0.183   2.278   7.394 -0.7369 -1.2875 -0.1603
   59MOL   H17721173   0.249   2.244   7.552  1.0196  1.6255 -0.0917
   59MOL   H17821174   0.252   2.118   7.427  1.8791  0.1094  0.1718
   59MOL   H17921175   0.541   2.294   7.260  0.0295 -0.6562 -0.0353
   59MOL   H18021176   0.413   2.402   7.241 -2.4632 -0.0825  1.7082
   59MOL   H18121177   0.382   2.229   7.208 -0.8992  0.7461 -0.7228
   59MOL   C18221178   0.539   2.634   7.516  0.0727  0.2090 -0.0957
   59MOL   C18321179   0.442   2.731   7.441 -0.5323 -0.1282  0.2731
   59MOL   C18421180   0.443   2.871   7.499  0.8412  0.1862 -0.1017
   59MOL   C18521181   0.307   2.929   7.550 -0.0228  0.1938  0.4241
   59MOL   C18621182   0.273   2.877   7.693  0.0824  0.6169 -0.1606
   59MOL   C18721183   0.307   3.083   7.547  0.0722  0.0962 -0.0135
   59MOL   H18821184   0.638   2.679   7.513 -0.2498  0.8857 -0.5919
   59MOL   H18921185   0.508   2.624   7.621  1.0597 -2.6075 -0.0243
   59MOL   H19021186   0.342   2.695   7.465 -0.9341 -0.4155 -1.7898
   59MOL   H19121187   0.482   2.948   7.432 -3.5959  1.3382 -1.5660
   59MOL   H19221188   0.509   2.869   7.586  0.3905  0.0652  0.2388
   59MOL   H19321189   0.228   2.895   7.484 -0.5514 -1.6494  1.9669
   59MOL   H19421190   0.273   2.768   7.688  0.4530  0.6296 -0.4241
   59MOL   H19521191   0.175   2.906   7.731  1.1956  2.8157  1.1324
   59MOL   H19621192   0.349   2.909   0.013 -0.7452  1.9546  0.1351
   59MOL   H19721193   0.380   3.126   7.616  1.1663 -1.3127 -0.2724
   59MOL   H19821194   0.205   3.123   7.551 -0.1264 -0.4110 -0.0681
   59MOL   H19921195   0.340   3.107   7.446  0.5048  3.2402  0.7964
   59MOL   C20021196   0.462   2.732   7.289  0.3788  0.4269  0.0234
   59MOL   C20121197   0.337   2.777   7.207 -0.3043 -0.0862  0.3903
   59MOL   C20221198   0.240   2.660   7.199 -0.2261  0.2392 -0.0498
   59MOL   C20321199   0.092   2.681   7.235 -0.0405 -0.3651  0.2824
   59MOL   C20421200   0.024   2.715   7.098  0.0406  0.9590  0.2078
   59MOL   C20521201   0.020   2.564   7.285  0.0234 -0.5658 -0.0300
   59MOL   H20621202   0.490   2.637   7.243  1.8072  0.4504  0.8216
   59MOL   H20721203   0.558   2.781   7.274  1.9357 -1.7312  2.5614
   59MOL   H20821204   0.286   2.854   7.266 -1.5829 -0.3406 -0.3651
   59MOL   H20921205   0.262   2.600   7.110  0.8013  0.6835 -0.0962
   59MOL   H21021206   0.283   2.586   7.267  2.4653  1.5865 -0.2247
   59MOL   H21121207   0.077   2.764   7.304 -1.2458  0.9054 -1.4600
   59MOL   H21221208   0.069   2.791   7.034  1.5696 -1.7547 -2.0251
   59MOL   H21321209   7.681   2.757   7.129 -0.0402  1.7716 -1.1015
   59MOL   H21421210   0.013   2.629   7.032  1.7123  0.8342  0.0528
   59MOL   H21521211   7.674   2.597   7.319 -0.1639  1.2261 -2.2149
   59MOL   H21621212   0.073   2.527   7.373  0.3554 -2.0647 -0.8516
   59MOL   H21721213   0.011   2.483   7.214  1.6608  0.1080 -1.0391
   59MOL   C21821214   0.376   2.836   7.068  0.1179 -0.0811  0.3188
   59MOL   C21921215   0.411   2.991   7.070  0.8418 -0.5347  0.3121
   59MOL   C22021216   0.541   3.028   7.139 -0.0114 -0.2446 -0.0437
   59MOL   C22121217   0.636   3.139   7.096  0.7479  0.4270 -0.3337
   59MOL   C22221218   0.759   3.138   7.188 -0.2962  0.0190  0.3231
   59MOL   C22321219   0.678   3.129   6.943  0.6026 -0.1898  1.0986
   59MOL   H22421220   0.464   2.790   7.023  1.5898  2.0594  0.9532
   59MOL   H22521221   0.293   2.821   6.999  0.6844  1.1484 -0.6350
   59MOL   H22621222   0.435   3.017   6.967 -1.1148  0.5892  0.1235
   59MOL   H22721223   0.524   3.025   7.247 -1.2300 -0.3744 -0.2333
   59MOL   H22821224   0.601   2.937   7.129  2.4001  1.3379 -0.2970
   59MOL   H22921225   0.586   3.234   7.116  0.9572  0.4592  0.0390
   59MOL   H23021226   0.816   3.046   7.174 -0.2537  0.2135 -0.8291
   59MOL   H23121227   0.817   3.230   7.174 -0.9389  0.4314  0.3312
   59MOL   H23221228   0.730   3.154   7.292  1.0745 -1.2276  0.9079
   59MOL   H23321229   0.725   3.034   6.916 -0.4915  0.1131 -2.0566
   59MOL   H23421230   0.603   3.153   6.868  0.0649 -0.3389  1.5886
   59MOL   H23521231   0.756   3.204   6.929  1.0687 -0.9811 -0.7347
   59MOL   C23621232   0.290   3.079   7.106  0.2229  0.1278 -0.1835
   59MOL   C23721233   0.181   3.089   6.995 -0.6729  0.4114 -0.0284
   59MOL   C23821234   0.219   3.195   6.885 -0.0489  0.5658  0.3460
   59MOL   C23921235   0.181   3.169   6.736  0.3685  0.2752 -0.7788
   59MOL   C24021236   0.191   3.294   6.641 -0.3837  0.3009 -0.1473
   59MOL   C24121237   0.254   3.049   6.669 -0.3906 -0.3303  0.5087
   59MOL   H24221238   0.332   3.176   7.134 -0.5657  1.1585 -2.4194
   59MOL   H24321239   0.249   3.041   7.200  1.6337  1.3350  0.9481
   59MOL   H24421240   0.158   2.994   6.948  1.2368  0.9536 -2.1801
   59MOL   H24521241   0.327   3.205   6.881  0.3133 -2.0960  1.9292
   59MOL   H24621242   0.174   3.293   6.895 -4.2310 -1.1089 -0.8226
   59MOL   H24721243   0.076   3.139   6.736  0.3769  0.0677 -3.6934
   59MOL   H24821244   0.173   3.274   6.535 -0.9686 -0.0350  0.0120
   59MOL   H24921245   0.293   3.332   6.652 -0.6149  0.8856 -0.0136
   59MOL   H25021246   0.121   3.364   6.686 -0.4676  1.4358 -2.0177
   59MOL   H25121247   0.221   3.047   6.566  0.9461  2.7656 -0.0199
   59MOL   H25221248   0.250   2.957   6.727 -0.6691 -1.1965 -0.8633
   59MOL   H25321249   0.361   3.068   6.659 -0.1801 -1.8497 -0.2893
   59MOL   C25421250   0.036   3.118   7.046  0.2797  0.0806 -0.3884
   59MOL   C25521251   0.019   3.252   7.117  1.0076 -0.2891 -0.0017
   59MOL   C25621252   7.684   3.350   7.030 -0.1239 -0.1300 -0.2247
   59MOL   C25721253   7.716   3.503   7.058 -0.1244  0.4512  0.3637
   59MOL   C25821254   7.601   3.585   7.006 -0.7705 -0.4003  0.3370
   59MOL   C25921255   0.109   3.547   7.003  0.2713 -0.1715  0.1433
   59MOL   H26021256   7.721   3.110   6.961 -0.1662  0.9814 -0.1252
   59MOL   H26121257   0.004   3.042   7.117 -1.0167 -0.0071 -1.0489
   59MOL   H26221258   0.118   3.299   7.118  0.6736  0.4688 -1.0942
   59MOL   H26321259   7.580   3.319   7.040  0.0694 -0.2529  1.5294
   59MOL   H26421260   7.706   3.336   6.924  2.0310  0.5358  0.1136
   59MOL   H26521261   7.713   3.522   7.165  3.0622  0.8174  0.4394
   59MOL   H26621262   7.611   3.686   7.045  1.9629  0.3694 -2.2024
   59MOL   H26721263   7.509   3.530   7.025 -1.7083  1.8100  2.5125
   59MOL   H26821264   7.594   3.589   6.898 -0.3244  1.6416  0.3786
   59MOL   H26921265   0.188   3.489   7.050 -0.2293  0.9792  2.4598
   59MOL   H27021266   0.100   3.545   6.894  0.2171 -0.1943  0.1481
   59MOL   H27121267   0.119   3.652   7.030 -1.0819 -0.0785  0.3145
   59MOL   C27221268   7.733   3.236   7.266 -0.0913 -0.1480  0.1060
   59MOL   C27321269   7.588   3.181   7.293 -0.0752 -0.4279 -0.0490
   59MOL   C27421270   7.583   3.043   7.370 -0.2433  0.3218 -0.4203
   59MOL   C27521271   7.445   2.977   7.403 -1.1096  0.0604 -0.1211
   59MOL   C27621272   7.460   2.860   7.505 -0.2635 -0.1433 -0.3976
   59MOL   C27721273   7.374   2.936   7.275  0.2758 -0.1717  0.2901
   59MOL   H27821274   0.058   3.178   7.318  0.4327 -0.4698 -1.0275
   59MOL   H27921275   7.746   3.336   7.307  2.1768  0.3847 -1.8447
   59MOL   H28021276   7.553   3.158   7.192  0.5812  1.9338 -0.8389
   59MOL   H28121277   7.621   3.064   7.470 -0.3359  1.0691 -0.5389
   59MOL   H28221278   7.646   2.967   7.324  2.3849  2.1200  0.1007
   59MOL   H28321279   7.383   3.046   7.460 -2.8678 -1.5386 -0.0607
   59MOL   H28421280   7.513   2.776   7.461  2.9286  0.8872  1.3008
   59MOL   H28521281   7.502   2.891   7.601  1.1986 -3.0143 -0.0474
   59MOL   H28621282   7.365   2.826   7.548 -0.1376  0.2377  0.1918
   59MOL   H28721283   7.361   3.021   7.207  0.3456  0.1072  0.6227
   59MOL   H28821284   7.417   2.850   7.224 -2.1568 -0.8552 -0.7386
   59MOL   H28921285   7.275   2.896   7.299  1.5136 -2.7648  1.1818
   59MOL   C29021286   7.494   3.291   7.347 -0.6988  0.9145 -0.7570
   59MOL   C29121287   7.533   3.355   7.485 -1.2806 -0.1302  0.1284
   59MOL   C29221288   7.487   3.508   7.494 -0.2809 -0.3703  0.2445
   59MOL   C29321289   7.547   3.610   7.401 -0.3962 -0.0644  0.9466
   59MOL   C29421290   7.455   3.737   7.394  0.5226  0.1689  0.4503
   59MOL   C29521291   7.688   3.648   7.441 -0.0978  0.5208  0.8215
   59MOL   H29621292   7.483   3.371   7.274 -0.6280  1.7052  0.0846
   59MOL   H29721293   7.397   3.248   7.372  2.1562 -4.3269  2.3454
   59MOL   H29821294   7.641   3.368   7.491 -0.8296 -1.6162 -3.3173
   59MOL   H29921295   7.498   3.534   7.599 -1.2497  0.1399  0.2223
   59MOL   H30021296   7.379   3.507   7.479 -0.3488 -0.1775  0.7260
   59MOL   H30121297   7.556   3.567   7.301 -0.8052  3.8143 -0.8485
   59MOL   H30221298   7.504   3.815   7.336  0.7663 -0.2704  0.0582
   59MOL   H30321299   7.444   3.783   7.493  1.1114 -1.0721  1.1094
   59MOL   H30421300   7.357   3.717   7.353  0.7793 -1.7678  0.7340
   59MOL   H30521301   7.724   3.724   7.372 -0.1324  1.1138  1.4553
   59MOL   H30621302   0.007   3.565   7.438  0.2402  0.7277  2.7628
   59MOL   H30721303   7.681   3.682   7.544  0.0129  1.8846  0.3780
   59MOL   C30821304   7.483   3.273   7.610  0.2611  0.5699 -0.8720
   59MOL   C30921305   7.556   3.304   7.751 -0.0482 -0.5422  0.3217
   59MOL   C31021306   7.463   3.269   0.119  0.1701 -0.4380 -0.1487
   59MOL   C31121307   7.338   3.362   0.141 -0.4612  0.6123  0.3525
   59MOL   C31221308   7.238   3.289   0.228 -0.6096  0.0424 -0.9163
   59MOL   C31321309   7.383   3.494   0.205 -0.1461  0.3676 -0.2766
   59MOL   H31421310   7.379   3.304   7.614 -0.0976 -0.7364  0.5924
   59MOL   H31521311   7.480   3.164   7.605  2.5908  0.4571 -0.5967
   59MOL   H31621312   7.577   3.411   7.747 -2.3849 -0.1028 -0.6392
   59MOL   H31721313   7.526   3.269   0.208 -1.3355 -2.2378  0.9669
   59MOL   H31821314   7.428   3.166   0.109  1.9516 -1.2070  1.3369
   59MOL   H31921315   7.286   3.380   0.046  0.1419  1.6500  0.2057
   59MOL   H32021316   7.291   3.252   0.316 -2.4518  2.5340  1.3303
   59MOL   H32121317   7.187   3.205   0.181 -2.1056  0.9397 -0.9311
   59MOL   H32221318   7.164   3.359   0.267  0.4578  0.3753  0.5543
   59MOL   H32321319   7.299   3.557   0.234 -2.1472 -3.0215  1.6178
   59MOL   H32421320   7.431   3.484   0.302  0.7259  0.0271 -0.7364
   59MOL   H32521321   7.448   3.549   0.138 -1.9672  0.7528 -1.7724
   59MOL   C32621322   7.699   3.237   0.001  0.0951  0.5329 -0.2539
   59MOL   C32721323   0.061   3.314   0.065 -0.1811 -0.5012  0.0884
   59MOL   C32821324   0.115   3.428   7.720  0.3811 -0.1631 -0.3684
   59MOL   C32921325   0.176   3.563   0.024  0.1549  0.1045 -0.3518
   59MOL   C33021326   0.238   3.650   7.669 -0.1191 -0.6644  0.3161
   59MOL   C33121327   0.088   3.637   0.123 -0.4733 -0.2171 -0.1616
   59MOL   H33221328   7.730   3.216   7.651 -1.7256  2.8556 -1.3269
   59MOL   H33321329   7.690   3.143   0.055  1.5935  0.6882  0.2858
   59MOL   H33421330   0.019   3.358   0.156 -1.0919  1.3411 -1.1842
   59MOL   H33521331   0.187   3.385   7.650 -0.2236 -2.8060  0.5715
   59MOL   H33621332   0.040   3.438   7.641 -0.9487  0.7896  0.9971
   59MOL   H33721333   0.255   3.524   0.089  0.2286 -1.7007 -1.4639
   59MOL   H33821334   0.292   3.738   7.706 -3.1281  0.9135  1.1494
   59MOL   H33921335   0.160   3.689   7.603 -0.2533 -0.4110  0.6275
   59MOL   H34021336   0.307   3.603   7.599 -0.8152  0.7457 -1.3706
   59MOL   H34121337   7.737   3.621   0.092 -0.6512 -0.8842  0.7545
   59MOL   H34221338   0.120   3.613   0.224  0.8210  0.4665 -0.3888
   59MOL   H34321339   0.109   3.744   0.125  0.2344 -0.3800  2.7435
   59MOL   C34421340   0.184   3.225   0.102 -0.1975 -0.3334  0.2516
   59MOL   C34521341   0.164   3.108   0.206  0.1150 -0.1506 -0.6269
   59MOL   C34621342   0.104   3.158   0.335 -0.0991 -0.1662  0.2249
   59MOL   C34721343   0.099   3.036   0.439 -0.0217 -0.2774 -0.2884
   59MOL   C34821344   0.229   3.003   0.519  0.6078  0.0346 -0.0651
   59MOL   C34921345   0.028   2.903   0.396  0.2844  0.3335 -0.0639
   59MOL   H35021346   0.271   3.272   0.146  1.6329 -1.6047 -1.8990
   59MOL   H35121347   0.223   3.179   0.011 -0.1493 -0.9160  0.5683
   59MOL   H35221348   0.266   3.076   0.229  0.3632  0.6162 -0.6579
   59MOL   H35321349   0.167   3.239   0.373  0.1495 -0.5039  0.5308
   59MOL   H35421350   0.003   3.199   0.333  0.3349  0.8960 -1.7180
   59MOL   H35521351   0.032   3.064   0.520 -1.2186  0.5694 -1.5554
   59MOL   H35621352   0.208   2.929   0.597  0.6727  0.3082  0.2145
   59MOL   H35721353   0.311   2.962   0.460 -0.1252 -0.4723 -0.7402
   59MOL   H35821354   0.252   3.094   0.575  2.5328  0.3415 -1.3016
   59MOL   H35921355   0.086   2.841   0.327  0.7074 -1.2341  1.6881
   59MOL   H36021356   7.689   2.936   0.345  0.8819  0.1525 -1.2742
   59MOL   H36121357   7.739   2.838   0.473 -1.7428  0.8523 -0.6797
   59MOL   H36221358   0.110   3.029   0.153  1.4727 -0.2178 -1.9532
   60MOL     C121359   4.145   3.253   5.132  0.2480  0.1268 -0.4002
   60MOL     C221360   4.191   3.218   5.270  0.3410  0.2486 -0.0631
   60MOL     C321361   4.340   3.253   5.287  0.3273 -0.1643  0.2298
   60MOL     C421362   4.362   3.407   5.295  0.2759 -0.7544 -0.2561
   60MOL     C521363   4.491   3.456   5.220  0.4417  0.0323 -0.3605
   60MOL     C621364   4.362   3.457   5.437  0.5455  0.6337 -0.0991
   60MOL     H721365   4.047   3.209   5.117  0.6004 -0.7649 -0.1153
   60MOL     H821366   4.133   3.358   5.108 -0.1055  0.0926 -0.3728
   60MOL     H921367   4.140   3.282   5.342 -0.4474  2.1162 -2.2052
   60MOL    H1021368   4.383   3.193   5.368  0.6524 -0.3260 -0.0590
   60MOL    H1121369   4.392   3.233   5.194  0.7509  0.7622  0.2711
   60MOL    H1221370   4.284   3.464   5.244 -1.2774 -2.0185  0.6632
   60MOL    H1321371   4.580   3.402   5.248  1.2221  1.5780  0.2028
   60MOL    H1421372   4.474   3.431   5.115 -1.2265 -1.7820  0.3065
   60MOL    H1521373   4.501   3.564   5.235  1.5919 -0.1955  0.5489
   60MOL    H1621374   4.276   3.419   5.492  0.2848 -1.6168 -1.9938
   60MOL    H1721375   4.350   3.565   5.437  0.2723  0.6238 -2.3206
   60MOL    H1821376   4.455   3.440   5.491  0.6890 -0.0815 -0.5688
   60MOL    H1921377   4.209   3.213   5.053 -1.3303 -0.9323 -1.1734
   60MOL    C2021378   4.152   3.086   5.311  0.5737 -0.5517 -0.9032
   60MOL    C2121379   4.235   2.965   5.276 -0.2807  0.0148  0.5528
   60MOL    C2221380   4.193   2.849   5.369  0.1547  0.0797 -0.3229
   60MOL    C2321381   4.275   2.813   5.497 -0.0028 -0.4784  0.9198
   60MOL    C2421382   4.280   2.922   5.599 -0.0396 -0.2932  0.5724
   60MOL    C2521383   4.228   2.680   5.560  1.0409 -0.4526  0.0511
   60MOL    H2621384   4.142   3.096   5.419 -1.5737  0.7756 -1.1884
   60MOL    H2721385   4.045   3.070   5.293  0.1254 -0.2459  1.2895
   60MOL    H2821386   4.338   2.978   5.311  0.4899 -0.5468 -1.4140
   60MOL    H2921387   4.186   2.756   5.312 -1.7084  0.4435 -0.7286
   60MOL    H3021388   4.089   2.861   5.401  0.6777  2.7235  0.4967
   60MOL    H3121389   4.374   2.788   5.458 -0.2922  1.3845 -1.0658
   60MOL    H3221390   4.331   3.009   5.556 -0.6354  0.5042  1.4574
   60MOL    H3321391   4.333   2.882   5.685  0.1523 -2.9382 -0.7365
   60MOL    H3421392   4.185   2.956   5.640  1.3082  4.3615  0.1483
   60MOL    H3521393   4.252   2.597   5.495 -0.8372 -0.5501 -0.5415
   60MOL    H3621394   4.284   2.661   5.652  2.1197  1.5412 -0.1522
   60MOL    H3721395   4.123   2.685   5.590  0.5982  1.0785 -1.6813
   60MOL    C3821396   4.235   2.923   5.129 -0.2380 -0.0244 -0.6419
   60MOL    C3921397   4.356   2.828   5.089  0.6173  0.1847 -0.8708
   60MOL    C4021398   4.487   2.902   5.101  0.4021  0.1681  0.2040
   60MOL    C4121399   4.613   2.816   5.058 -0.3706  0.1412 -0.0691
   60MOL    C4221400   4.637   2.709   5.165  0.0207  0.6890 -0.6778
   60MOL    C4321401   4.738   2.902   5.048  0.5176  0.2440  0.0685
   60MOL    H4421402   4.251   3.015   5.074 -0.2056  1.3337  1.5637
   60MOL    H4521403   4.136   2.879   5.115 -0.1211 -0.5936  0.2598
   60MOL    H4621404   4.350   2.739   5.151 -1.0331 -0.5725 -2.0701
   60MOL    H4721405   4.513   2.934   5.202 -0.4597 -0.3143  0.5853
   60MOL    H4821406   4.494   2.995   5.044  0.6402  0.0794  0.0895
   60MOL    H4921407   4.595   2.766   4.963  0.8287  0.7807 -0.6434
   60MOL    H5021408   4.561   2.632   5.166  1.5825 -0.8788  0.9716
   60MOL    H5121409   4.722   2.643   5.148  0.0370  0.7667 -0.8952
   60MOL    H5221410   4.649   2.764   5.258  0.1565  1.3960 -1.1084
   60MOL    H5321411   4.716   3.004   5.018  1.3262  0.8259  1.4132
   60MOL    H5421412   4.809   2.854   4.981 -1.1894 -1.1631 -0.8129
   60MOL    H5521413   4.773   2.915   5.150 -0.1005 -3.1645  0.7993
   60MOL    C5621414   4.337   2.786   4.939 -0.3757  0.6207  0.4905
   60MOL    C5721415   4.315   2.632   4.924 -0.0978  0.0003 -0.1133
   60MOL    C5821416   4.323   2.607   4.770  0.4998  0.0517  0.6531
   60MOL    C5921417   4.455   2.640   4.697  0.7504  0.7879 -0.3699
   60MOL    C6021418   4.423   2.619   4.552 -0.0603 -0.0660 -0.8392
   60MOL    C6121419   4.571   2.545   4.750 -0.3447 -0.6265 -0.1127
   60MOL    H6221420   4.421   2.819   4.878 -2.4840  0.9065 -2.3932
   60MOL    H6321421   4.258   2.840   4.886  0.8971 -0.2258 -2.3523
   60MOL    H6421422   4.402   2.580   4.964  1.0384  0.2017 -2.2287
   60MOL    H6521423   4.305   2.500   4.759  0.4254 -0.0440  1.6503
   60MOL    H6621424   4.241   2.650   4.711 -0.1413 -0.9542  0.8019
   60MOL    H6721425   4.479   2.746   4.710  1.6001  0.7059 -1.1865
   60MOL    H6821426   4.392   2.515   4.541  1.6148 -0.9254  1.9123
   60MOL    H6921427   4.507   2.645   4.488 -0.5431 -0.7367 -1.7505
   60MOL    H7021428   4.348   2.697   4.536 -1.2256 -0.8736  0.5444
   60MOL    H7121429   4.582   2.540   4.859 -0.0859 -0.1144 -0.1104
   60MOL    H7221430   4.663   2.590   4.712  1.0690 -2.1031  1.4699
   60MOL    H7321431   4.557   2.443   4.715 -1.3796 -0.1183 -1.1992
   60MOL    C7421432   4.195   2.572   5.001  0.2024  0.0321 -0.6559
   60MOL    C7521433   4.216   2.436   5.073 -0.1513 -0.0639 -0.3617
   60MOL    C7621434   4.088   2.360   5.097  0.0127  0.1238  0.0535
   60MOL    C7721435   4.066   2.218   5.035  0.5416  1.2202  0.3542
   60MOL    C7821436   4.041   2.230   4.887  0.0880  0.5137  0.5278
   60MOL    C7921437   3.955   2.135   5.100 -0.5945 -0.6056  0.6300
   60MOL    H8021438   4.115   2.552   4.930 -1.0042  0.0998  0.6711
   60MOL    H8121439   4.137   2.639   5.063  0.0297  0.4120 -1.2241
   60MOL    H8221440   4.278   2.375   5.007 -0.5813 -1.2977  0.3693
   60MOL    H8321441   4.085   2.341   5.204 -1.4772  1.7896  0.3255
   60MOL    H8421442   4.002   2.420   5.067  0.6738  0.1208 -1.9321
   60MOL    H8521443   4.161   2.166   5.048 -0.1820 -0.1698  0.1638
   60MOL    H8621444   3.969   2.309   4.871 -2.7031 -1.8985  0.7292
   60MOL    H8721445   4.028   2.133   4.839  1.4104  0.7059 -0.2482
   60MOL    H8821446   4.119   2.284   4.833 -1.0348  0.4544 -1.1821
   60MOL    H8921447   3.925   2.185   5.192 -2.0105  1.5986 -0.9968
   60MOL    H9021448   3.872   2.105   5.037  0.2571 -0.3029 -0.6531
   60MOL    H9121449   4.000   2.047   5.148  2.7238 -0.3056 -1.7512
   60MOL    C9221450   4.301   2.454   5.203  0.1486 -0.2741 -0.7018
   60MOL    C9321451   4.351   2.322   5.259 -1.4866  0.2791 -0.5232
   60MOL    C9421452   4.503   2.307   5.253 -0.2251 -0.0717  0.8394
   60MOL    C9521453   4.568   2.289   5.111 -0.1736 -0.5953 -0.2721
   60MOL    C9621454   4.724   2.283   5.128 -0.1481  0.8457  0.5747
   60MOL    C9721455   4.522   2.166   5.023  0.0691  0.0775 -0.7037
   60MOL    H9821456   4.388   2.514   5.175 -0.2604  0.7513  0.2286
   60MOL    H9921457   4.246   2.517   5.273  2.4231 -0.1408  1.0344
   60MOL   H10021458   4.310   2.234   5.208 -1.7279 -1.0714  1.9199
   60MOL   H10121459   4.533   2.209   5.290  1.2745  0.0960  0.0871
   60MOL   H10221460   4.543   2.385   5.318 -0.2786 -2.0120  3.2505
   60MOL   H10321461   4.563   2.377   5.047 -0.2939 -1.0933 -0.9401
   60MOL   H10421462   4.752   2.387   5.148 -1.5288  1.0823  1.3295
   60MOL   H10521463   4.778   2.250   5.040 -3.5265 -0.3551 -1.0968
   60MOL   H10621464   4.770   2.237   5.216 -1.9340  0.3853  1.2875
   60MOL   H10721465   4.562   2.175   4.922 -0.6387 -2.3293 -1.2460
   60MOL   H10821466   4.414   2.151   5.020 -0.0062  0.6830 -1.2370
   60MOL   H10921467   4.574   2.076   5.057  1.0590  0.5146 -1.0588
   60MOL   C11021468   4.308   2.299   5.407  0.3287 -0.6426 -0.6822
   60MOL   C11121469   4.301   2.155   5.445  0.5165  0.6254 -0.3984
   60MOL   C11221470   4.313   2.148   5.600  0.4698 -0.1579  0.0670
   60MOL   C11321471   4.454   2.151   5.662 -0.2351  0.1258 -0.6464
   60MOL   C11421472   4.520   2.015   5.634  0.1947 -0.3960 -0.7333
   60MOL   C11521473   4.446   2.186   5.813 -0.3305  0.3605 -0.0226
   60MOL   H11621474   4.216   2.355   5.425  0.4579 -0.8481  0.7061
   60MOL   H11721475   4.377   2.343   5.479  0.3008 -2.8019  0.7139
   60MOL   H11821476   4.384   2.095   5.408 -0.6705 -0.9999 -0.5071
   60MOL   H11921477   4.269   2.052   5.629  1.3756 -1.4337 -2.6166
   60MOL   H12021478   4.252   2.225   5.647 -0.6737  0.1527 -1.9140
   60MOL   H12121479   4.529   2.215   5.616 -0.6926  1.9979  1.1058
   60MOL   H12221480   4.464   1.948   5.699 -0.7914  0.2959 -0.8569
   60MOL   H12321481   4.626   2.005   5.657  0.1923  0.4169 -0.3304
   60MOL   H12421482   4.508   1.987   5.530  2.6190 -1.0427 -0.8709
   60MOL   H12521483   4.369   2.122   5.855  0.9053  0.9030  3.2267
   60MOL   H12621484   4.414   2.290   5.826 -0.1633  0.3268  0.7285
   60MOL   H12721485   4.537   2.165   5.869 -0.1778  0.6804 -0.1506
   60MOL   C12821486   4.172   2.084   5.387  0.1996  0.0156 -0.0296
   60MOL   C12921487   4.174   1.930   5.392  0.0596 -0.3443  0.6884
   60MOL   C13021488   4.236   1.872   5.259 -0.3567 -0.3616 -0.0637
   60MOL   C13121489   4.300   1.736   5.262 -0.4654 -0.1485  0.2198
   60MOL   C13221490   4.330   1.682   5.114  0.4319  0.6326  0.4153
   60MOL   C13321491   4.441   1.726   5.340 -0.0233  0.3740  0.0600
   60MOL   H13421492   4.167   2.107   5.280  0.9915  0.7183  0.0759
   60MOL   H13521493   4.089   2.137   5.431 -0.9215  0.5857 -2.7095
   60MOL   H13621494   4.240   1.914   5.478  0.7504  1.3467  0.4887
   60MOL   H13721495   4.166   1.872   5.176 -0.6464 -2.4664  0.1684
   60MOL   H13821496   4.317   1.934   5.222 -0.8296 -1.3944 -2.9242
   60MOL   H13921497   4.223   1.670   5.299  1.6025 -1.9685  1.3839
   60MOL   H14021498   4.398   1.748   5.060 -0.3071  1.5709  0.6140
   60MOL   H14121499   4.235   1.682   5.059  0.9420  0.9623 -0.4843
   60MOL   H14221500   4.373   1.582   5.112  1.3883  1.0196  1.2787
   60MOL   H14321501   4.463   1.621   5.356 -1.4759  0.1741  0.8973
   60MOL   H14421502   4.525   1.772   5.289  1.3945 -1.3588  0.7771
   60MOL   H14521503   4.434   1.767   5.441 -0.6394  0.5298 -0.0396
   60MOL   C14621504   4.033   1.876   5.416  0.4756  0.0005  0.1896
   60MOL   C14721505   3.943   1.900   5.538 -0.7025  0.4089  0.1806
   60MOL   C14821506   4.022   1.851   5.667  0.4184  0.4478 -0.6817
   60MOL   C14921507   3.960   1.878   5.805  0.1194  0.7506  0.3945
   60MOL   C15021508   4.077   1.850   5.913  0.5222 -0.3259  0.3796
   60MOL   C15121509   3.925   2.024   5.830 -0.2178 -0.5388 -0.0104
   60MOL   H15221510   4.062   1.771   5.419 -0.8661 -0.3502  1.0657
   60MOL   H15321511   3.977   1.889   5.324  3.1592  3.1261 -1.0855
   60MOL   H15421512   3.933   2.009   5.544 -2.5146  0.2434  0.6479
   60MOL   H15521513   4.039   1.745   5.650  0.2002  0.3697 -0.4040
   60MOL   H15621514   4.120   1.899   5.667  1.7099 -2.1033  1.1085
   60MOL   H15721515   3.877   1.810   5.825  0.9071 -0.3998 -0.2023
   60MOL   H15821516   4.029   1.858   6.011  1.0664 -0.0985  0.6341
   60MOL   H15921517   4.156   1.926   5.905 -1.1667  1.5964  1.4723
   60MOL   H16021518   4.133   1.757   5.900  2.0396  0.5268  0.5868
   60MOL   H16121519   3.914   2.048   5.936  1.6390  0.1492  0.0496
   60MOL   H16221520   3.834   2.062   5.783 -1.1601 -2.1632  0.4503
   60MOL   H16321521   4.007   2.092   5.808 -0.0434 -0.7077  0.1145
   60MOL   C16421522   3.803   1.839   5.522  0.5171 -0.4011 -0.0417
   60MOL   C16521523   3.688   1.921   5.447 -0.2433 -0.2464 -0.4738
   60MOL   C16621524   3.576   1.817   5.419 -0.3792  0.3159 -0.6276
   60MOL   C16721525   3.605   1.712   5.311  0.1343 -0.6165 -0.0705
   60MOL   C16821526   3.492   1.608   5.304  0.5181  0.4926  0.1155
   60MOL   C16921527   3.629   1.783   5.169 -0.2460  0.2524  0.0159
   60MOL   H17021528   3.828   1.754   5.458 -2.3719 -1.1499 -0.2676
   60MOL   H17121529   3.761   1.820   5.621 -0.6280  1.0367 -0.2375
   60MOL   H17221530   3.726   1.970   5.357 -1.4111  3.9861  1.2015
   60MOL   H17321531   3.554   1.772   5.515  1.3020  1.7192  0.4438
   60MOL   H17421532   3.482   1.865   5.391 -0.0091  0.3699 -1.8336
   60MOL   H17521533   3.696   1.654   5.327  0.0532 -0.8576 -0.4744
   60MOL   H17621534   3.526   1.515   5.258 -0.5658 -0.1837  0.6497
   60MOL   H17721535   3.410   1.646   5.243  1.4186  0.7354 -0.9606
   60MOL   H17821536   3.463   1.583   5.407  2.9551  0.6833  0.8782
   60MOL   H17921537   3.652   1.716   5.086 -0.4597  0.6108 -0.3308
   60MOL   H18021538   3.728   1.827   5.179 -0.3656  0.6673 -0.5794
   60MOL   H18121539   3.547   1.851   5.147 -1.2901 -0.6906  0.9228
   60MOL   C18221540   3.658   2.049   5.538  0.5567  0.4612  0.2444
   60MOL   C18321541   3.521   2.120   5.506  0.4476 -0.5169  0.1653
   60MOL   C18421542   3.481   2.201   5.632  1.0167 -0.5872  0.0753
   60MOL   C18521543   3.441   2.134   5.764  0.3592  0.1405  0.4444
   60MOL   C18621544   3.534   2.170   5.876 -0.3449  0.3270 -0.2195
   60MOL   C18721545   3.296   2.166   5.806 -0.0607 -0.0812  0.2909
   60MOL   H18821546   3.746   2.114   5.536 -0.3953  1.7082 -1.1648
   60MOL   H18921547   3.653   2.013   5.641 -1.3729  0.0919  0.0422
   60MOL   H19021548   3.444   2.047   5.481 -0.3131  0.6125 -0.8711
   60MOL   H19121549   3.392   2.248   5.588  0.1306 -2.2017  0.1187
   60MOL   H19221550   3.555   2.280   5.644 -0.4989  0.8811 -0.0093
   60MOL   H19321551   3.433   2.029   5.738 -1.5985  0.9257 -2.4138
   60MOL   H19421552   3.568   2.274   5.872  0.6425  0.0724  1.0663
   60MOL   H19521553   3.629   2.118   5.875 -0.3256  0.3750 -0.8882
   60MOL   H19621554   3.494   2.144   5.974 -0.1008 -1.4886 -0.5929
   60MOL   H19721555   3.284   2.273   5.827  1.0968 -0.0344  0.7492
   60MOL   H19821556   3.263   2.118   5.898 -0.7508  0.3207  0.2622
   60MOL   H19921557   3.224   2.142   5.727 -0.8188  0.3635  0.8411
   60MOL   C20021558   3.564   2.216   5.387  0.3409  0.1201 -0.0615
   60MOL   C20121559   3.462   2.283   5.298 -0.3519 -0.2756 -0.6997
   60MOL   C20221560   3.389   2.166   5.220 -0.2973 -0.2431 -0.2144
   60MOL   C20321561   3.232   2.177   5.221 -0.3814 -0.5944  0.1495
   60MOL   C20421562   3.157   2.119   5.099  0.3528  0.2294 -0.1892
   60MOL   C20521563   3.168   2.122   5.343 -0.2084 -0.0438 -0.1347
   60MOL   H20621564   3.625   2.159   5.317  0.7293  2.3165 -1.5564
   60MOL   H20721565   3.625   2.296   5.429 -3.3985  2.6370  0.8063
   60MOL   H20821566   3.389   2.320   5.370  0.2690 -0.4879  0.0515
   60MOL   H20921567   3.415   2.168   5.114  0.9921 -3.2633 -0.0056
   60MOL   H21021568   3.421   2.064   5.239  1.2537  0.2166 -0.2560
   60MOL   H21121569   3.206   2.282   5.233  2.4611 -0.1565  3.0330
   60MOL   H21221570   3.187   2.173   5.009 -1.8433  0.0795 -1.0334
   60MOL   H21321571   3.050   2.134   5.111  0.4101 -0.4228  1.1842
   60MOL   H21421572   3.196   2.019   5.079  1.5078  0.8364 -1.0621
   60MOL   H21521573   3.205   2.023   5.367 -0.3353 -0.0710 -0.0504
   60MOL   H21621574   3.059   2.113   5.340 -0.3139  0.0319  2.4226
   60MOL   H21721575   3.208   2.183   5.425 -0.6514 -0.1837  0.1900
   60MOL   C21821576   3.503   2.410   5.218 -0.1625  0.2206  1.1004
   60MOL   C21921577   3.645   2.414   5.139 -0.9402  0.0531  0.1563
   60MOL   C22021578   3.685   2.564   5.097 -0.2107  0.2587 -0.5332
   60MOL   C22121579   3.724   2.664   5.209  0.2194 -0.0832 -0.6837
   60MOL   C22221580   3.860   2.637   5.265  0.3220  0.3988  0.0114
   60MOL   C22321581   3.725   2.811   5.165 -0.7789  0.4742  0.0110
   60MOL   H22421582   3.420   2.436   5.152  1.8491  0.8535 -1.2545
   60MOL   H22521583   3.509   2.490   5.291  0.6326  0.6182  0.6059
   60MOL   H22621584   3.721   2.391   5.214 -1.2952  2.8859  1.4359
   60MOL   H22721585   3.746   2.558   5.007  1.1476  0.4034  0.3633
   60MOL   H22821586   3.585   2.595   5.066  0.7933  1.8031 -2.3166
   60MOL   H22921587   3.647   2.643   5.283  0.6388  0.8822  0.0359
   60MOL   H23021588   3.861   2.543   5.321 -5.1194 -1.5705 -2.8741
   60MOL   H23121589   3.939   2.638   5.190  0.5173 -3.6188  0.0535
   60MOL   H23221590   3.886   2.712   5.340  1.8343  0.7975 -0.8771
   60MOL   H23321591   3.732   2.882   5.247  0.9527 -0.3102  0.5642
   60MOL   H23421592   3.816   2.838   5.110 -1.4776 -0.1252 -1.4784
   60MOL   H23521593   3.642   2.850   5.106 -0.7238 -2.1613 -1.9021
   60MOL   C23621594   3.668   2.310   5.029 -0.4119 -0.3261 -0.5763
   60MOL   C23721595   3.578   2.286   4.904 -0.7778  0.3564  0.2392
   60MOL   C23821596   3.632   2.162   4.828 -0.8396 -0.1062  0.3205
   60MOL   C23921597   3.578   2.026   4.874  0.5614  0.1495  0.2362
   60MOL   C24021598   3.447   1.987   4.800 -0.1205  0.3132  0.0597
   60MOL   C24121599   3.675   1.921   4.845  0.3878  0.3977  0.2764
   60MOL   H24221600   3.678   2.209   5.071  1.6261 -0.1961 -0.7316
   60MOL   H24321601   3.771   2.322   4.996 -0.9994  4.3398 -1.0016
   60MOL   H24421602   3.475   2.259   4.927 -0.7671  0.6959  0.6971
   60MOL   H24521603   3.740   2.176   4.818 -1.0881  1.1672 -0.6485
   60MOL   H24621604   3.598   2.176   4.725 -0.4476 -0.1372  0.1863
   60MOL   H24721605   3.561   2.027   4.982  0.8553  0.8287  0.2824
   60MOL   H24821606   3.394   1.900   4.840  0.6375 -0.0904  0.2010
   60MOL   H24921607   3.476   1.976   4.695 -1.1655  0.7177 -0.2725
   60MOL   H25021608   3.380   2.073   4.799  0.4557  0.7621  0.0671
   60MOL   H25121609   3.758   1.924   4.916 -0.6941  2.1914  1.5223
   60MOL   H25221610   3.701   1.913   4.740  1.5583  2.2714  0.3943
   60MOL   H25321611   3.633   1.821   4.858 -1.8144  1.1934 -0.4296
   60MOL   C25421612   3.585   2.408   4.816 -0.7178 -0.0730  0.4682
   60MOL   C25521613   3.482   2.414   4.707 -0.3638  0.6997  0.1273
   60MOL   C25621614   3.332   2.455   4.750  0.1709  0.3177  0.5123
   60MOL   C25721615   3.232   2.343   4.717 -0.1549  0.2825 -0.1078
   60MOL   C25821616   3.212   2.334   4.567  0.5999  0.3199 -0.1981
   60MOL   C25921617   3.088   2.362   4.775  0.5821  0.8085 -0.1544
   60MOL   H26021618   3.575   2.499   4.874 -0.1404 -0.0532  0.5379
   60MOL   H26121619   3.680   2.410   4.763 -0.7548 -2.1620  0.2696
   60MOL   H26221620   3.466   2.316   4.662 -3.6338  1.3517 -0.2961
   60MOL   H26321621   3.300   2.548   4.702  1.3912  0.4567 -0.0479
   60MOL   H26421622   3.329   2.485   4.854  2.5226  1.9946  0.1426
   60MOL   H26521623   3.265   2.246   4.754  1.5810  1.6613  2.0573
   60MOL   H26621624   3.160   2.423   4.531  0.1742 -0.5789 -1.8745
   60MOL   H26721625   3.147   2.249   4.548 -0.6801  1.2995 -0.2661
   60MOL   H26821626   3.306   2.315   4.515  0.3396  0.1131 -0.5918
   60MOL   H26921627   3.027   2.272   4.771 -2.4804  2.8828 -3.1085
   60MOL   H27021628   3.094   2.400   4.877  0.0181  1.2191 -0.2654
   60MOL   H27121629   3.032   2.433   4.714  2.4325  0.1488 -2.6970
   60MOL   C27221630   3.526   2.509   4.597 -0.0840  0.6305 -0.0890
   60MOL   C27321631   3.645   2.463   4.511  0.0989 -0.3119 -0.1169
   60MOL   C27421632   3.588   2.363   4.408 -0.2488 -0.5975 -0.3465
   60MOL   C27521633   3.678   2.276   4.317  0.1411  0.1870  0.3110
   60MOL   C27621634   3.604   2.211   4.198 -0.2189 -0.0573 -0.2619
   60MOL   C27721635   3.754   2.175   4.390  0.1454  0.3625  0.0136
   60MOL   H27821636   3.440   2.525   4.532  0.0698  0.0829 -0.4343
   60MOL   H27921637   3.544   2.598   4.657 -0.7731 -0.2285  1.4329
   60MOL   H28021638   3.721   2.403   4.561 -1.6011 -3.7504 -1.4748
   60MOL   H28121639   3.515   2.418   4.349 -0.0719 -0.5170 -0.4884
   60MOL   H28221640   3.532   2.279   4.451 -0.8496  0.1419  0.3212
   60MOL   H28321641   3.746   2.339   4.260 -0.9149  0.6622 -0.4370
   60MOL   H28421642   3.661   2.171   4.113 -2.2806  2.8515 -3.1248
   60MOL   H28521643   3.539   2.129   4.227  0.7238 -0.1276  1.7370
   60MOL   H28621644   3.545   2.290   4.151  2.5955  1.0896 -2.0416
   60MOL   H28721645   3.818   2.217   4.467  2.0996  0.8170 -1.7937
   60MOL   H28821646   3.700   2.093   4.437  2.3089 -0.3390  1.3317
   60MOL   H28921647   3.824   2.131   4.319  0.7992  1.0960  0.2046
   60MOL   C29021648   3.718   2.574   4.425 -0.3611  0.2000 -0.3136
   60MOL   C29121649   3.755   2.711   4.493  0.1597  0.3242  0.0451
   60MOL   C29221650   3.823   2.685   4.631 -0.1698  0.4895  0.3609
   60MOL   C29321651   3.868   2.815   4.707  0.1691 -0.7836 -0.0951
   60MOL   C29421652   3.751   2.911   4.750 -0.8469  0.0376  0.5809
   60MOL   C29521653   3.952   2.767   4.830  0.4315 -0.2973 -0.1974
   60MOL   H29621654   3.797   2.533   4.362 -2.3187 -1.4452 -1.7138
   60MOL   H29721655   3.658   2.608   4.341  0.8054  0.3760 -1.0960
   60MOL   H29821656   3.665   2.773   4.501  0.0502 -0.1017  2.4150
   60MOL   H29921657   3.920   2.640   4.608 -1.4560 -1.3570 -1.7378
   60MOL   H30021658   3.770   2.619   4.700  1.1766  0.7736  1.6806
   60MOL   H30121659   3.935   2.877   4.647  1.6243 -2.1370  0.0978
   60MOL   H30221660   3.677   2.847   4.799 -1.0725 -0.6832 -0.6762
   60MOL   H30321661   3.688   2.957   4.675  0.9867  0.4219 -0.7344
   60MOL   H30421662   3.776   2.980   4.830  0.1270  0.5561 -0.1691
   60MOL   H30521663   3.979   2.861   4.879  2.7603  0.2512 -2.4020
   60MOL   H30621664   4.044   2.718   4.799 -0.1490 -0.6072 -1.4956
   60MOL   H30721665   3.893   2.708   4.900 -1.2840  1.9790  0.3450
   60MOL   C30821666   3.853   2.796   4.406  0.2025 -0.1720 -0.2495
   60MOL   C30921667   3.803   2.818   4.255  0.4228  0.0970 -0.4542
   60MOL   C31021668   3.691   2.928   4.236 -0.3835  0.5307 -1.3464
   60MOL   C31121669   3.562   2.884   4.156 -0.2989  0.2845  0.5396
   60MOL   C31221670   3.455   2.803   4.240 -0.5738 -0.6678  1.4636
   60MOL   C31321671   3.494   3.001   4.077  0.1755 -0.6302 -0.4623
   60MOL   H31421672   3.861   2.901   4.435  0.9393 -0.5880  1.0767
   60MOL   H31521673   3.953   2.754   4.407  0.2770  0.0133  0.0848
   60MOL   H31621674   3.771   2.721   4.217 -0.7595  0.6922 -1.0045
   60MOL   H31721675   3.725   3.026   4.202  0.9329  0.5780  0.0871
   60MOL   H31821676   3.654   2.956   4.334 -0.3695 -0.1852 -1.1310
   60MOL   H31921677   3.598   2.821   4.074 -1.6739 -0.7774  0.7370
   60MOL   H32021678   3.360   2.814   4.187  0.3500  1.8568  0.2771
   60MOL   H32121679   3.446   2.842   4.341  0.1936  2.1378  0.4907
   60MOL   H32221680   3.491   2.700   4.248 -0.4714 -0.6124  1.6955
   60MOL   H32321681   3.455   3.084   4.136  1.7534 -1.0010  1.1308
   60MOL   H32421682   3.574   3.051   4.023  0.9681  0.7089  1.9016
   60MOL   H32521683   3.431   2.968   3.994 -1.0337  0.3520  0.0519
   60MOL   C32621684   3.922   2.860   4.157 -0.2890 -0.0603 -0.2942
   60MOL   C32721685   4.005   2.734   4.118 -0.1639  0.2062  0.0633
   60MOL   C32821686   4.141   2.784   4.062  0.3069 -0.3637  0.0747
   60MOL   C32921687   4.242   2.676   4.038  0.3053  0.1601 -0.7993
   60MOL   C33021688   4.352   2.737   3.949  0.2101 -0.0400 -0.3906
   60MOL   C33121689   4.310   2.618   4.163 -0.0391  0.4614  0.4878
   60MOL   H33221690   3.973   2.940   4.210 -1.2846 -1.2618  2.5247
   60MOL   H33321691   3.894   2.899   4.059 -0.2010  0.8710  0.0496
   60MOL   H33421692   4.037   2.682   4.208  0.3047  1.6995  0.7733
   60MOL   H33521693   4.110   2.830   3.968  1.2431  0.7614  0.3000
   60MOL   H33621694   4.179   2.861   4.129 -1.2009  1.2199 -0.8435
   60MOL   H33721695   4.191   2.594   3.988  0.7966  0.4293 -1.7354
   60MOL   H33821696   4.417   2.812   3.994 -2.3238  2.7620 -1.2111
   60MOL   H33921697   4.291   2.789   3.875 -1.0543 -0.0864  0.6013
   60MOL   H34021698   4.407   2.664   3.891 -1.1768  0.2685 -2.1256
   60MOL   H34121699   4.367   2.704   4.196 -3.0397  2.4124  0.8151
   60MOL   H34221700   4.247   2.577   4.242 -1.8083  0.7865 -0.7048
   60MOL   H34321701   4.381   2.538   4.141 -0.7674 -0.6473  2.0247
   60MOL   C34421702   3.923   2.642   4.021 -0.3527 -0.1477  0.6382
   60MOL   C34521703   3.934   2.491   4.057 -0.3902  0.1940 -0.2962
   60MOL   C34621704   3.847   2.398   3.963  0.3986 -0.6213 -0.4315
   60MOL   C34721705   3.878   2.424   3.812 -0.6278  0.2790  0.2679
   60MOL   C34821706   3.797   2.321   3.718  0.1459 -0.2659 -0.3293
   60MOL   C34921707   4.034   2.428   3.765 -0.6952  0.2131 -0.7973
   60MOL   H35021708   3.974   2.646   3.924 -1.5081  1.8859  0.0646
   60MOL   H35121709   3.823   2.680   4.000  0.4958  1.8424 -0.0133
   60MOL   H35221710   3.906   2.470   4.160  0.6456 -0.3586 -0.1176
   60MOL   H35321711   3.879   2.297   3.989 -0.6260 -0.2051  2.5588
   60MOL   H35421712   3.740   2.408   3.984  1.0654  1.2924  2.2345
   60MOL   H35521713   3.843   2.524   3.786  0.0404  0.1706 -1.1042
   60MOL   H35621714   3.795   2.349   3.612 -0.0697 -0.3749 -0.3535
   60MOL   H35721715   3.837   2.220   3.722 -0.1498 -0.3581  0.3126
   60MOL   H35821716   3.691   2.321   3.742 -0.1638  0.6995 -1.6000
   60MOL   H35921717   4.090   2.520   3.782 -0.3784 -0.2389  0.6408
   60MOL   H36021718   4.044   2.420   3.656  0.8177  3.4833 -0.9708
   60MOL   H36121719   4.094   2.341   3.791  0.4986  1.4484  0.6286
   60MOL   H36221720   4.039   2.459   4.053 -0.0846  1.1515  0.0779
   61MOL     C121721   0.396   0.570   1.910 -0.2760  0.2510  0.4825
   61MOL     C221722   0.542   0.589   1.879 -0.2667  0.4717  0.0507
   61MOL     C321723   0.616   0.594   2.009 -0.4043  0.9407 -0.6693
   61MOL     C421724   0.767   0.559   1.982 -0.6960  0.3941  0.5167
   61MOL     C521725   0.785   0.406   1.961 -0.2447  0.2069 -0.5033
   61MOL     C621726   0.851   0.602   2.106  0.3702 -0.1588  0.3129
   61MOL     H721727   0.341   0.587   1.817  1.2047  3.9070  0.1943
   61MOL     H821728   0.377   0.471   1.951 -1.9634  0.3972  0.1005
   61MOL     H921729   0.580   0.503   1.825 -0.7454  0.8508 -0.9169
   61MOL    H1021730   0.602   0.694   2.050  0.0297  1.1387 -0.9918
   61MOL    H1121731   0.569   0.534   2.087  0.4914 -0.1595 -0.9589
   61MOL    H1221732   0.803   0.611   1.894  1.5740 -0.5427  0.8660
   61MOL    H1321733   0.891   0.384   1.946  0.2316  1.3789  1.0125
   61MOL    H1421734   0.760   0.354   2.053  1.3058  1.9974  0.9818
   61MOL    H1521735   0.726   0.365   1.879 -0.3008 -0.7939  0.0360
   61MOL    H1621736   0.957   0.592   2.084  0.2291 -3.6527  0.9369
   61MOL    H1721737   0.826   0.537   2.190 -0.0474 -0.3215  0.0674
   61MOL    H1821738   0.822   0.699   2.149 -0.9252 -0.5605  0.3701
   61MOL    H1921739   0.363   0.644   1.982 -1.0423  0.6822 -0.2898
   61MOL    C2021740   0.562   0.720   1.804 -0.6378  0.3438 -0.7238
   61MOL    C2121741   0.553   0.710   1.657 -0.4713  0.4185  0.8157
   61MOL    C2221742   0.458   0.818   1.603 -0.3938  0.4657  0.8258
   61MOL    C2321743   0.507   0.961   1.605  0.0618  0.2830 -0.7457
   61MOL    C2421744   0.513   1.017   1.462 -0.5774  0.4266  0.4459
   61MOL    C2521745   0.410   1.037   1.706 -0.0840  0.2897 -0.0182
   61MOL    H2621746   0.483   0.790   1.831  0.4920  1.3054  0.0754
   61MOL    H2721747   0.658   0.765   1.826 -0.7727  0.4782 -0.3989
   61MOL    H2821748   0.490   0.621   1.646 -1.4746  1.0591  1.3205
   61MOL    H2921749   0.360   0.807   1.651 -0.8182 -0.1233 -0.1488
   61MOL    H3021750   0.428   0.806   1.499 -0.0570  0.9880  0.6696
   61MOL    H3121751   0.605   0.967   1.654 -0.4446  0.6134  0.2309
   61MOL    H3221752   0.420   1.035   1.409  0.7692  2.0951 -1.3981
   61MOL    H3321753   0.588   0.970   1.398 -0.3211 -0.4104  1.3316
   61MOL    H3421754   0.533   1.123   1.471  0.3237  0.1405  1.9687
   61MOL    H3521755   0.402   0.986   1.802 -0.2766 -2.1046 -1.2543
   61MOL    H3621756   0.436   1.141   1.726  2.1975  0.0900 -1.6455
   61MOL    H3721757   0.306   1.037   1.672  0.4799  0.5772 -1.8152
   61MOL    C3821758   0.689   0.699   1.592 -0.1068 -0.0264  0.5581
   61MOL    C3921759   0.697   0.671   1.442  0.8629  0.4794  0.0924
   61MOL    C4021760   0.653   0.531   1.413 -0.6607 -0.1650 -0.8754
   61MOL    C4121761   0.568   0.526   1.285 -0.0233 -0.3656  0.1358
   61MOL    C4221762   0.418   0.528   1.301  0.1877  0.4439 -0.1502
   61MOL    C4321763   0.611   0.406   1.193  0.1263  0.0520  0.0860
   61MOL    H4421764   0.752   0.622   1.637 -1.3073 -1.2503  0.1779
   61MOL    H4521765   0.737   0.797   1.594  1.4187 -0.6948 -1.3568
   61MOL    H4621766   0.635   0.751   1.400  2.7234  2.7155  1.4647
   61MOL    H4721767   0.593   0.490   1.495 -0.2576  0.1530 -0.4148
   61MOL    H4821768   0.742   0.467   1.411 -0.0764  0.6600 -2.2514
   61MOL    H4921769   0.601   0.609   1.223  2.9265 -1.4186  0.2376
   61MOL    H5021770   0.359   0.532   1.210 -0.2702  2.1473  0.2097
   61MOL    H5121771   0.387   0.447   1.367 -0.1522  1.2545  0.6969
   61MOL    H5221772   0.388   0.623   1.346 -2.1633  1.4021 -3.5704
   61MOL    H5321773   0.696   0.430   1.128 -0.8180  1.3370 -0.7216
   61MOL    H5421774   0.526   0.372   1.133 -0.2840 -0.4285  0.9418
   61MOL    H5521775   0.629   0.312   1.244  1.7515  1.1807  1.6658
   61MOL    C5621776   0.842   0.700   1.380 -0.0493 -0.2040 -0.1625
   61MOL    C5721777   0.880   0.852   1.361  0.0291 -0.1335 -0.3284
   61MOL    C5821778   0.801   0.922   1.251  0.1853 -0.3014  0.1314
   61MOL    C5921779   0.850   0.931   1.107  0.1821 -0.0758 -0.3651
   61MOL    C6021780   0.779   1.032   1.017 -0.2684  0.2459 -0.2333
   61MOL    C6121781   0.840   0.797   1.037  0.2141 -0.1092 -0.1530
   61MOL    H6221782   0.859   0.649   1.285  0.2606 -0.9331  0.2788
   61MOL    H6321783   0.910   0.652   1.451  0.1782  2.2497  1.3360
   61MOL    H6421784   0.844   0.902   1.451  0.2869  1.0854 -0.8941
   61MOL    H6521785   0.698   0.887   1.241 -0.0047  0.3117 -0.0458
   61MOL    H6621786   0.793   1.027   1.280  0.2739 -0.8559  2.2625
   61MOL    H6721787   0.957   0.951   1.101  0.1511  0.2648  0.2947
   61MOL    H6821788   0.674   1.007   1.027 -0.1266  0.4594  2.2593
   61MOL    H6921789   0.802   1.035   0.911 -1.0529  0.1343 -0.4101
   61MOL    H7021790   0.784   1.133   1.059  1.9562 -0.3358  1.0079
   61MOL    H7121791   0.748   0.741   1.050  0.2014 -0.3530 -1.2327
   61MOL    H7221792   0.927   0.739   1.066  0.7761  0.7791 -0.0525
   61MOL    H7321793   0.852   0.812   0.930 -0.5795 -1.1829 -0.4004
   61MOL    C7421794   1.030   0.891   1.353  0.5480  0.4621  0.2144
   61MOL    C7521795   1.101   0.900   1.488  0.3526  0.2156 -0.9016
   61MOL    C7621796   1.119   1.034   1.554 -0.8317  0.4034  0.6888
   61MOL    C7721797   0.991   1.118   1.577  0.2590 -0.2149 -0.1763
   61MOL    C7821798   1.018   1.270   1.594 -0.5247 -0.5889 -0.1788
   61MOL    C7921799   0.892   1.057   1.678 -0.4496  0.0934  0.3889
   61MOL    H8021800   1.044   0.980   1.292 -0.0002  0.8729  0.6811
   61MOL    H8121801   1.083   0.832   1.278  2.3228  3.4090 -0.9528
   61MOL    H8221802   1.038   0.838   1.552  1.6223  0.4358  0.5843
   61MOL    H8321803   1.173   1.031   1.648  0.4727  0.9239 -0.0325
   61MOL    H8421804   1.176   1.095   1.484  0.2567 -0.7208  0.5829
   61MOL    H8521805   0.935   1.111   1.484 -0.0496  0.4067 -0.0418
   61MOL    H8621806   0.930   1.319   1.636 -0.0317  0.7732 -0.7189
   61MOL    H8721807   1.032   1.323   1.500  2.1468  0.5264  0.7787
   61MOL    H8821808   1.103   1.282   1.661 -1.4326 -0.3907  0.9664
   61MOL    H8921809   0.886   0.948   1.677  0.0161  0.0510 -2.6225
   61MOL    H9021810   0.915   1.088   1.780  2.3962 -2.6586  0.6666
   61MOL    H9121811   0.792   1.087   1.648  0.6211  3.8981  0.3984
   61MOL    C9221812   1.237   0.830   1.475 -0.0248 -0.2670 -1.0967
   61MOL    C9321813   1.333   0.813   1.600  0.2156 -0.3410 -0.4247
   61MOL    C9421814   1.267   0.706   1.692  0.1817  0.1243  0.4730
   61MOL    C9521815   1.324   0.661   1.829  0.7882 -0.3304 -0.6722
   61MOL    C9621816   1.313   0.769   1.932  0.5100 -0.0018  0.4540
   61MOL    C9721817   1.271   0.523   1.879  0.5655 -0.8860  0.4877
   61MOL    H9821818   1.225   0.730   1.432 -0.9952 -1.4620  1.8140
   61MOL    H9921819   1.299   0.888   1.407  0.4294  0.3776 -0.1475
   61MOL   H10021820   1.342   0.903   1.660 -3.2916 -0.8047  0.9321
   61MOL   H10121821   1.256   0.619   1.628  1.2186  1.1195 -1.0847
   61MOL   H10221822   1.162   0.731   1.708 -0.0547 -0.3499 -0.3272
   61MOL   H10321823   1.430   0.637   1.819  1.3763  1.2498  1.4050
   61MOL   H10421824   1.406   0.821   1.954  0.5422  0.0124  0.2878
   61MOL   H10521825   1.284   0.729   2.029 -1.7681  3.1956  1.1755
   61MOL   H10621826   1.234   0.841   1.908 -0.4521 -0.8066  1.1790
   61MOL   H10721827   1.330   0.493   1.966 -0.2829 -1.1191  0.9901
   61MOL   H10821828   1.285   0.445   1.805  1.3330 -0.2761 -0.0149
   61MOL   H10921829   1.166   0.535   1.908  0.8831 -0.2848  1.4401
   61MOL   C11021830   1.473   0.763   1.560  0.2345 -0.2481 -0.2770
   61MOL   C11121831   1.569   0.879   1.505  0.0592  0.4232  0.0729
   61MOL   C11221832   1.655   0.952   1.616  0.1180 -0.3392  0.3467
   61MOL   C11321833   1.573   1.034   1.726  0.0335  0.0960  0.4328
   61MOL   C11421834   1.501   1.152   1.667  0.0133 -0.0731 -0.0343
   61MOL   C11521835   1.662   1.069   1.843  0.1354 -0.3945 -0.3346
   61MOL   H11621836   1.476   0.680   1.489  1.0751 -1.4328  1.1206
   61MOL   H11721837   1.531   0.723   1.643  0.8873  2.0277  0.3826
   61MOL   H11821838   1.505   0.951   1.455  0.1469  2.3133  2.6042
   61MOL   H11921839   1.729   1.020   1.573  0.2595 -0.8535 -0.2336
   61MOL   H12021840   1.715   0.878   1.668  1.4955  0.3621 -0.2056
   61MOL   H12121841   1.484   0.979   1.757 -0.4346 -0.9916 -2.6382
   61MOL   H12221842   1.447   1.119   1.578 -2.5985  2.2031  0.6453
   61MOL   H12321843   1.565   1.237   1.644 -0.4002  0.0581 -0.6910
   61MOL   H12421844   1.416   1.176   1.731  0.0907 -0.8303  0.3577
   61MOL   H12521845   1.615   1.133   1.917  0.7540  0.8733 -1.0164
   61MOL   H12621846   1.750   1.113   1.796 -1.9144  0.7352 -3.3583
   61MOL   H12721847   1.694   0.978   1.893 -2.6205 -1.2768 -0.0465
   61MOL   C12821848   1.664   0.806   1.402 -0.1364  0.5710  0.2105
   61MOL   C12921849   1.777   0.879   1.328  0.0563 -0.9375 -0.1935
   61MOL   C13021850   1.718   0.983   1.231 -0.1394 -0.9452  0.3799
   61MOL   C13121851   1.820   1.089   1.180  0.0765 -0.3912 -1.0750
   61MOL   C13221852   1.765   1.172   1.057 -0.1145  0.0679 -0.2383
   61MOL   C13321853   1.875   1.181   1.289  0.2517 -0.8233 -0.6169
   61MOL   H13421854   1.590   0.763   1.335 -0.8888  1.4401  0.4733
   61MOL   H13521855   1.717   0.724   1.452  0.9362  0.5685 -0.9196
   61MOL   H13621856   1.841   0.925   1.404  0.3162 -1.9603  0.2145
   61MOL   H13721857   1.672   0.926   1.150  0.3910 -0.9780  0.0987
   61MOL   H13821858   1.641   1.040   1.283  2.7304  2.0934  1.5168
   61MOL   H13921859   1.896   1.026   1.135 -0.5767 -1.4174 -0.7634
   61MOL   H14021860   1.713   1.115   0.980 -3.2663  2.7649 -0.2128
   61MOL   H14121861   1.840   1.232   1.005  1.3463 -3.7300 -2.6933
   61MOL   H14221862   1.693   1.244   1.095 -0.5479  0.5534 -1.9216
   61MOL   H14321863   1.938   1.126   1.359  0.0256 -2.4989 -1.6879
   61MOL   H14421864   1.951   1.247   1.249  0.6430  0.4532  2.0819
   61MOL   H14521865   1.816   1.240   1.359 -1.6926  1.5093 -4.0871
   61MOL   C14621866   1.865   0.771   1.250  0.4277 -0.3663 -0.0920
   61MOL   C14721867   1.979   0.724   1.345  0.8241 -0.2418  0.1832
   61MOL   C14821868   2.108   0.814   1.348 -0.5671  0.4556  0.3461
   61MOL   C14921869   2.165   0.859   1.490 -0.9380 -0.5857  0.0654
   61MOL   C15021870   2.309   0.922   1.477 -0.3377 -0.2915 -0.2546
   61MOL   C15121871   2.072   0.954   1.568  0.2039 -0.4830 -0.3022
   61MOL   H15221872   1.897   0.795   1.149 -2.6576  0.3902 -0.9398
   61MOL   H15321873   1.798   0.693   1.214  0.3192  1.2153 -3.4728
   61MOL   H15421874   1.950   0.731   1.450 -2.8639  0.5976 -0.8076
   61MOL   H15521875   2.184   0.773   1.282  1.5923  1.8321  1.9282
   61MOL   H15621876   2.070   0.905   1.300  1.3908  1.7092  1.1099
   61MOL   H15721877   2.173   0.770   1.553  0.4697 -0.7377 -0.2882
   61MOL   H15821878   2.351   0.953   1.573 -0.1080  0.0053 -0.4480
   61MOL   H15921879   2.293   1.006   1.409 -1.1451 -0.6454 -0.5094
   61MOL   H16021880   2.381   0.852   1.434  2.9363  3.2863 -0.9097
   61MOL   H16121881   2.105   0.972   1.670  1.6081  1.4945 -1.0806
   61MOL   H16221882   1.969   0.919   1.566  0.0081  0.0175  0.8590
   61MOL   H16321883   2.070   1.054   1.525 -0.6519 -0.7884 -1.0041
   61MOL   C16421884   2.010   0.575   1.320  0.5267 -0.5082 -0.0930
   61MOL   C16521885   1.933   0.469   1.406  0.2058 -0.4264  0.1270
   61MOL   C16621886   1.903   0.338   1.322  0.5519  0.1021  0.2121
   61MOL   C16721887   1.794   0.346   1.208 -0.8867  0.0162  0.0830
   61MOL   C16821888   1.785   0.226   1.104  0.1241  0.2573  0.1606
   61MOL   C16921889   1.665   0.362   1.274 -0.2315  1.2318  0.0190
   61MOL   H17021890   2.003   0.549   1.215  1.6882  0.5681 -0.4504
   61MOL   H17121891   2.116   0.553   1.334  0.6186  0.3989  0.7732
   61MOL   H17221892   1.839   0.521   1.425  1.0852  1.2710 -0.0178
   61MOL   H17321893   1.995   0.301   1.276  1.0382  1.9861 -0.3844
   61MOL   H17421894   1.873   0.260   1.391  0.0157  0.0242 -0.1110
   61MOL   H17521895   1.811   0.432   1.144 -0.9600  0.3652  0.5319
   61MOL   H17621896   1.764   0.132   1.156  0.4941  0.3856  0.5426
   61MOL   H17721897   1.872   0.230   1.039 -0.8762 -0.0944 -1.2039
   61MOL   H17821898   1.701   0.238   1.036  1.7452  0.5478 -1.8214
   61MOL   H17921899   1.580   0.355   1.207 -0.6943  0.0857  0.7115
   61MOL   H18021900   1.641   0.437   1.350  1.5956  2.5953 -0.7315
   61MOL   H18121901   1.648   0.286   1.351 -0.9589  1.7095  0.3456
   61MOL   C18221902   2.010   0.435   1.543  0.8552  0.1301 -0.6023
   61MOL   C18321903   1.937   0.387   1.668  0.3600 -0.2068  0.2068
   61MOL   C18421904   2.037   0.331   1.774 -0.0756  0.0297 -0.2486
   61MOL   C18521905   2.076   0.180   1.765  0.0115 -0.3611  0.5973
   61MOL   C18621906   2.160   0.129   1.647 -0.0476 -0.2964 -0.5570
   61MOL   C18721907   2.135   0.125   1.900  0.1134 -0.6907  0.2611
   61MOL   H18821908   2.051   0.528   1.581  1.3762  0.4748 -1.9918
   61MOL   H18921909   2.097   0.379   1.509  1.8754  1.7337 -0.6306
   61MOL   H19021910   1.882   0.300   1.634 -1.4148  0.4964  1.1977
   61MOL   H19121911   2.007   0.340   1.879 -1.3707 -0.9037 -0.5314
   61MOL   H19221912   2.127   0.392   1.766 -1.5336  2.2045 -0.6992
   61MOL   H19321913   1.980   0.130   1.751 -0.8271  1.5943 -0.9402
   61MOL   H19421914   2.254   0.185   1.649 -0.4873  0.4252  0.5536
   61MOL   H19521915   2.124   0.169   1.552 -0.3742  0.2472 -0.2146
   61MOL   H19621916   2.181   0.022   1.653 -1.1138 -0.4418  1.0634
   61MOL   H19721917   2.085   0.165   1.988  0.5857 -0.6733  0.5199
   61MOL   H19821918   2.237   0.156   1.921 -1.6025  3.7201  2.6628
   61MOL   H19921919   2.116   0.018   1.912 -0.1398 -0.5737  0.9051
   61MOL   C20021920   1.841   0.497   1.718 -0.0941  0.5946 -0.3619
   61MOL   C20121921   1.746   0.448   1.829  0.3585 -0.1282  0.5380
   61MOL   C20221922   1.604   0.419   1.771 -0.2293  0.3698  0.7229
   61MOL   C20321923   1.600   0.309   1.659 -0.3034 -0.2800  0.0611
   61MOL   C20421924   1.625   0.166   1.709 -0.0415 -0.7654  0.0013
   61MOL   C20521925   1.462   0.310   1.596  1.4650 -0.7887  0.4560
   61MOL   H20621926   1.787   0.534   1.631  0.3850  1.3347 -0.3531
   61MOL   H20721927   1.904   0.582   1.743  1.4489 -0.3349 -0.9825
   61MOL   H20821928   1.788   0.360   1.877  0.8011 -0.0361  0.3223
   61MOL   H20921929   1.543   0.404   1.861  2.1379  1.1470  2.5301
   61MOL   H21021930   1.568   0.512   1.728 -0.7922 -0.0804  0.2200
   61MOL   H21121931   1.668   0.336   1.578  0.9127  1.5378  1.6461
   61MOL   H21221932   1.727   0.183   1.740  0.3317 -3.0681  0.1001
   61MOL   H21321933   1.632   0.087   1.634 -1.7144  0.1535 -1.1702
   61MOL   H21421934   1.577   0.123   1.797 -0.2686 -0.7766 -0.1248
   61MOL   H21521935   1.453   0.253   1.504 -2.2172  1.8579 -0.9665
   61MOL   H21621936   1.441   0.412   1.561 -1.0565 -1.3601  0.2058
   61MOL   H21721937   1.383   0.288   1.667  1.2897 -1.2581  0.1160
   61MOL   C21821938   1.747   0.544   1.943  0.0261 -0.1063 -0.0366
   61MOL   C21921939   1.679   0.487   2.069 -0.8600 -0.0415  0.4552
   61MOL   C22021940   1.698   0.591   2.175 -0.6347 -0.0035 -0.3561
   61MOL   C22121941   1.601   0.713   2.175  0.3437 -0.0370 -0.2419
   61MOL   C22221942   1.472   0.682   2.252 -0.6164 -0.1371  0.3774
   61MOL   C22321943   1.668   0.843   2.233 -0.2212 -0.7514  0.3167
   61MOL   H22421944   1.853   0.546   1.971  0.0515 -1.8712  0.0526
   61MOL   H22521945   1.727   0.647   1.915  0.9383  0.1456  0.2315
   61MOL   H22621946   1.570   0.480   2.066 -0.7099 -2.0628 -0.5949
   61MOL   H22721947   1.673   0.542   2.270  3.1132  1.4545  1.4839
   61MOL   H22821948   1.801   0.621   2.190 -0.8141 -0.3224  1.7420
   61MOL   H22921949   1.578   0.727   2.070  1.1978  0.0396 -0.4212
   61MOL   H23021950   1.429   0.591   2.211 -0.7878  0.6438 -1.2389
   61MOL   H23121951   1.498   0.667   2.356  2.7431 -1.0003 -0.5329
   61MOL   H23221952   1.387   0.750   2.249 -0.5737  0.1202  3.4833
   61MOL   H23321953   1.693   0.833   2.338  2.1717  0.6770 -0.0735
   61MOL   H23421954   1.756   0.881   2.180 -1.0699 -0.1689 -0.7011
   61MOL   H23521955   1.595   0.923   2.219 -0.0098 -0.8322 -1.3614
   61MOL   C23621956   1.747   0.355   2.127 -0.6998  0.2019  0.0383
   61MOL   C23721957   1.673   0.222   2.104  0.0969  1.4516 -0.8751
   61MOL   C23821958   1.551   0.211   2.193 -0.2991  0.8019 -0.8293
   61MOL   C23921959   1.442   0.114   2.137  0.6459  0.2717  0.0316
   61MOL   C24021960   1.353   0.079   2.258  0.7310 -0.2795  0.4339
   61MOL   C24121961   1.365   0.175   2.025 -0.2779 -0.2985 -0.5719
   61MOL   H24221962   1.762   0.366   2.235 -1.0933 -0.1811  0.1330
   61MOL   H24321963   1.846   0.360   2.082  0.7921 -0.5281  3.0754
   61MOL   H24421964   1.642   0.219   2.000  0.0215  0.6273 -0.8314
   61MOL   H24521965   1.515   0.312   2.211 -1.5809 -0.0208  1.4645
   61MOL   H24621966   1.577   0.174   2.292  0.5110 -2.0164 -2.0469
   61MOL   H24721967   1.481   0.016   2.110 -1.1365 -1.0280  2.0576
   61MOL   H24821968   1.318   0.159   2.324 -2.5423  0.2682 -1.8793
   61MOL   H24921969   1.402   0.019   2.335 -1.7153 -0.9492  1.5166
   61MOL   H25021970   1.267   0.020   2.229  0.4206  0.5875 -0.4448
   61MOL   H25121971   1.307   0.259   2.065  0.4193 -0.3558  0.5877
   61MOL   H25221972   1.296   0.103   1.982 -0.3012  0.5555 -2.0179
   61MOL   H25321973   1.428   0.215   1.945 -1.6608  0.2436 -1.4247
   61MOL   C25421974   1.771   0.097   2.119 -0.0480 -0.0806  0.2600
   61MOL   C25521975   1.830   0.057   2.250  0.6638  0.7938  0.0974
   61MOL   C25621976   1.742   7.704   2.329  0.2686  0.4621 -0.0991
   61MOL   C25721977   1.762   7.713   2.479 -0.2557 -0.3527  0.1721
   61MOL   C25821978   1.734   7.584   2.556  0.5156 -0.0007  0.2101
   61MOL   C25921979   1.693   0.080   2.540  0.4191 -0.4268 -0.6772
   61MOL   H26021980   1.730   0.013   2.064 -0.2129 -0.3893  0.8473
   61MOL   H26121981   1.858   0.123   2.058 -0.3383  2.1977  0.7621
   61MOL   H26221982   1.833   0.149   2.308 -1.0599 -0.1138  1.6436
   61MOL   H26321983   1.747   7.606   2.282 -0.0700  0.9762 -1.2301
   61MOL   H26421984   1.641   7.737   2.305 -0.2361 -0.1263  1.1880
   61MOL   H26521985   1.868   7.732   2.491 -0.3050  0.4868 -0.6105
   61MOL   H26621986   1.783   7.498   2.510 -0.1858 -0.4999  0.3879
   61MOL   H26721987   1.631   7.553   2.571  0.8565 -1.4358 -0.2745
   61MOL   H26821988   1.782   7.604   2.651  2.3718 -2.7663 -0.1030
   61MOL   H26921989   1.725   0.170   2.488 -0.9149 -0.5603 -1.7934
   61MOL   H27021990   1.584   0.071   2.535  0.4198 -0.5034 -0.5413
   61MOL   H27121991   1.729   0.100   2.640  0.2404 -1.4249 -0.4116
   61MOL   C27221992   1.971   7.749   2.236 -0.7648 -0.2310 -0.4584
   61MOL   C27321993   2.086   0.065   2.309 -0.2431 -0.6937  0.1215
   61MOL   C27421994   2.217   7.731   2.289  0.9392 -0.3998 -0.7849
   61MOL   C27521995   2.222   7.601   2.363 -0.5002  0.2181  0.1763
   61MOL   C27621996   2.272   7.622   2.508 -0.0746  0.5588  0.0191
   61MOL   C27721997   2.300   7.491   2.286  0.3017 -0.5561 -0.1490
   61MOL   H27821998   1.973   7.648   2.278  1.1499  0.2412  0.6173
   61MOL   H27921999   1.995   7.725   2.132 -1.3434 -0.1244 -0.6209
   61MOL   H28022000   2.068   0.060   2.416  0.9156 -1.7073  0.2910
   61MOL   H28122001   2.303   0.043   2.308 -0.8591  0.8202  3.6057
   61MOL   H28222002   2.234   7.719   2.182  1.8407 -0.1185 -0.6773
   61MOL   H28322003   2.122   7.562   2.377  0.1660 -1.0340  1.5855
   61MOL   H28422004   2.277   7.534   2.573 -1.3108 -0.5320 -1.3263
   61MOL   H28522005   2.371   7.664   2.497  0.3483 -0.2692  0.5946
   61MOL   H28622006   2.215   7.701   2.556 -1.5281  1.3596 -2.9103
   61MOL   H28722007   2.409   7.492   2.290  0.4249  1.4010 -2.7036
   61MOL   H28822008   2.279   7.396   2.335  3.2274 -1.0105  0.3264
   61MOL   H28922009   2.258   7.494   2.186 -0.6769 -0.6044  0.2567
   61MOL   C29022010   2.101   0.212   2.261 -0.2193  0.0801 -0.3584
   61MOL   C29122011   2.123   0.302   2.388  0.0881 -0.4862 -0.2148
   61MOL   C29222012   2.181   0.441   2.352 -0.2345 -0.2054 -0.2813
   61MOL   C29322013   2.324   0.453   2.303  0.1850 -0.2869 -0.4510
   61MOL   C29422014   2.347   0.605   2.265  0.5832  0.6750 -0.5352
   61MOL   C29522015   2.423   0.402   2.405  0.2893  0.0351  0.2046
   61MOL   H29622016   2.175   0.226   2.182 -0.0209  0.4431 -0.1076
   61MOL   H29722017   2.010   0.245   2.210  0.2288  1.2069 -0.4502
   61MOL   H29822018   2.199   0.258   2.453  1.9354  0.6645 -1.5395
   61MOL   H29922019   2.178   0.510   2.436  0.3668  1.3860 -1.5164
   61MOL   H30022020   2.121   0.494   2.277  0.2751  1.6095  0.5714
   61MOL   H30122021   2.328   0.401   2.208 -2.0844 -1.4428  0.0577
   61MOL   H30222022   2.430   0.617   2.196 -0.1338 -1.0815 -1.7418
   61MOL   H30322023   2.363   0.676   2.347  1.0026  0.1886 -0.1986
   61MOL   H30422024   2.263   0.646   2.209 -1.6092 -1.2380  1.2698
   61MOL   H30522025   2.417   0.452   2.502 -0.1061 -0.6119  0.5190
   61MOL   H30622026   2.525   0.397   2.367 -0.7065 -1.5507 -2.3636
   61MOL   H30722027   2.405   0.295   2.419  1.4684 -0.1170  0.5743
   61MOL   C30822028   1.998   0.309   2.475 -0.4523 -0.0484 -0.0873
   61MOL   C30922029   2.026   0.320   2.632  0.6089 -0.3931  0.4516
   61MOL   C31022030   2.085   0.194   2.684  0.3646 -0.2018 -0.8329
   61MOL   C31122031   2.072   0.166   2.840  0.1766 -0.4458  0.1772
   61MOL   C31222032   1.929   0.176   2.901  0.5029  0.3589 -0.1822
   61MOL   C31322033   2.128   0.025   2.874  0.1476 -0.1342 -0.1971
   61MOL   H31422034   1.931   0.383   2.431 -1.1168 -1.0008 -0.6646
   61MOL   H31522035   1.933   0.224   2.458 -1.4672  1.1125 -2.2372
   61MOL   H31622036   1.928   0.334   2.677  0.3041 -2.4443  0.4633
   61MOL   H31722037   2.191   0.192   2.659  0.6021 -1.5967  0.1910
   61MOL   H31822038   2.039   0.112   2.628 -1.3376 -1.2314  1.9738
   61MOL   H31922039   2.123   0.246   2.893  0.3783  0.3221 -1.1679
   61MOL   H32022040   1.876   0.089   2.862  0.2147  0.1065  0.7633
   61MOL   H32122041   1.875   0.265   2.868 -1.0912 -0.5647 -0.1171
   61MOL   H32222042   1.926   0.170   3.010 -0.9151  0.9673 -0.1686
   61MOL   H32322043   2.235   0.018   2.858  0.2382  1.9309 -0.7246
   61MOL   H32422044   2.098   7.745   2.973  0.9694  0.6428  0.3139
   61MOL   H32522045   2.079   7.705   2.809 -0.6791  0.0159  0.2425
   61MOL   C32622046   2.096   0.456   2.674  0.6472  0.8379  0.3724
   61MOL   C32722047   2.020   0.586   2.643  0.8015  0.2158  0.1930
   61MOL   C32822048   2.117   0.713   2.629 -0.2947 -0.5228  0.0915
   61MOL   C32922049   2.180   0.772   2.754  0.4280 -0.4393 -0.1985
   61MOL   C33022050   2.332   0.787   2.753  0.3057 -0.2629  0.6942
   61MOL   C33122051   2.108   0.910   2.784 -0.0173  0.2459  0.0272
   61MOL   H33222052   2.199   0.461   2.640  0.3890 -0.5114 -0.6865
   61MOL   H33322053   2.105   0.462   2.782  0.5565 -0.4557  0.4645
   61MOL   H33422054   1.969   0.578   2.548 -0.9965 -2.4190  1.3385
   61MOL   H33522055   2.187   0.693   2.548 -1.5207 -2.8335 -0.4479
   61MOL   H33622056   2.047   0.781   2.581 -0.5031 -1.0640 -0.3790
   61MOL   H33722057   2.141   0.721   2.842  0.2346 -1.0532 -0.6399
   61MOL   H33822058   2.377   0.825   2.661  0.4041  1.2517  1.3486
   61MOL   H33922059   2.372   0.687   2.769 -1.6910 -1.1133  0.5111
   61MOL   H34022060   2.354   0.846   2.842  0.0168 -1.1799  1.3832
   61MOL   H34122061   2.154   0.972   2.862  0.7347 -0.8607  0.4765
   61MOL   H34222062   2.078   0.966   2.696 -0.7965  0.9111  0.6972
   61MOL   H34322063   2.009   0.886   2.823 -1.4989  3.1058 -1.8060
   61MOL   C34422064   1.893   0.608   2.733 -0.5035  0.1340  0.0434
   61MOL   C34522065   1.791   0.705   2.684 -0.3780 -0.6403 -0.0676
   61MOL   C34622066   1.684   0.739   2.794 -0.0334  0.4407 -0.0568
   61MOL   C34722067   1.586   0.836   2.742  0.3921 -0.1727 -0.1910
   61MOL   C34822068   1.491   0.791   2.630 -1.1169  0.4066  0.1075
   61MOL   C34922069   1.635   0.977   2.722 -0.5486  0.1027 -0.0770
   61MOL   H35022070   1.937   0.627   2.831 -0.4275 -1.4263  0.3194
   61MOL   H35122071   1.838   0.515   2.742 -0.1456 -0.0355  0.4753
   61MOL   H35222072   1.751   0.668   2.590  1.5546  1.0148 -1.5910
   61MOL   H35322073   1.633   0.649   2.828  0.6264 -0.7367 -2.0858
   61MOL   H35422074   1.724   0.777   2.888  0.6986 -1.3003  0.3425
   61MOL   H35522075   1.516   0.850   2.824 -0.4759  0.2196 -0.9883
   61MOL   H35622076   1.422   0.868   2.596 -0.1621  0.0955 -2.6166
   61MOL   H35722077   1.550   0.766   2.542 -2.7561  1.0213 -1.1975
   61MOL   H35822078   1.437   0.701   2.659  0.3755 -0.6440 -0.3102
   61MOL   H35922079   1.708   1.007   2.798 -0.7921  0.3768  0.0483
   61MOL   H36022080   1.558   1.052   2.741  0.0118  0.4866  0.7051
   61MOL   H36122081   1.671   0.991   2.620  0.5508  0.0154  0.2863
   61MOL   H36222082   1.840   0.797   2.650 -0.8703 -0.4586 -0.2920
   62MOL     C122083   5.071   1.547   4.740  0.1394  0.2052 -0.1611
   62MOL     C222084   5.121   1.584   4.597 -1.3318 -0.8155 -0.3562
   62MOL     C322085   5.020   1.660   4.516  0.3073  0.3985  0.5271
   62MOL     C422086   4.988   1.807   4.557  0.0875  0.3112 -0.2038
   62MOL     C522087   4.884   1.869   4.463  0.2082  0.4083  0.4171
   62MOL     C622088   5.111   1.899   4.547 -0.0438  0.2796 -1.3106
   62MOL     H722089   5.140   1.484   4.795 -0.6557 -0.6549 -0.1382
   62MOL     H822090   5.056   1.635   4.803  2.4191  0.6776 -0.2244
   62MOL     H922091   5.201   1.654   4.620 -1.5306 -0.1365 -1.7046
   62MOL    H1022092   5.058   1.670   4.414  0.8420 -0.8821  0.5904
   62MOL    H1122093   4.921   1.614   4.516  0.6091 -0.2661  2.1636
   62MOL    H1222094   4.945   1.812   4.657  1.1739 -0.3944  0.3159
   62MOL    H1322095   4.863   1.966   4.509  1.0963  1.5206 -1.4960
   62MOL    H1422096   4.923   1.886   4.363  0.6941  1.6438  0.8036
   62MOL    H1522097   4.795   1.808   4.449  0.9078  0.1159 -3.0818
   62MOL    H1622098   5.085   2.003   4.564  0.1837  0.5619 -2.6462
   62MOL    H1722099   5.136   1.903   4.441  1.1766 -0.4518 -1.0585
   62MOL    H1822100   5.191   1.862   4.611  0.6421  1.4594 -1.4806
   62MOL    H1922101   4.982   1.485   4.730 -0.4220  1.1903 -1.4479
   62MOL    C2022102   5.186   1.454   4.533 -0.7149  0.2557 -0.0306
   62MOL    C2122103   5.266   1.473   4.401 -0.5240 -1.2464  0.4292
   62MOL    C2222104   5.382   1.575   4.425  0.1710  0.4427 -0.2484
   62MOL    C2322105   5.463   1.631   4.308 -0.0758  0.3483 -0.3414
   62MOL    C2422106   5.384   1.698   4.195  1.0711 -0.2115  0.6105
   62MOL    C2522107   5.566   1.737   4.363  0.5501  0.4807 -0.4690
   62MOL    H2622108   5.252   1.413   4.609 -1.3316 -0.0019  0.3654
   62MOL    H2722109   5.097   1.391   4.526 -2.9805  3.5282 -2.1101
   62MOL    H2822110   5.199   1.516   4.326 -0.6674 -0.1783  1.1571
   62MOL    H2922111   5.461   1.536   4.489  0.3660 -1.4157 -1.5841
   62MOL    H3022112   5.343   1.663   4.476  1.0335  0.6509  0.0558
   62MOL    H3122113   5.517   1.552   4.258  0.4995 -0.3814  1.3998
   62MOL    H3222114   5.462   1.724   4.123 -0.2677 -1.2240 -1.2354
   62MOL    H3322115   5.327   1.786   4.223  0.2428 -0.8020  0.7835
   62MOL    H3422116   5.317   1.623   4.154 -0.2265  0.3374  1.7008
   62MOL    H3522117   5.628   1.781   4.284  0.3722  1.2995 -0.1506
   62MOL    H3622118   5.511   1.825   4.394 -0.5859 -0.3276 -0.1587
   62MOL    H3722119   5.627   1.696   4.443  0.8935 -1.4734 -1.6909
   62MOL    C3822120   5.326   1.335   4.345 -0.1723  0.9847 -0.4424
   62MOL    C3922121   5.216   1.231   4.301 -0.3575 -0.0696  0.1413
   62MOL    C4022122   5.279   1.092   4.261  0.4033  0.0856  0.3404
   62MOL    C4122123   5.189   0.987   4.200  0.3319  0.6575 -0.2485
   62MOL    C4222124   5.095   0.923   4.300 -0.8695  0.0875  0.3346
   62MOL    C4322125   5.275   0.882   4.132  0.6636 -0.2608 -0.2073
   62MOL    H4422126   5.376   1.287   4.429  2.2896  1.1817 -1.7441
   62MOL    H4522127   5.400   1.354   4.268  0.7787  3.4052  1.0044
   62MOL    H4622128   5.160   1.214   4.393 -1.9448 -1.1739 -1.0095
   62MOL    H4722129   5.337   1.058   4.347 -1.3071 -0.6216  1.2578
   62MOL    H4822130   5.365   1.103   4.196  1.6624 -0.0935  1.9232
   62MOL    H4922131   5.131   1.026   4.116  1.9645 -0.3984 -1.9111
   62MOL    H5022132   5.045   0.832   4.268  0.0217 -0.3554  0.2016
   62MOL    H5122133   5.133   0.906   4.401 -0.0815 -1.5331 -0.2262
   62MOL    H5222134   5.011   0.992   4.311  0.3175  1.6309  0.0122
   62MOL    H5322135   5.327   0.912   4.041  1.6793 -1.0293  0.1013
   62MOL    H5422136   5.221   0.792   4.102 -1.6610  0.9454  0.2301
   62MOL    H5522137   5.350   0.858   4.208 -0.1983  1.1781  1.1027
   62MOL    C5622138   5.112   1.280   4.197  0.2539  0.1746 -0.1929
   62MOL    C5722139   5.159   1.341   4.064  0.7403  0.2945 -0.6125
   62MOL    C5822140   5.048   1.437   4.008 -0.7653 -0.6420  0.5356
   62MOL    C5922141   4.922   1.367   3.953  0.3806  0.0704 -0.5784
   62MOL    C6022142   4.880   1.436   3.824  0.3068  0.2934  0.0325
   62MOL    C6122143   4.800   1.360   4.056  0.2162  0.2074  0.1346
   62MOL    H6222144   5.049   1.351   4.251  1.5146 -0.4854  2.1980
   62MOL    H6322145   5.042   1.204   4.164 -0.9723  1.6001 -0.9383
   62MOL    H6422146   5.236   1.411   4.096 -0.9012  1.2553  1.3852
   62MOL    H6522147   5.009   1.505   4.084  0.5673 -0.7007  1.2868
   62MOL    H6622148   5.089   1.507   3.935  0.0756 -0.9844  0.6778
   62MOL    H6722149   4.940   1.263   3.927  1.3043  0.4262 -1.3682
   62MOL    H6822150   4.963   1.455   3.757  0.5087  1.9054  0.7126
   62MOL    H6922151   4.835   1.535   3.831  0.6946  0.3853  1.3544
   62MOL    H7022152   4.807   1.378   3.767  0.1005 -1.5256  2.0508
   62MOL    H7122153   4.756   1.454   4.088 -2.0989 -1.3415  1.7543
   62MOL    H7222154   4.823   1.304   4.147  2.1898  2.3184  0.9671
   62MOL    H7322155   4.711   1.317   4.009  1.0789 -0.2246 -1.1368
   62MOL    C7422156   5.221   1.239   3.955  0.0882 -0.4316 -0.7049
   62MOL    C7522157   5.275   1.312   3.834  0.1869 -0.2967  0.4319
   62MOL    C7622158   5.333   1.213   3.730  0.9585  1.0426  0.2297
   62MOL    C7722159   5.229   1.115   3.667 -0.2371  0.2207  0.2750
   62MOL    C7822160   5.299   1.028   3.557  0.0551  0.5055  0.3146
   62MOL    C7922161   5.104   1.181   3.601 -0.4190  0.0148  0.8794
   62MOL    H8022162   5.143   1.166   3.934 -0.4178  0.2028 -1.0586
   62MOL    H8122163   5.303   1.186   4.004 -0.7140 -0.2023  0.8844
   62MOL    H8222164   5.192   1.373   3.798 -0.2662 -0.7687  0.6732
   62MOL    H8322165   5.390   1.266   3.654 -0.0143  2.1791  0.2709
   62MOL    H8422166   5.408   1.151   3.778  0.0978  0.8190  1.2992
   62MOL    H8522167   5.199   1.046   3.746 -1.1810 -0.9790 -1.0911
   62MOL    H8622168   5.371   0.959   3.602  0.0129  0.2163 -0.0578
   62MOL    H8722169   5.349   1.092   3.483  2.6740 -2.0400 -0.2212
   62MOL    H8822170   5.227   0.970   3.499 -1.0232  0.5274  1.6229
   62MOL    H8922171   5.125   1.254   3.523  0.1951  1.2076  2.1434
   62MOL    H9022172   5.027   1.108   3.577 -0.3903  0.3281 -0.1980
   62MOL    H9122173   5.052   1.232   3.682 -0.2516 -0.6384  1.4095
   62MOL    C9222174   5.382   1.430   3.856 -0.4142  0.8631 -0.6509
   62MOL    C9322175   5.435   1.519   3.738 -0.4781 -0.2418 -0.2593
   62MOL    C9422176   5.320   1.575   3.661 -1.0086 -0.1361 -0.0194
   62MOL    C9522177   5.296   1.506   3.526  0.1700 -0.2432  0.1057
   62MOL    C9622178   5.168   1.554   3.468  0.5540 -0.2474  0.5307
   62MOL    C9722179   5.415   1.530   3.428  0.7000 -0.6946 -0.1592
   62MOL    H9822180   5.341   1.497   3.931  1.0234  0.4837  0.5028
   62MOL    H9922181   5.471   1.388   3.903  0.4406  2.2286 -1.0044
   62MOL   H10022182   5.504   1.459   3.678  0.9466  1.0065  0.1027
   62MOL   H10122183   5.323   1.682   3.644  1.8983 -0.3604 -1.2928
   62MOL   H10222184   5.227   1.580   3.719 -0.8470  1.7270  0.1105
   62MOL   H10322185   5.279   1.399   3.541  0.0061  0.1042  2.6242
   62MOL   H10422186   5.128   1.489   3.389 -1.6727 -0.6131  1.9051
   62MOL   H10522187   5.166   1.658   3.436  2.5247 -0.6464 -1.0032
   62MOL   H10622188   5.092   1.552   3.546 -0.6493  2.6471 -0.4816
   62MOL   H10722189   5.509   1.502   3.476  0.2814  0.3237  1.3221
   62MOL   H10822190   5.410   1.635   3.398  2.0610 -0.7210 -0.5027
   62MOL   H10922191   5.412   1.463   3.342  0.9605 -0.3883 -0.4104
   62MOL   C11022192   5.527   1.629   3.806  0.8264  0.1259  0.3329
   62MOL   C11122193   5.637   1.700   3.725 -0.3080  0.1444 -0.3172
   62MOL   C11222194   5.688   1.829   3.788  0.2875 -0.6511  0.0223
   62MOL   C11322195   5.589   1.947   3.789  0.2047  0.4627  0.0581
   62MOL   C11422196   5.549   1.990   3.646 -0.7387 -0.2295 -0.8200
   62MOL   C11522197   5.636   2.062   3.873  0.0188  0.3303  0.7859
   62MOL   H11622198   5.565   1.588   3.899 -2.0052 -1.1957  0.9735
   62MOL   H11722199   5.451   1.704   3.826  1.6538  1.2806 -0.7707
   62MOL   H11822200   5.581   1.729   3.636  0.8551 -0.6933 -1.3345
   62MOL   H11922201   5.782   1.856   3.742  0.5287 -2.3088 -0.4703
   62MOL   H12022202   5.719   1.797   3.888 -0.7758 -0.1447  0.5253
   62MOL   H12122203   5.498   1.914   3.840  0.0318  1.2383  0.2481
   62MOL   H12222204   5.642   2.003   3.590  0.7905  0.8691  1.8803
   62MOL   H12322205   5.489   2.080   3.644 -1.0091 -0.4018 -0.6013
   62MOL   H12422206   5.489   1.908   3.606 -0.1202 -0.9616 -0.2836
   62MOL   H12522207   5.658   2.028   3.975 -1.0557  0.3542  1.0292
   62MOL   H12622208   5.572   2.149   3.880 -0.1420  0.2867 -0.1085
   62MOL   H12722209   5.729   2.107   3.840  1.0115 -1.3751  1.1551
   62MOL   C12822210   5.749   1.604   3.675 -0.1114 -0.2932  0.1086
   62MOL   C12922211   5.870   1.660   3.591 -0.3789 -1.2329 -0.3634
   62MOL   C13022212   5.812   1.740   3.463 -0.2776 -0.4043  0.7318
   62MOL   C13122213   5.915   1.825   3.380  0.4968 -0.4407 -0.6183
   62MOL   C13222214   5.851   1.869   3.248 -0.0966  0.1187 -0.2078
   62MOL   C13322215   5.963   1.944   3.465 -0.5655 -0.0206 -0.2253
   62MOL   H13422216   5.709   1.517   3.623 -0.7479  0.0625 -0.0026
   62MOL   H13522217   5.784   1.547   3.761  0.7481 -0.9924 -0.6928
   62MOL   H13622218   5.927   1.732   3.649  0.6124 -1.4971 -0.9935
   62MOL   H13722219   5.766   1.664   3.400 -0.1950 -1.6909  2.1875
   62MOL   H13822220   5.729   1.803   3.496  0.6239  0.9880  0.3837
   62MOL   H13922221   5.999   1.764   3.346  0.6476 -0.3322 -0.4421
   62MOL   H14022222   5.852   1.793   3.169  1.4574 -1.8483  1.6534
   62MOL   H14122223   5.909   1.942   3.191 -0.2548 -0.1499 -0.7228
   62MOL   H14222224   5.754   1.918   3.255  1.2437  2.4917  2.3295
   62MOL   H14322225   6.018   1.905   3.551  1.6751 -1.2868 -2.1929
   62MOL   H14422226   6.035   1.996   3.402 -2.7551 -1.0226 -3.6798
   62MOL   H14522227   5.881   2.008   3.499 -2.9802 -0.8024 -4.2831
   62MOL   C14622228   5.982   1.559   3.554  0.6973 -0.3088 -0.1967
   62MOL   C14722229   6.044   1.468   3.666  0.5159  0.1321  0.4137
   62MOL   C14822230   6.118   1.548   3.781  0.6017 -0.2599  0.6546
   62MOL   C14922231   6.253   1.626   3.739  0.3568  0.1093 -0.1425
   62MOL   C15022232   6.242   1.771   3.687  0.2948  0.1320 -0.0333
   62MOL   C15122233   6.347   1.618   3.867  0.1346  0.2366 -0.6103
   62MOL   H15222234   6.060   1.601   3.491 -0.9517  1.6957 -0.9652
   62MOL   H15322235   5.937   1.498   3.475 -2.0566  1.2411  0.1067
   62MOL   H15422236   5.956   1.425   3.714 -0.6850  0.4462 -1.4444
   62MOL   H15522237   6.048   1.625   3.812  1.8408  0.9760  0.4369
   62MOL   H15622238   6.144   1.485   3.866  2.0277 -0.4278  0.1077
   62MOL   H15722239   6.306   1.563   3.669  0.9127 -0.8775  1.1460
   62MOL   H15822240   6.195   1.828   3.767  1.3614  0.3109  0.4743
   62MOL   H15922241   6.182   1.776   3.596 -0.5691 -2.6200  0.3350
   62MOL   H16022242   6.339   1.819   3.680 -0.6610  2.0989 -0.0224
   62MOL   H16122243   6.373   1.517   3.899 -1.7338 -0.2229 -0.4568
   62MOL   H16222244   6.315   1.675   3.954 -1.1420  0.1622 -1.0191
   62MOL   H16322245   6.440   1.669   3.843  1.2621 -1.2525  0.5149
   62MOL   C16422246   6.126   1.361   3.614 -0.0421  0.1720  0.1764
   62MOL   C16522247   6.047   1.260   3.525 -0.4047  0.6516  0.4473
   62MOL   C16622248   6.113   1.254   3.385 -0.1444 -0.2424 -0.3436
   62MOL   C16722249   6.024   1.205   3.269 -0.1595  0.6383 -0.3536
   62MOL   C16822250   5.931   1.312   3.204 -0.0363  0.6532 -0.0332
   62MOL   C16922251   6.096   1.124   3.158 -0.2023  0.2647 -0.0257
   62MOL   H17022252   6.203   1.409   3.554  0.0353 -1.3056 -0.9244
   62MOL   H17122253   6.176   1.305   3.693  1.3482 -1.7124 -1.9988
   62MOL   H17222254   5.945   1.298   3.514 -0.7257 -0.1241  0.7816
   62MOL   H17322255   6.146   1.355   3.361  1.7839 -0.5076  1.0587
   62MOL   H17422256   6.206   1.198   3.397  0.2696  0.1879 -1.5596
   62MOL   H17522257   5.967   1.125   3.317  2.0690 -0.7653  0.0180
   62MOL   H17622258   5.854   1.360   3.264 -0.3393 -0.1139  0.1887
   62MOL   H17722259   5.884   1.255   3.125  0.2112 -1.9517  1.6171
   62MOL   H17822260   5.995   1.386   3.155  1.9706 -0.2809  1.0785
   62MOL   H17922261   6.032   1.091   3.077  0.9821  0.8753 -1.2259
   62MOL   H18022262   6.137   1.032   3.200 -0.2540  0.1681 -0.1848
   62MOL   H18122263   6.178   1.183   3.116  0.3919  0.1468  0.9375
   62MOL   C18222264   6.047   1.123   3.592  0.7897  0.3883  1.3451
   62MOL   C18322265   5.935   1.103   3.691  0.0143  0.1961  0.1625
   62MOL   C18422266   5.837   0.995   3.648 -0.1042  0.4303  0.1161
   62MOL   C18522267   5.753   1.016   3.525  0.4195  0.2362  0.1265
   62MOL   C18622268   5.654   0.896   3.517 -0.3608  0.5454 -0.2133
   62MOL   C18722269   5.677   1.150   3.541  0.2182 -0.0829  0.2979
   62MOL   H18822270   6.146   1.094   3.626  0.1085  0.7874  3.7179
   62MOL   H18922271   6.036   1.054   3.508  0.4027  2.0156  0.0249
   62MOL   H19022272   5.882   1.196   3.712  1.2859  0.2610  3.2917
   62MOL   H19122273   5.774   0.976   3.735  2.2651  1.5670  2.1135
   62MOL   H19222274   5.888   0.899   3.642 -2.8728 -0.9630 -3.3631
   62MOL   H19322275   5.814   1.021   3.435 -0.2080  3.1911 -0.1811
   62MOL   H19422276   5.708   0.806   3.487  1.0792  0.8011  1.4750
   62MOL   H19522277   5.569   0.908   3.450  1.1660  2.5084 -1.8904
   62MOL   H19622278   5.617   0.870   3.616 -0.9534  1.5176 -0.1746
   62MOL   H19722279   5.612   1.168   3.455 -0.7826  0.2404  1.1125
   62MOL   H19822280   5.740   1.238   3.553  2.1000 -1.6160  2.2298
   62MOL   H19922281   5.619   1.150   3.633 -0.5910  0.9295 -0.1995
   62MOL   C20022282   5.992   1.067   3.829  0.2730  0.0637  0.2292
   62MOL   C20122283   5.911   1.095   3.954  0.3972 -0.2027 -0.6490
   62MOL   C20222284   5.889   1.254   3.967  0.1873 -0.6433  0.2955
   62MOL   C20322285   5.819   1.308   4.094  0.1997  0.0532  0.5742
   62MOL   C20422286   5.825   1.462   4.105  0.4473 -0.4729  0.2429
   62MOL   C20522287   5.682   1.245   4.138  0.1018 -0.7463 -0.2219
   62MOL   H20622288   6.090   1.113   3.840  0.6470 -0.5076 -0.6190
   62MOL   H20722289   6.011   0.960   3.816  0.8639  0.3670 -1.6758
   62MOL   H20822290   5.811   1.057   3.937  0.6720  0.0624 -3.0819
   62MOL   H20922291   5.986   1.302   3.957  1.5860 -3.0214  2.2310
   62MOL   H21022292   5.815   1.274   3.889  1.0238  1.5712  0.0361
   62MOL   H21122293   5.887   1.277   4.173  1.1261 -1.3130 -0.7285
   62MOL   H21222294   5.925   1.501   4.120  0.2559  0.2759 -0.4048
   62MOL   H21322295   5.780   1.498   4.197 -0.5861 -1.4417  0.1204
   62MOL   H21422296   5.774   1.512   4.023  2.5056  0.4995 -0.4918
   62MOL   H21522297   5.608   1.275   4.063  1.2148  0.3218 -0.9278
   62MOL   H21622298   5.640   1.279   4.232  0.1242  0.3700 -0.6025
   62MOL   H21722299   5.680   1.136   4.140 -0.6308 -0.8631 -3.9074
   62MOL   C21822300   5.979   1.027   4.075  0.4410  0.7795  0.6630
   62MOL   C21922301   5.951   0.874   4.093 -0.2961  0.4270  0.3247
   62MOL   C22022302   5.805   0.852   4.129  0.1723  0.0425  0.0216
   62MOL   C22122303   5.747   0.707   4.088 -0.4887 -0.6789  0.0298
   62MOL   C22222304   5.617   0.661   4.157 -0.2043 -0.7715  0.2443
   62MOL   C22322305   5.708   0.714   3.932 -0.0541  0.1209  0.3221
   62MOL   H22422306   6.082   1.063   4.073  0.7805 -0.1809  0.7068
   62MOL   H22522307   5.945   1.073   4.168 -1.0630 -0.7291  0.8950
   62MOL   H22622308   5.960   0.833   3.993 -1.3591  3.8853 -1.2605
   62MOL   H22722309   5.795   0.872   4.236  3.9488  2.3100  0.0285
   62MOL   H22822310   5.740   0.928   4.085 -2.8119 -2.7986 -0.7183
   62MOL   H22922311   5.824   0.631   4.104 -1.0702 -2.2514 -4.1480
   62MOL   H23022312   5.625   0.654   4.266  1.2393 -2.4143  0.0558
   62MOL   H23122313   5.536   0.731   4.135  2.0449  1.8336  0.0120
   62MOL   H23222314   5.575   0.573   4.109 -0.1057 -1.5691  1.6088
   62MOL   H23322315   5.781   0.755   3.862 -0.0680  0.7131  0.6520
   62MOL   H23422316   5.668   0.621   3.891  2.7367 -0.7371 -0.5532
   62MOL   H23522317   5.630   0.787   3.910  0.6046  0.5661 -0.5497
   62MOL   C23622318   6.038   0.813   4.214  0.2123  0.1288  0.0141
   62MOL   C23722319   6.193   0.807   4.171 -0.3871 -0.5044 -0.0920
   62MOL   C23822320   6.224   0.689   4.067  0.1626  0.1911  0.0010
   62MOL   C23922321   6.166   0.548   4.101 -0.4289 -0.2388  0.0280
   62MOL   C24022322   6.178   0.462   3.972 -0.5115 -0.1584  0.5983
   62MOL   C24122323   6.240   0.482   4.216  0.3651 -0.1106  0.0161
   62MOL   H24222324   6.000   0.718   4.250  0.0804  0.4003  0.5889
   62MOL   H24322325   6.033   0.869   4.307  0.5843  0.7862 -0.3590
   62MOL   H24422326   6.209   0.903   4.122 -2.3142 -0.5883 -0.9005
   62MOL   H24522327   6.330   0.679   4.044  0.3115 -1.6473  1.3391
   62MOL   H24622328   6.187   0.738   3.977  0.1192  0.3397  0.0982
   62MOL   H24722329   6.060   0.564   4.119 -0.4688 -0.2582 -0.1883
   62MOL   H24822330   6.275   0.461   3.923 -1.2178 -0.2834 -0.8394
   62MOL   H24922331   6.109   0.494   3.893  0.8278 -0.3988 -0.6853
   62MOL   H25022332   6.158   0.358   3.996 -2.7006  0.5090  1.8331
   62MOL   H25122333   6.214   0.376   4.218  0.7733 -0.1796  2.9492
   62MOL   H25222334   6.207   0.501   4.318 -0.1948 -1.0134  0.0020
   62MOL   H25322335   6.349   0.488   4.208  0.6994 -2.9427  1.8277
   62MOL   C25422336   6.283   0.813   4.301  0.1870  0.0157  0.7402
   62MOL   C25522337   6.437   0.785   4.281 -0.9083  0.0489  0.3622
   62MOL   C25622338   6.504   0.878   4.178  0.2321  0.2951 -0.4733
   62MOL   C25722339   6.645   0.834   4.135  0.1556  0.7561 -0.0653
   62MOL   C25822340   6.712   0.944   4.060  0.4660 -0.0231  0.9217
   62MOL   C25922341   6.640   0.704   4.050 -0.3137  0.2128 -0.3566
   62MOL   H26022342   6.272   0.912   4.344  2.0849  0.7291 -0.3477
   62MOL   H26122343   6.242   0.744   4.374 -0.5453  0.3372  0.6298
   62MOL   H26222344   6.447   0.681   4.250  0.3078 -0.6972  3.1100
   62MOL   H26322345   6.501   0.982   4.209  0.5517  0.6282 -1.5169
   62MOL   H26422346   6.437   0.882   4.092 -0.8448  1.1414  0.3890
   62MOL   H26522347   6.703   0.802   4.222 -0.2653 -0.2296 -0.1394
   62MOL   H26622348   6.799   0.910   4.004  0.6874 -0.2470  1.4026
   62MOL   H26722349   6.743   1.026   4.125  2.2071 -0.4325  0.6320
   62MOL   H26822350   6.642   0.981   3.985  0.4434 -1.5246  0.2002
   62MOL   H26922351   6.590   0.618   4.095 -1.1847  1.3474  0.8650
   62MOL   H27022352   6.591   0.716   3.953 -0.4130 -0.5451 -0.3999
   62MOL   H27122353   6.739   0.662   4.033 -0.7187 -0.9216  0.0755
   62MOL   C27222354   6.513   0.781   4.424 -0.1677  0.4461  0.3518
   62MOL   C27322355   6.496   0.650   4.498 -0.8818  0.4604  0.1558
   62MOL   C27422356   6.592   0.540   4.447 -1.1188 -0.4121 -0.0444
   62MOL   C27522357   6.554   0.396   4.473 -0.0945 -0.1451  0.1566
   62MOL   C27622358   6.515   0.355   4.613 -0.5520 -0.2713 -0.0311
   62MOL   C27722359   6.682   0.314   4.433 -0.3971  0.0368  0.1932
   62MOL   H27822360   6.622   0.787   4.413  0.1061 -2.0966  1.5373
   62MOL   H27922361   6.490   0.877   4.470 -0.6860  0.7926 -0.6111
   62MOL   H28022362   6.397   0.610   4.476 -0.0868 -1.6795  0.3490
   62MOL   H28122363   6.690   0.558   4.491 -0.5632 -3.1417 -0.0823
   62MOL   H28222364   6.594   0.556   4.339 -1.5557  0.8624  0.1180
   62MOL   H28322365   6.479   0.372   4.398  0.1038 -1.3632  0.3362
   62MOL   H28422366   6.425   0.404   4.650  0.4457  2.1047 -0.6391
   62MOL   H28522367   6.495   0.248   4.612  2.5477 -0.9031 -0.3161
   62MOL   H28622368   6.589   0.368   4.692 -1.5090 -2.3679  1.2684
   62MOL   H28722369   6.713   0.361   4.339 -1.9631 -1.0848 -0.9182
   62MOL   H28822370   6.764   0.331   4.502 -0.7522 -1.8402  1.1231
   62MOL   H28922371   6.676   0.205   4.423  0.0750  0.0429 -0.2256
   62MOL   C29022372   6.517   0.681   4.649  0.1676  0.1459 -0.7587
   62MOL   C29122373   6.415   0.782   4.720  1.0585 -0.0986 -0.1508
   62MOL   C29222374   6.293   0.706   4.772  0.0148 -0.6058  0.7340
   62MOL   C29322375   6.153   0.772   4.763 -0.0934  0.0587  0.2711
   62MOL   C29422376   6.103   0.790   4.618  0.6729 -0.1772  0.0810
   62MOL   C29522377   6.055   0.690   4.842 -0.3414  0.3821 -0.1515
   62MOL   H29622378   6.519   0.593   4.713 -0.9711  0.1206 -0.7546
   62MOL   H29722379   6.617   0.724   4.653 -0.0513  0.4922  2.0914
   62MOL   H29822380   6.364   0.849   4.651 -1.5271 -1.7701  0.0743
   62MOL   H29922381   6.301   0.676   4.876  2.9040 -1.7985  0.2422
   62MOL   H30022382   6.283   0.613   4.716  0.3302 -0.9510  1.2474
   62MOL   H30122383   6.158   0.873   4.804 -0.1815 -0.4938  1.6473
   62MOL   H30222384   6.171   0.863   4.573 -1.4653  1.9200  0.1202
   62MOL   H30322385   6.009   0.844   4.613  1.0351  0.3806 -0.7864
   62MOL   H30422386   6.099   0.701   4.557  1.2907  0.3120 -0.6836
   62MOL   H30522387   5.957   0.703   4.798 -1.5587  0.4713  2.5115
   62MOL   H30622388   6.042   0.715   4.947 -1.0314  0.0637 -0.1569
   62MOL   H30722389   6.070   0.582   4.839 -2.5392  0.0330  0.3972
   62MOL   C30822390   6.476   0.864   4.831 -0.8405 -0.0282 -0.0969
   62MOL   C30922391   6.402   0.983   4.896 -0.7247 -0.9864  0.1658
   62MOL   C31022392   6.483   1.030   5.019 -0.0217  0.1930  0.4049
   62MOL   C31122393   6.471   0.956   5.154  0.2737 -0.0478  1.0652
   62MOL   C31222394   6.574   1.011   5.252  0.1352 -0.9470  0.2845
   62MOL   C31322395   6.333   0.982   5.215  0.3303 -0.3464  0.5029
   62MOL   H31422396   6.515   0.795   4.905 -0.8074 -1.2390 -1.2098
   62MOL   H31522397   6.562   0.911   4.785 -0.6634  0.2270  0.5005
   62MOL   H31622398   6.313   0.939   4.942 -0.8338 -0.8309  0.1054
   62MOL   H31722399   6.471   1.138   5.035  0.5449  0.8285 -2.9658
   62MOL   H31822400   6.585   1.018   4.983 -0.3459  0.0303 -0.4766
   62MOL   H31922401   6.483   0.849   5.139  0.1389  0.2454 -1.2990
   62MOL   H32022402   6.547   1.117   5.252 -0.9103 -1.2080 -0.3306
   62MOL   H32122403   6.678   0.998   5.224 -0.3686 -0.7732 -1.7787
   62MOL   H32222404   6.553   0.982   5.355  1.5048  0.7034  1.0517
   62MOL   H32322405   6.321   1.087   5.240  0.7245  0.2118 -1.5434
   62MOL   H32422406   6.248   0.950   5.154  0.1032  0.2810  0.4924
   62MOL   H32522407   6.318   0.932   5.311  1.9111  0.2023  1.0464
   62MOL   C32622408   6.349   1.091   4.797  0.1813 -0.6632  1.2094
   62MOL   C32722409   6.437   1.130   4.673  0.2382 -0.3881 -0.3538
   62MOL   C32822410   6.544   1.241   4.713  0.6561 -0.7124  0.1740
   62MOL   C32922411   6.691   1.197   4.732  0.3108  0.6573  0.5271
   62MOL   C33022412   6.758   1.151   4.602 -0.0538 -0.5132 -0.2025
   62MOL   C33122413   6.769   1.315   4.791  0.0755  0.2569  0.2489
   62MOL   H33222414   6.316   1.183   4.846 -0.7104 -0.7434  0.7624
   62MOL   H33322415   6.250   1.063   4.762  1.3282 -1.5030 -1.5342
   62MOL   H33422416   6.498   1.045   4.641  0.5313 -0.4423  0.3355
   62MOL   H33522417   6.539   1.320   4.639 -1.4838 -1.3542 -0.3919
   62MOL   H33622418   6.505   1.286   4.804 -0.0651 -1.9546  0.4885
   62MOL   H33722419   6.687   1.115   4.803 -3.8362 -1.0498 -1.5087
   62MOL   H33822420   6.695   1.082   4.545 -0.4236  0.1894 -0.6437
   62MOL   H33922421   6.849   1.094   4.622 -0.4701 -1.5451 -1.2003
   62MOL   H34022422   6.776   1.236   4.537  1.5737 -1.8735 -1.5634
   62MOL   H34122423   6.850   1.262   4.842 -0.0345 -1.9428 -1.7635
   62MOL   H34222424   6.804   1.385   4.716 -0.1445 -0.1229 -0.2133
   62MOL   H34322425   6.712   1.374   4.862  3.7636  1.5006  2.3143
   62MOL   C34422426   6.351   1.173   4.559 -0.0430 -0.1151 -0.0311
   62MOL   C34522427   6.436   1.179   4.429  0.9974  0.2506  0.3739
   62MOL   C34622428   6.356   1.234   4.309 -0.6146  0.5285 -0.4799
   62MOL   C34722429   6.436   1.247   4.173 -0.0027 -0.1483 -1.3057
   62MOL   C34822430   6.540   1.363   4.178  0.2500  0.6498 -0.1327
   62MOL   C34922431   6.340   1.254   4.047  0.2852  0.8900  0.5907
   62MOL   H35022432   6.305   1.269   4.583 -0.7671 -1.1082  2.8140
   62MOL   H35122433   6.269   1.103   4.543  0.0108  0.2833 -2.1759
   62MOL   H35222434   6.481   1.082   4.409  0.5093 -0.0646  0.7861
   62MOL   H35322435   6.272   1.167   4.290  0.1860 -0.7416  0.3715
   62MOL   H35422436   6.327   1.338   4.324 -2.3786 -0.0086 -0.0141
   62MOL   H35522437   6.496   1.160   4.147  2.2276  1.1643 -0.6323
   62MOL   H35622438   6.497   1.449   4.229 -1.1205 -0.3516  0.4300
   62MOL   H35722439   6.624   1.327   4.237  2.7771  1.4932 -3.0464
   62MOL   H35822440   6.580   1.402   4.084  0.1530 -0.6202 -0.7131
   62MOL   H35922441   6.300   1.155   4.025 -0.8783  1.3317  0.6281
   62MOL   H36022442   6.393   1.292   3.960  1.2995  1.1478  1.3204
   62MOL   H36122443   6.255   1.317   4.076  1.2100  1.9273  1.0669
   62MOL   H36222444   6.505   1.262   4.445 -0.8593  1.5972  1.5791
   63MOL     C122445   1.947   1.998   2.573  0.0073  0.4466  0.5272
   63MOL     C222446   1.802   1.952   2.610 -0.3858 -0.3471  0.0227
   63MOL     C322447   1.685   2.021   2.529  0.5216 -0.4069  0.0561
   63MOL     C422448   1.707   2.013   2.374 -0.7367  0.3932 -0.7624
   63MOL     C522449   1.610   2.103   2.307  0.1012  0.1750 -0.4230
   63MOL     C622450   1.713   1.869   2.317  0.2552 -0.0259  0.3387
   63MOL     H722451   1.974   1.969   2.472  0.5622  0.2995  0.7156
   63MOL     H822452   1.947   2.107   2.582 -1.4116  0.8491 -3.3893
   63MOL     H922453   1.799   1.846   2.586 -0.3104 -0.3008 -0.1910
   63MOL    H1022454   1.589   1.979   2.556  0.5055 -0.4453 -0.0626
   63MOL    H1122455   1.691   2.124   2.565 -0.0108 -0.5325  0.5060
   63MOL    H1222456   1.804   2.060   2.358 -1.0779  1.4345  0.1640
   63MOL    H1322457   1.506   2.082   2.334  0.6108  0.0820  1.5807
   63MOL    H1422458   1.620   2.208   2.336 -2.8787  0.7743 -1.3439
   63MOL    H1522459   1.607   2.093   2.199  1.1386  0.5838 -0.4973
   63MOL    H1622460   1.737   1.868   2.211 -1.1817  1.4715 -0.0185
   63MOL    H1722461   1.618   1.816   2.327  0.1174  0.2205  0.3295
   63MOL    H1822462   1.795   1.806   2.352  0.8183 -0.0990 -1.1039
   63MOL    H1922463   2.026   1.961   2.638 -0.1722 -1.4878 -0.3208
   63MOL    C2022464   1.781   1.969   2.760  0.4488 -0.5683  0.4289
   63MOL    C2122465   1.661   1.891   2.823  0.5218 -0.2591  0.4702
   63MOL    C2222466   1.698   1.743   2.839  0.5178  0.0295 -0.7648
   63MOL    C2322467   1.587   1.639   2.871 -0.2064  0.2111 -0.2348
   63MOL    C2422468   1.490   1.620   2.755  0.8587 -0.0720 -0.2116
   63MOL    C2522469   1.650   1.502   2.911 -0.2402  0.4648 -0.2052
   63MOL    H2622470   1.868   1.939   2.818  1.9483  1.9931 -0.4264
   63MOL    H2722471   1.765   2.075   2.776 -0.6330 -0.4827 -1.1231
   63MOL    H2822472   1.570   1.900   2.764  0.3929 -0.4534  0.6415
   63MOL    H2922473   1.777   1.723   2.911 -0.5390  0.5808  0.5725
   63MOL    H3022474   1.741   1.708   2.746 -0.3643  0.5255 -1.3641
   63MOL    H3122475   1.527   1.667   2.957 -1.9931  0.1576 -1.4455
   63MOL    H3222476   1.417   1.542   2.776  0.7084  0.6126  1.9810
   63MOL    H3322477   1.538   1.585   2.664  1.6050 -0.6438  0.3865
   63MOL    H3422478   1.427   1.709   2.745 -1.2338 -1.7767 -2.6456
   63MOL    H3522479   1.685   1.473   2.812  0.1339 -0.4489  0.1927
   63MOL    H3622480   1.731   1.512   2.983  0.1421 -1.0859 -0.3969
   63MOL    H3722481   1.579   1.426   2.943  1.7206 -2.0327 -1.5902
   63MOL    C3822482   1.631   1.945   2.968 -0.4850  0.9910  0.0840
   63MOL    C3922483   1.480   1.976   2.998 -0.0869 -0.3615  0.5535
   63MOL    C4022484   1.428   2.114   2.950  0.2175  0.4238  0.8164
   63MOL    C4122485   1.423   2.139   2.795 -0.3783  0.0247  0.1174
   63MOL    C4222486   1.378   2.288   2.768 -0.1954 -0.1998 -0.0803
   63MOL    C4322487   1.323   2.045   2.719 -0.1550  0.0688  0.2118
   63MOL    H4422488   1.686   2.038   2.986 -2.6653  1.9017  2.1537
   63MOL    H4522489   1.670   1.869   3.037 -3.3513 -2.2137 -1.6799
   63MOL    H4622490   1.423   1.898   2.947 -1.0857  1.5811 -1.4040
   63MOL    H4722491   1.476   2.190   3.011  0.1277  0.3549  0.9748
   63MOL    H4822492   1.321   2.118   2.971 -0.1212 -3.0360  0.0506
   63MOL    H4922493   1.525   2.128   2.758  0.1565 -1.8798  2.0344
   63MOL    H5022494   1.423   2.353   2.844  0.2844 -0.9214  0.2681
   63MOL    H5122495   1.428   2.311   2.674 -1.8433 -0.4054 -1.0136
   63MOL    H5222496   1.270   2.293   2.763 -0.3723 -0.9262  2.4555
   63MOL    H5322497   1.316   2.069   2.613 -0.3916  2.7259  0.7813
   63MOL    H5422498   1.222   2.051   2.760 -0.8679  0.9952 -1.6431
   63MOL    H5522499   1.358   1.942   2.718  0.3784  0.2663 -1.8013
   63MOL    C5622500   1.438   1.966   3.145  0.1906  0.1584 -0.4957
   63MOL    C5722501   1.292   1.921   3.170 -0.3341  0.3151  0.6278
   63MOL    C5822502   1.248   1.953   3.312  0.7748  0.1255  0.9939
   63MOL    C5922503   1.228   2.102   3.347 -0.1268 -0.1385  0.7686
   63MOL    C6022504   1.175   2.121   3.485  0.7387  0.0338 -0.2344
   63MOL    C6122505   1.146   2.177   3.239  0.4331 -0.0169  0.0091
   63MOL    H6222506   1.459   2.057   3.200 -1.9668  0.3269  0.1202
   63MOL    H6322507   1.502   1.888   3.186 -1.3594 -1.2540 -0.7163
   63MOL    H6422508   1.222   1.969   3.102 -1.3273  1.4963  2.4347
   63MOL    H6522509   1.151   1.903   3.322  0.4550  0.3491 -0.7744
   63MOL    H6622510   1.311   1.903   3.385 -0.2443  0.3927  2.0846
   63MOL    H6722511   1.330   2.140   3.346  0.3307 -1.3213  0.8968
   63MOL    H6822512   1.067   2.112   3.493  0.1551  3.5817 -2.9971
   63MOL    H6922513   1.207   2.217   3.526 -1.8396  0.6808  0.3696
   63MOL    H7022514   1.216   2.039   3.545  1.6115 -0.9215 -2.0842
   63MOL    H7122515   1.187   2.184   3.138  0.1051  1.4725 -0.0219
   63MOL    H7222516   1.137   2.281   3.268  0.1536 -0.2239  0.6644
   63MOL    H7322517   1.047   2.135   3.225  0.5178 -0.4314  0.6394
   63MOL    C7422518   1.272   1.772   3.139  0.4476  0.1624  0.2209
   63MOL    C7522519   1.133   1.745   3.087 -0.2633  0.1516 -0.1791
   63MOL    C7622520   1.086   1.599   3.108 -0.4867 -0.0746  0.2047
   63MOL    C7722521   1.018   1.558   3.240  0.0829 -0.4608  0.4288
   63MOL    C7822522   1.019   1.409   3.286  0.5937 -0.9739  1.1857
   63MOL    C7922523   0.876   1.618   3.260  0.3889 -0.1012 -0.2254
   63MOL    H8022524   1.301   1.708   3.222  3.4772  0.1696 -0.7573
   63MOL    H8122525   1.345   1.745   3.062  3.3767  2.5164  2.0684
   63MOL    H8222526   1.054   1.799   3.139  0.0970  0.7559 -0.2544
   63MOL    H8322527   1.018   1.565   3.030 -0.5200 -0.4843  0.4093
   63MOL    H8422528   1.174   1.535   3.100  0.7232  1.8307 -2.2829
   63MOL    H8522529   1.072   1.609   3.320 -1.9997 -0.7101  2.0503
   63MOL    H8622530   0.954   1.354   3.217  2.4710 -2.4146  0.5317
   63MOL    H8722531   0.976   1.385   3.382 -0.7418  2.3628  1.5114
   63MOL    H8822532   1.120   1.370   3.274  1.7161  2.2501 -0.6851
   63MOL    H8922533   0.853   1.649   3.362  2.0777 -0.3787  0.2533
   63MOL    H9022534   0.867   1.715   3.212  1.3720  1.1262  1.9864
   63MOL    H9122535   0.800   1.560   3.208  0.2931  1.1208 -1.4817
   63MOL    C9222536   1.119   1.778   2.935  0.2023  0.3667  0.5970
   63MOL    C9322537   0.969   1.805   2.882  0.0707  0.1808 -0.6914
   63MOL    C9422538   0.952   1.956   2.838 -0.4617 -0.3000 -0.8498
   63MOL    C9522539   0.945   2.059   2.955  0.0717 -0.3438  0.6102
   63MOL    C9622540   0.925   2.204   2.917 -0.3823  0.5582  0.2181
   63MOL    C9722541   0.838   2.034   3.060  0.0767  0.0384 -0.6208
   63MOL    H9822542   1.183   1.860   2.901 -0.1145  1.6887  3.0528
   63MOL    H9922543   1.161   1.689   2.888  0.0776  1.2257 -1.1748
   63MOL   H10022544   0.904   1.793   2.969 -0.4178 -2.0390 -1.3205
   63MOL   H10122545   0.857   1.961   2.785 -0.1689 -1.7811 -1.5320
   63MOL   H10222546   1.028   1.978   2.763 -1.2908 -0.5329 -1.7647
   63MOL   H10322547   1.042   2.045   3.003  1.0636 -2.5331 -1.8932
   63MOL   H10422548   0.971   2.269   2.992  0.8687  0.4387 -0.4340
   63MOL   H10522549   0.819   2.229   2.926  0.1071  1.9525  2.5358
   63MOL   H10622550   0.974   2.218   2.821 -0.6520 -3.1861 -0.5675
   63MOL   H10722551   0.840   2.108   3.140 -1.9402  0.8362 -1.2828
   63MOL   H10822552   0.839   1.939   3.112 -1.2259  0.7498  0.7169
   63MOL   H10922553   0.739   2.049   3.017  0.1588 -0.4673 -0.9891
   63MOL   C11022554   0.925   1.709   2.766 -0.8741 -0.4238  0.4432
   63MOL   C11122555   0.774   1.689   2.762  0.1036  0.5641  0.1415
   63MOL   C11222556   0.728   1.641   2.623 -0.1592  0.2342 -0.0349
   63MOL   C11322557   0.746   1.735   2.501  0.0663 -0.5053 -0.3321
   63MOL   C11422558   0.685   1.875   2.532 -0.2851 -0.5612  0.4029
   63MOL   C11522559   0.686   1.683   2.375  0.9189  0.7237 -0.7082
   63MOL   H11622560   0.975   1.612   2.774 -1.6183 -0.9821 -1.5324
   63MOL   H11722561   0.941   1.766   2.675 -1.4642  2.2188  1.9370
   63MOL   H11822562   0.715   1.777   2.785  1.0728  1.4239 -0.6623
   63MOL   H11922563   0.621   1.621   2.632  0.1940 -2.0159 -0.4114
   63MOL   H12022564   0.772   1.545   2.596  3.1338  1.6558  0.0273
   63MOL   H12122565   0.854   1.747   2.486  0.2336 -0.7733  0.6019
   63MOL   H12222566   0.586   1.862   2.576  0.6083  0.6749  2.8493
   63MOL   H12322567   0.666   1.927   2.437  0.4861 -0.3321  0.3691
   63MOL   H12422568   0.752   1.942   2.586  0.2530 -1.1539  0.4752
   63MOL   H12522569   0.718   1.579   2.373  0.5956  0.5749  1.0343
   63MOL   H12622570   0.701   1.738   2.282 -2.8675  1.2061 -1.1182
   63MOL   H12722571   0.578   1.673   2.388  1.0738 -0.3788 -0.1800
   63MOL   C12822572   0.733   1.583   2.870  0.3428 -0.0659  0.4099
   63MOL   C12922573   0.595   1.592   2.937  0.3275 -0.8244 -0.1862
   63MOL   C13022574   0.596   1.702   3.040 -0.0483  0.0533 -0.1608
   63MOL   C13122575   0.463   1.770   3.045 -0.0692  0.0002 -1.0962
   63MOL   C13222576   0.466   1.834   3.189 -0.1646 -0.2815  0.4478
   63MOL   C13322577   0.443   1.883   2.936 -0.0439  0.4638 -0.1084
   63MOL   H13422578   0.808   1.588   2.950  0.2669  2.7442  0.3462
   63MOL   H13522579   0.747   1.485   2.823 -0.8449  0.8365 -1.8845
   63MOL   H13622580   0.519   1.623   2.865 -1.4241 -1.6991  1.2691
   63MOL   H13722581   0.630   1.668   3.138 -1.7394 -2.1303 -0.2752
   63MOL   H13822582   0.668   1.778   3.012 -1.2360  0.7984 -1.2825
   63MOL   H13922583   0.386   1.693   3.042  1.6357 -1.6890 -2.0710
   63MOL   H14022584   0.431   1.761   3.262  2.8423 -1.1373  1.1137
   63MOL   H14122585   0.392   1.914   3.186 -0.9346 -0.9392  1.6795
   63MOL   H14222586   0.553   1.886   3.229  1.2335 -2.2859  0.0713
   63MOL   H14322587   0.529   1.949   2.930  0.5497  0.0974  3.2595
   63MOL   H14422588   0.436   1.856   2.831 -0.3149  1.5781 -0.3815
   63MOL   H14522589   0.349   1.931   2.966  0.7585  1.4236  0.8952
   63MOL   C14622590   0.567   1.455   2.997 -0.5946  0.0162  0.6482
   63MOL   C14722591   0.516   1.349   2.887 -0.2042 -0.0558 -0.9934
   63MOL   C14822592   0.373   1.386   2.844  0.1771  0.0672  0.0694
   63MOL   C14922593   0.338   1.327   2.710  0.7249  0.7468 -0.8757
   63MOL   C15022594   0.185   1.320   2.688 -0.9459 -0.3450  0.1941
   63MOL   C15122595   0.406   1.395   2.592 -0.2131 -0.0213  0.4289
   63MOL   H15222596   0.497   1.467   3.080 -0.9968  1.1910  0.1448
   63MOL   H15322597   0.659   1.418   3.042 -0.8308 -0.0497  1.0811
   63MOL   H15422598   0.585   1.344   2.802  0.5720  0.0938 -0.3772
   63MOL   H15522599   0.295   1.359   2.914 -0.1811  0.3490 -0.2189
   63MOL   H15622600   0.349   1.492   2.853  0.3550  0.0720  0.5023
   63MOL   H15722601   0.384   1.228   2.708  1.8217  1.2509 -0.4857
   63MOL   H15822602   0.157   1.419   2.652 -0.1506 -0.0527  0.3702
   63MOL   H15922603   0.132   1.274   2.771 -2.0784  2.0366  0.8465
   63MOL   H16022604   0.164   1.250   2.607  0.8529 -1.3007  0.5406
   63MOL   H16122605   0.387   1.338   2.501  0.6706 -1.0877  0.8994
   63MOL   H16222606   0.515   1.403   2.597  0.0215 -1.4506 -1.9317
   63MOL   H16322607   0.363   1.494   2.576  0.0141 -0.1702 -1.1861
   63MOL   C16422608   0.524   1.209   2.949  0.7535  0.0498  0.1340
   63MOL   C16522609   0.653   1.127   2.903  0.3713  0.6198  0.3331
   63MOL   C16622610   0.663   1.009   3.000  0.5100 -0.2528 -0.3418
   63MOL   C16722611   0.753   1.043   3.127  0.0055 -0.0054 -0.3801
   63MOL   C16822612   0.737   0.943   3.237  0.1803 -0.0888 -0.7640
   63MOL   C16922613   0.899   1.055   3.091 -0.2885 -0.7585  0.0008
   63MOL   H17022614   0.528   1.224   3.057  1.7422 -0.1790  0.1311
   63MOL   H17122615   0.434   1.149   2.942  0.3224  0.6189  0.7778
   63MOL   H17222616   0.733   1.201   2.906  0.9514  0.1433 -2.1779
   63MOL   H17322617   0.568   0.972   3.037  0.1800  1.9554  1.1031
   63MOL   H17422618   0.710   0.931   2.941 -0.8469 -0.1380 -1.6051
   63MOL   H17522619   0.710   1.140   3.153 -0.5888 -0.4511  0.3287
   63MOL   H17622620   0.746   0.844   3.192 -2.4683 -0.8842  0.3056
   63MOL   H17722621   0.635   0.944   3.276  0.0383  0.4722 -1.1512
   63MOL   H17822622   0.805   0.966   3.320  0.6254  0.5122 -1.2980
   63MOL   H17922623   0.969   1.056   3.175  0.6774 -1.0002 -0.7893
   63MOL   H18022624   0.915   1.154   3.048 -0.3737 -1.2570 -1.1776
   63MOL   H18122625   0.937   0.973   3.029  0.1356 -0.5515 -0.0188
   63MOL   C18222626   0.644   1.075   2.749  0.3417 -0.1395 -0.0680
   63MOL   C18322627   0.781   1.060   2.683 -0.9201  0.4135 -0.3507
   63MOL   C18422628   0.774   0.936   2.583 -0.3169 -0.0152  0.3828
   63MOL   C18522629   0.818   0.801   2.639 -0.1845 -0.1673 -0.0345
   63MOL   C18622630   0.764   0.694   2.546 -0.8709 -0.1246 -0.4663
   63MOL   C18722631   0.976   0.780   2.654  0.3528 -0.7725 -0.2334
   63MOL   H18822632   0.590   1.142   2.683 -1.2279 -1.8136 -0.4907
   63MOL   H18922633   0.581   0.987   2.744 -0.2704  0.2225  1.0373
   63MOL   H19022634   0.859   1.033   2.754 -0.2379 -0.9692 -1.5781
   63MOL   H19122635   0.838   0.959   2.499  0.7756 -0.1595  1.1681
   63MOL   H19222636   0.682   0.931   2.524 -0.0223 -1.2158  0.0103
   63MOL   H19322637   0.769   0.796   2.736  1.5073  0.1009  0.8540
   63MOL   H19422638   0.656   0.706   2.534 -0.7683  2.0585  0.5912
   63MOL   H19522639   0.777   0.595   2.590 -0.3049  0.1712  0.0279
   63MOL   H19622640   0.811   0.710   2.448  0.4715 -0.5378  0.1001
   63MOL   H19722641   1.022   0.866   2.703 -2.0925 -0.3572  1.4232
   63MOL   H19822642   1.032   0.765   2.561  1.9202 -1.2577  0.7826
   63MOL   H19922643   1.003   0.700   2.723  2.4144 -0.5264 -0.7191
   63MOL   C20022644   0.821   1.195   2.611  0.0329  0.5611 -0.3357
   63MOL   C20122645   0.974   1.212   2.590  0.3038 -0.6521  0.5625
   63MOL   C20222646   1.043   1.233   2.734 -0.0661 -0.0100  0.3540
   63MOL   C20322647   1.199   1.252   2.736  0.4424  0.7386  0.5409
   63MOL   C20422648   1.257   1.243   2.883  0.0113  0.3034 -0.0128
   63MOL   C20522649   1.279   1.156   2.647  0.0389  0.6207 -0.0800
   63MOL   H20622650   0.796   1.289   2.661  0.8771  1.4325 -1.5124
   63MOL   H20722651   0.766   1.187   2.518  0.0432  1.7685 -0.4479
   63MOL   H20822652   1.008   1.120   2.543 -1.0649 -0.8334 -0.0991
   63MOL   H20922653   0.999   1.318   2.787 -0.0505 -0.2259  0.7186
   63MOL   H21022654   1.017   1.143   2.790  1.9202 -1.3597 -0.8416
   63MOL   H21122655   1.215   1.351   2.692 -0.5582  1.6381  2.1484
   63MOL   H21222656   1.365   1.259   2.873  0.2911 -1.3120  0.3043
   63MOL   H21322657   1.260   1.145   2.930  0.1091  0.3371  0.0516
   63MOL   H21422658   1.208   1.321   2.942 -0.5554  1.6602 -2.2184
   63MOL   H21522659   1.383   1.191   2.643  0.8547 -1.6285  0.5826
   63MOL   H21622660   1.228   1.136   2.552 -1.4616 -1.3238  1.1014
   63MOL   H21722661   1.284   1.058   2.694  0.2861  0.6628 -0.0181
   63MOL   C21822662   0.993   1.330   2.491 -0.5734  0.5727 -0.1348
   63MOL   C21922663   0.953   1.317   2.346 -0.7762 -0.6831  0.0593
   63MOL   C22022664   1.030   1.200   2.278  0.4715  0.8872  0.3013
   63MOL   C22122665   0.972   1.147   2.145 -0.4698 -0.4427  0.4129
   63MOL   C22222666   1.074   1.058   2.073 -0.2006 -0.7260  0.5278
   63MOL   C22322667   0.841   1.063   2.163  0.1928 -0.2275  0.3511
   63MOL   H22422668   0.948   1.419   2.535  0.1442  0.5837  0.5876
   63MOL   H22522669   1.094   1.370   2.490 -0.4090  0.1611 -0.1127
   63MOL   H22622670   0.848   1.288   2.347 -0.9782  0.0733  0.5787
   63MOL   H22722671   1.136   1.221   2.264  1.0246 -1.8101  0.0198
   63MOL   H22822672   1.034   1.110   2.340 -0.4907  0.9424  0.4491
   63MOL   H22922673   0.949   1.230   2.078  0.2336 -0.9802 -0.5077
   63MOL   H23022674   1.036   1.003   1.987  0.9428 -1.4738  0.4793
   63MOL   H23122675   1.168   1.104   2.042 -1.1411  0.7766 -0.1717
   63MOL   H23222676   1.099   0.987   2.152 -1.8917 -0.9220  0.9023
   63MOL   H23322677   0.757   1.133   2.171  0.5939  0.0336  2.4197
   63MOL   H23422678   0.810   0.998   2.081 -1.3451  1.0049 -0.0901
   63MOL   H23522679   0.832   0.997   2.249 -0.3836  0.1988  0.6288
   63MOL   C23622680   0.978   1.455   2.283  0.0785  0.5421  0.5365
   63MOL   C23722681   1.125   1.500   2.247  0.3834  0.0287 -0.4423
   63MOL   C23822682   1.149   1.652   2.283 -0.3123  0.0168  0.4839
   63MOL   C23922683   1.151   1.694   2.435 -0.2056 -0.0387  0.3372
   63MOL   C24022684   1.257   1.634   2.530  0.4232 -0.4913  0.3713
   63MOL   C24122685   1.160   1.842   2.445 -0.3483 -0.6547 -0.6687
   63MOL   H24222686   0.927   1.530   2.344 -2.4193 -0.8045  0.1913
   63MOL   H24322687   0.919   1.458   2.192  0.8433 -2.2559 -0.1076
   63MOL   H24422688   1.192   1.440   2.309 -0.7312 -2.0306 -1.1901
   63MOL   H24522689   1.073   1.709   2.229  1.0947 -0.7920 -2.4480
   63MOL   H24622690   1.245   1.688   2.247 -0.5272  0.4065  0.2922
   63MOL   H24722691   1.055   1.667   2.479 -0.7235 -0.7535 -1.2079
   63MOL   H24822692   1.230   1.650   2.635 -0.4133 -0.6165  0.1768
   63MOL   H24922693   1.356   1.680   2.522  1.0157 -2.2272 -2.7164
   63MOL   H25022694   1.263   1.528   2.510 -2.1093 -0.5698 -0.1277
   63MOL   H25122695   1.103   1.886   2.363 -0.0602  1.3235  0.1765
   63MOL   H25222696   1.263   1.875   2.434 -0.7376  1.0922  0.7474
   63MOL   H25322697   1.105   1.871   2.534  0.9637  0.2199 -0.1284
   63MOL   C25422698   1.156   1.466   2.098 -0.1396  0.2141  0.0498
   63MOL   C25522699   1.309   1.459   2.058  0.2286 -0.4117 -0.3692
   63MOL   C25622700   1.386   1.335   2.114 -0.0668  0.0750 -1.3591
   63MOL   C25722701   1.521   1.363   2.183  0.3642  0.3569 -0.9053
   63MOL   C25822702   1.575   1.236   2.237 -0.3102 -0.5275 -0.1313
   63MOL   C25922703   1.512   1.463   2.299 -0.0087 -0.3139 -0.4706
   63MOL   H26022704   1.099   1.380   2.062 -1.2392  1.6609 -1.7869
   63MOL   H26122705   1.108   1.546   2.041  0.0376 -0.2473 -0.7560
   63MOL   H26222706   1.346   1.552   2.101 -2.9450  0.3790  0.7656
   63MOL   H26322707   1.398   1.270   2.027 -0.9968 -0.3242 -1.1971
   63MOL   H26422708   1.318   1.281   2.180  1.5404  2.1632  2.1891
   63MOL   H26522709   1.585   1.411   2.109 -0.8633  3.0629 -0.2863
   63MOL   H26622710   1.575   1.162   2.157  0.0405 -0.9499  0.2581
   63MOL   H26722711   1.495   1.201   2.302  0.5857  0.1766  1.3761
   63MOL   H26822712   1.672   1.238   2.287 -0.2397  0.2914 -0.3030
   63MOL   H26922713   1.611   1.470   2.344  0.6372  0.6848 -2.0461
   63MOL   H27022714   1.479   1.562   2.268 -1.0061 -0.7344 -0.7595
   63MOL   H27122715   1.439   1.440   2.377  0.6173 -0.8191 -0.0275
   63MOL   C27222716   1.325   1.479   1.905  0.2902  0.0367 -0.1614
   63MOL   C27322717   1.304   1.628   1.847 -0.8935  0.5149 -1.0884
   63MOL   C27422718   1.426   1.665   1.762  0.1461  0.6635  0.2096
   63MOL   C27522719   1.550   1.693   1.840  0.5101 -0.1269 -0.0201
   63MOL   C27622720   1.546   1.830   1.918  0.5731  0.8619 -0.2399
   63MOL   C27722721   1.684   1.688   1.761  0.5072  0.7122  0.4396
   63MOL   H27822722   1.421   1.435   1.879  1.1347  0.3251  2.3193
   63MOL   H27922723   1.259   1.414   1.846  1.6440  0.8020 -2.5554
   63MOL   H28022724   1.302   1.701   1.927  1.6965 -1.3240  0.7526
   63MOL   H28122725   1.392   1.754   1.708  0.0508 -0.2404 -1.2642
   63MOL   H28222726   1.449   1.594   1.683 -1.1521  1.3804 -0.8401
   63MOL   H28322727   1.561   1.615   1.915 -1.9714  0.2218  0.7479
   63MOL   H28422728   1.473   1.824   1.999  2.1013  2.5111  1.3095
   63MOL   H28522729   1.642   1.856   1.962  0.8703 -0.8234  0.1372
   63MOL   H28622730   1.505   1.913   1.860 -0.4668  1.2842  1.0672
   63MOL   H28722731   1.684   1.758   1.677  1.7001  0.1112 -0.0842
   63MOL   H28822732   1.768   1.707   1.828  0.4174  1.2883  0.3908
   63MOL   H28922733   1.706   1.590   1.717 -0.1236  1.1889 -0.9607
   63MOL   C29022734   1.172   1.644   1.764  0.0297  0.3894  0.1397
   63MOL   C29122735   1.124   1.786   1.725 -0.1227  0.1470 -0.4618
   63MOL   C29222736   1.135   1.812   1.571  0.3830  0.0289  0.4838
   63MOL   C29322737   1.106   1.953   1.519  0.0245  0.5886  0.7849
   63MOL   C29422738   1.198   2.062   1.567 -0.0930 -0.2096 -0.3039
   63MOL   C29522739   1.098   1.953   1.358  0.2770  0.9552  0.0826
   63MOL   H29622740   1.179   1.577   1.678  0.7839  1.3375 -0.5454
   63MOL   H29722741   1.103   1.593   1.833  0.1049  1.0086  0.6719
   63MOL   H29822742   1.188   1.858   1.775 -0.0419  0.2403 -0.6995
   63MOL   H29922743   1.063   1.744   1.527  1.2920 -0.1346 -0.7819
   63MOL   H30022744   1.239   1.800   1.539  0.3016  1.1496 -0.2367
   63MOL   H30122745   1.008   1.979   1.558  0.4285  1.4569  1.2244
   63MOL   H30222746   1.169   2.061   1.672 -1.1217  0.6892 -0.5632
   63MOL   H30322747   1.180   2.157   1.515  0.3221 -0.1915 -0.4109
   63MOL   H30422748   1.301   2.030   1.554 -0.9537 -2.2745 -2.4087
   63MOL   H30522749   1.042   2.040   1.323 -0.5857  0.3462 -0.0802
   63MOL   H30622750   1.040   1.865   1.329  2.4198 -0.4040 -0.1581
   63MOL   H30722751   1.189   1.964   1.300  1.2633  1.8343  1.7661
   63MOL   C30822752   0.976   1.808   1.780 -0.2740 -0.4371 -0.3659
   63MOL   C30922753   0.977   1.849   1.932 -0.5646 -0.3489 -0.6003
   63MOL   C31022754   1.024   1.995   1.951  0.0087 -0.4886  0.4763
   63MOL   C31122755   1.066   2.033   2.089  0.3910  0.1721  0.1285
   63MOL   C31222756   1.199   1.979   2.136  0.2462 -0.4610  0.4029
   63MOL   C31322757   1.072   2.189   2.095 -0.4985  0.4388 -1.0612
   63MOL   H31422758   0.924   1.886   1.726 -2.1856 -1.1247  0.4269
   63MOL   H31522759   0.913   1.722   1.757 -1.4795  0.7563 -1.5977
   63MOL   H31622760   1.047   1.782   1.982  0.5279  0.9122 -0.4202
   63MOL   H31722761   0.947   2.065   1.916 -2.1750 -2.9588  0.1997
   63MOL   H31822762   1.114   2.017   1.895  0.0275 -1.1870  0.2265
   63MOL   H31922763   0.987   2.015   2.162 -1.3522  0.7275 -1.5904
   63MOL   H32022764   1.210   2.018   2.237  0.1664 -0.7650  0.5311
   63MOL   H32122765   1.275   2.008   2.063 -1.4991 -0.2697 -1.3689
   63MOL   H32222766   1.213   1.871   2.144  0.5232 -0.4354  0.2710
   63MOL   H32322767   1.114   2.226   2.002 -0.1532  0.0747 -1.0504
   63MOL   H32422768   0.975   2.232   2.121  0.0430  0.3510  1.1592
   63MOL   H32522769   1.143   2.220   2.171 -0.6929 -4.9673  1.5290
   63MOL   C32622770   0.845   1.837   2.007  0.0820 -0.0848  0.0876
   63MOL   C32722771   0.712   1.896   1.947  0.9011 -0.1251 -0.5969
   63MOL   C32822772   0.635   1.979   2.055  0.0028  0.3284  0.2163
   63MOL   C32922773   0.512   2.062   2.003  0.0662 -0.4745 -0.0565
   63MOL   C33022774   0.434   2.128   2.125  0.6146  0.6072 -0.1543
   63MOL   C33122775   0.540   2.174   1.897 -0.2847 -1.1052  0.1701
   63MOL   H33222776   0.853   1.858   2.114 -0.3198  0.1037  0.0791
   63MOL   H33322777   0.838   1.729   2.014 -2.6681  0.1653  1.7187
   63MOL   H33422778   0.732   1.975   1.874  1.6494 -0.4737 -0.7840
   63MOL   H33522779   0.602   1.913   2.135 -0.9533  2.9906  2.1217
   63MOL   H33622780   0.705   2.044   2.107  0.5054  0.4029 -0.5580
   63MOL   H33722781   0.451   1.987   1.953 -0.7888  0.0655  0.1756
   63MOL   H33822782   0.504   2.196   2.175  4.0100 -2.3744 -0.6019
   63MOL   H33922783   0.399   2.053   2.196  0.7420  1.0594  0.3851
   63MOL   H34022784   0.361   2.203   2.097  1.4665  1.5375  0.0938
   63MOL   H34122785   0.630   2.225   1.933  0.3150 -1.6462 -0.5386
   63MOL   H34222786   0.566   2.124   1.804 -0.0891 -1.3926  0.3763
   63MOL   H34322787   0.463   2.251   1.895  0.9644  0.2477  2.0684
   63MOL   C34422788   0.619   1.789   1.888 -0.1369  0.2241  0.5058
   63MOL   C34522789   0.581   1.824   1.741  0.0265 -0.7339  0.4098
   63MOL   C34622790   0.460   1.741   1.692 -0.1379 -0.4044  0.4326
   63MOL   C34722791   0.500   1.616   1.604  0.2796 -0.2748 -0.2508
   63MOL   C34822792   0.549   1.657   1.471 -0.0051  0.0417 -0.0352
   63MOL   C34922793   0.383   1.511   1.588 -1.0933  0.1006 -0.9673
   63MOL   H35022794   0.534   1.779   1.955  0.2521  2.8457  1.4452
   63MOL   H35122795   0.665   1.690   1.893 -0.0740  0.2876  1.1764
   63MOL   H35222796   0.669   1.812   1.677  0.6365  1.0179  0.8778
   63MOL   H35322797   0.411   1.719   1.786  1.8890  1.5809  2.0204
   63MOL   H35422798   0.395   1.813   1.643  2.0184  1.1611 -0.2509
   63MOL   H35522799   0.578   1.556   1.652 -0.8642  0.3600  2.4817
   63MOL   H35622800   0.471   1.712   1.418 -1.5384 -0.1181  1.9656
   63MOL   H35722801   0.631   1.729   1.473  0.2846 -0.3055  1.5438
   63MOL   H35822802   0.575   1.576   1.404 -1.3670  0.3802 -0.9861
   63MOL   H35922803   0.313   1.541   1.510  0.2552  0.9838 -1.8539
   63MOL   H36022804   0.335   1.507   1.686 -0.3437 -0.3433 -0.6159
   63MOL   H36122805   0.439   1.423   1.557  0.4937  0.2974  1.1885
   63MOL   H36222806   0.556   1.930   1.734  1.7819 -0.3781 -1.0059
   64MOL     C122807   7.338   6.525   5.038 -0.3771  0.1548  0.5732
   64MOL     C222808   7.242   6.423   5.091  0.7403 -0.1955 -0.8595
   64MOL     C322809   7.316   6.293   5.137  0.3390  0.8244 -0.9406
   64MOL     C422810   7.288   6.236   5.281 -0.1833 -0.0659 -0.2170
   64MOL     C522811   7.396   6.134   5.320  0.4574  0.2455 -0.1602
   64MOL     C622812   7.149   6.169   5.288  0.1879 -0.1651 -0.1129
   64MOL     H722813   7.284   6.614   5.004  1.7784  1.2211 -0.1872
   64MOL     H822814   7.399   6.568   5.118 -0.6487  1.1632  0.2503
   64MOL     H922815   7.197   6.464   5.182  0.8447  0.0157 -0.9040
   64MOL    H1022816   7.286   6.211   5.071 -3.0948  1.7914 -0.6486
   64MOL    H1122817   7.422   6.306   5.117  0.6050  0.8474  0.4677
   64MOL    H1222818   7.274   6.323   5.345 -0.2000  0.9009 -1.5153
   64MOL    H1322819   7.407   6.062   5.239  0.0561 -0.7404  0.6496
   64MOL    H1422820   7.490   6.187   5.334  1.2482 -1.6023  1.9428
   64MOL    H1522821   7.357   6.081   5.407  0.1632 -0.7968 -0.9199
   64MOL    H1622822   7.125   6.142   5.391  1.9636 -0.3909  0.2613
   64MOL    H1722823   7.140   6.070   5.243  2.5907 -0.2166 -0.5387
   64MOL    H1822824   7.084   6.241   5.238 -1.1376 -1.0386  0.3044
   64MOL    H1922825   7.402   6.483   4.960  0.1022  1.4530  0.2423
   64MOL    C2022826   7.134   6.388   4.987 -0.0162  0.7983 -0.0303
   64MOL    C2122827   7.037   6.502   4.937  0.1286  0.1253  0.2953
   64MOL    C2222828   6.974   6.460   4.802  0.5217  0.1310 -0.2482
   64MOL    C2322829   7.052   6.503   4.673 -0.0721 -0.3891  0.0683
   64MOL    C2422830   6.994   6.427   4.554  0.7527 -0.2935  0.8739
   64MOL    C2522831   7.051   6.650   4.635  0.1913 -0.4546  0.1510
   64MOL    H2622832   7.185   6.343   4.902  0.0234  0.0021  0.4073
   64MOL    H2722833   7.073   6.306   5.024  0.0426  0.8035  0.0803
   64MOL    H2822834   7.097   6.591   4.922 -0.6022  0.8652  1.6229
   64MOL    H2922835   6.880   6.514   4.791  0.9450  0.9703  0.1802
   64MOL    H3022836   6.933   6.359   4.803  0.9152 -0.0275  0.6696
   64MOL    H3122837   7.154   6.468   4.681 -0.1304 -0.1584  2.0426
   64MOL    H3222838   7.066   6.442   4.473  2.8353 -1.9735  2.3493
   64MOL    H3322839   6.906   6.478   4.515  0.5779  0.1603  1.8634
   64MOL    H3422840   6.977   6.321   4.568  0.1006 -0.2210  0.6610
   64MOL    H3522841   6.950   6.674   4.600  0.0165 -0.7701  0.4389
   64MOL    H3622842   7.066   6.702   4.729 -0.4915 -1.4698  0.8299
   64MOL    H3722843   7.127   6.670   4.560 -1.0277  0.5169 -0.8660
   64MOL    C3822844   6.931   6.534   5.051 -0.2700 -0.1307  0.1545
   64MOL    C3922845   6.948   6.648   5.152 -0.0863 -0.1489  0.0522
   64MOL    C4022846   6.884   6.617   5.292  0.8354  1.2018  0.7659
   64MOL    C4122847   6.958   6.513   5.378  0.7007 -0.4513 -0.1164
   64MOL    C4222848   6.852   6.447   5.475 -0.2778 -0.3795 -0.2755
   64MOL    C4322849   7.066   6.579   5.466  0.4029  0.0164 -0.1354
   64MOL    H4422850   6.923   6.442   5.109  2.7402 -0.2234  0.4828
   64MOL    H4522851   6.832   6.540   5.004 -0.4454 -0.7624  0.4494
   64MOL    H4622852   7.056   6.660   5.163  0.0490  1.7009 -2.8912
   64MOL    H4722853   6.792   6.568   5.259  1.0806  1.4816 -0.3703
   64MOL    H4822854   6.856   6.703   5.352 -1.8717  0.7042  0.2816
   64MOL    H4922855   7.009   6.436   5.321 -1.1797 -2.9167  1.4540
   64MOL    H5022856   6.896   6.354   5.509  1.0736  0.9186  1.6332
   64MOL    H5122857   6.825   6.506   5.562 -2.1030 -0.9132 -0.4584
   64MOL    H5222858   6.764   6.414   5.420  0.4482 -0.6594 -1.2796
   64MOL    H5322859   7.136   6.648   5.420 -1.1639  0.8386 -1.3509
   64MOL    H5422860   7.113   6.494   5.515  0.9893 -0.1986 -1.0456
   64MOL    H5522861   7.018   6.644   5.539 -2.0048 -1.7231 -0.0944
   64MOL    C5622862   6.897   6.777   5.091 -0.2538 -0.1871  0.0574
   64MOL    C5722863   6.940   6.911   5.151  0.1515  0.0971 -0.5051
   64MOL    C5822864   6.852   7.029   5.111 -0.4023  0.8139 -0.6930
   64MOL    C5922865   6.730   7.058   5.197  0.2988  0.2894 -0.0126
   64MOL    C6022866   6.630   7.159   5.129 -0.1398 -0.5377 -0.3277
   64MOL    C6122867   6.763   7.110   5.336  0.0081  0.7594 -0.5480
   64MOL    H6222868   6.789   6.772   5.093 -0.4079  1.8142 -1.5563
   64MOL    H6322869   6.929   6.779   4.987 -2.1383 -0.6597 -0.5486
   64MOL    H6422870   6.951   6.901   5.259 -1.7895 -0.0925 -0.3138
   64MOL    H6522871   6.914   7.119   5.116  0.0087  0.6473 -2.3239
   64MOL    H6622872   6.823   7.021   5.006 -1.9830 -0.6283 -0.1650
   64MOL    H6722873   6.672   6.968   5.219 -0.0745  1.0958  2.3982
   64MOL    H6822874   6.673   7.260   5.128  1.0821 -1.0423 -1.8910
   64MOL    H6922875   6.537   7.176   5.183  0.2008 -1.5570  0.5974
   64MOL    H7022876   6.594   7.132   5.030 -0.1626 -2.1283  0.1065
   64MOL    H7122877   6.812   7.034   5.397 -0.7362  1.0334  0.3977
   64MOL    H7222878   6.676   7.135   5.397  0.6925 -0.6946  1.0889
   64MOL    H7322879   6.820   7.203   5.336  0.9189  0.2093 -0.9708
   64MOL    C7422880   7.083   6.944   5.098  0.3484 -0.1757 -0.0179
   64MOL    C7522881   7.165   7.038   5.189  0.1921  0.4834  1.0153
   64MOL    C7622882   7.263   7.133   5.118 -0.6968 -0.4786 -0.3934
   64MOL    C7722883   7.189   7.256   5.066  0.3190 -0.1830 -0.1481
   64MOL    C7822884   7.280   7.333   4.969 -0.5819  0.3654  0.2118
   64MOL    C7922885   7.154   7.355   5.180 -0.0169 -0.0186 -0.1972
   64MOL    H8022886   7.068   6.997   5.004  1.5691  0.3958  0.1073
   64MOL    H8122887   7.138   6.855   5.067 -1.0582 -0.8453 -0.6523
   64MOL    H8222888   7.084   7.094   5.235  1.0826  0.1706  3.0012
   64MOL    H8322889   7.334   7.157   5.197 -1.1912 -1.8385  0.4797
   64MOL    H8422890   7.309   7.086   5.032 -0.1287  2.2338 -1.6398
   64MOL    H8522891   7.101   7.231   5.007 -1.6192 -0.3585  2.7092
   64MOL    H8622892   7.226   7.420   4.933 -3.5103 -1.1461  0.7890
   64MOL    H8722893   7.311   7.271   4.885 -1.9416 -0.8442  0.5666
   64MOL    H8822894   7.373   7.381   4.999  0.3859  2.7906 -5.9100
   64MOL    H8922895   7.106   7.442   5.137 -0.1031  0.4754  0.8757
   64MOL    H9022896   7.080   7.313   5.248 -1.7476  0.9634 -1.4354
   64MOL    H9122897   7.246   7.385   5.229 -0.1253  1.0401 -0.6417
   64MOL    C9222898   7.234   6.944   5.293 -0.2986 -0.4112 -0.4980
   64MOL    C9322899   7.270   7.002   5.428  0.1182  0.4928 -0.0924
   64MOL    C9422900   7.142   7.000   5.510  0.3571 -0.1350 -0.5797
   64MOL    C9522901   7.148   7.105   5.620 -0.7277 -0.0444 -0.6872
   64MOL    C9622902   7.058   7.221   5.584  0.3135  0.7423  0.4560
   64MOL    C9722903   7.089   7.041   5.746 -0.2123 -0.5084  0.3475
   64MOL    H9822904   7.181   6.850   5.310  0.7429 -1.4573 -2.7562
   64MOL    H9922905   7.329   6.903   5.255  1.7087  1.6284  2.1438
   64MOL   H10022906   7.293   7.107   5.415 -0.1219  0.9319  2.6573
   64MOL   H10122907   7.125   6.902   5.555 -2.3287  0.1562 -0.8352
   64MOL   H10222908   7.051   7.018   5.452 -0.5613  0.0784  0.9094
   64MOL   H10322909   7.253   7.128   5.637 -0.0424 -1.2004 -3.1487
   64MOL   H10422910   7.096   7.302   5.647  3.0241 -1.1202  1.3211
   64MOL   H10522911   6.952   7.206   5.604  0.1201  1.1343 -0.2618
   64MOL   H10622912   7.073   7.245   5.479 -0.0879  0.2845  0.2901
   64MOL   H10722913   7.067   7.107   5.830 -1.4018  1.3164 -1.3628
   64MOL   H10822914   7.159   6.962   5.773  0.0514 -0.9404 -1.5719
   64MOL   H10922915   6.988   7.007   5.725 -0.0770  1.0129 -3.0122
   64MOL   C11022916   7.400   6.937   5.496  0.0151  0.7603 -0.2463
   64MOL   C11122917   7.530   7.026   5.481  0.6025 -0.1712 -0.6536
   64MOL   C11222918   7.645   6.978   5.579  0.2089  0.9945 -0.6843
   64MOL   C11322919   7.636   7.050   5.718 -1.0832  0.8242 -0.7154
   64MOL   C11422920   7.686   7.196   5.726  0.9887 -0.0822 -0.7085
   64MOL   C11522921   7.705   6.962   5.819  0.1885  0.3101  0.2525
   64MOL   H11622922   7.419   6.835   5.464 -3.0446  0.9295 -2.8572
   64MOL   H11722923   7.379   6.926   5.603 -2.4037 -0.2505 -0.7777
   64MOL   H11822924   7.502   7.128   5.506  0.0507 -0.2938 -0.7721
   64MOL   H11922925   7.745   6.990   5.539  0.1416  1.7105 -0.6308
   64MOL   H12022926   7.637   6.870   5.594  2.4618  0.9903  0.6771
   64MOL   H12122927   7.532   7.047   5.750 -0.3230  0.8064  1.9423
   64MOL   H12222928   7.694   7.232   5.829 -3.0051  2.1497 -1.1066
   64MOL   H12322929   7.621   7.263   5.670  0.2937 -0.0027  0.1790
   64MOL   H12422930   0.029   7.212   5.676  1.4313 -2.9553 -0.8542
   64MOL   H12522931   7.709   7.004   5.920  0.0734 -1.7616  1.1586
   64MOL   H12622932   0.059   6.944   5.801  0.2368 -0.5086  1.2850
   64MOL   H12722933   7.658   6.864   5.827  0.0292  0.2401 -1.4378
   64MOL   C12822934   7.592   7.031   5.340 -0.1813 -0.2971  0.4234
   64MOL   C12922935   7.701   7.138   5.315  0.1055 -0.0310  0.2598
   64MOL   C13022936   7.629   7.276   5.294 -0.0459  0.5847 -0.1363
   64MOL   C13122937   7.723   7.397   5.300  0.2821 -0.3572  0.4762
   64MOL   C13222938   7.654   7.526   5.250  0.1348 -0.4891 -0.2436
   64MOL   C13322939   0.026   7.420   5.441  0.0006  0.2269 -0.0696
   64MOL   H13422940   7.501   7.052   5.282 -0.4796  0.8744  1.2993
   64MOL   H13522941   7.631   6.935   5.305  1.1580  0.1321  0.7512
   64MOL   H13622942   0.021   7.153   5.394 -1.0066  1.7097  0.9677
   64MOL   H13722943   7.567   7.278   5.205  1.2821  1.0060 -1.0660
   64MOL   H13822944   7.560   7.300   5.375 -0.0246 -1.0539  0.3922
   64MOL   H13922945   0.058   7.373   5.238 -0.2823  3.6589 -2.0762
   64MOL   H14022946   7.727   7.605   5.232 -0.0364 -0.0355  0.9678
   64MOL   H14122947   7.576   7.554   5.321 -0.7120 -0.8139 -1.0460
   64MOL   H14222948   7.595   7.519   5.159 -2.3119  1.6475  1.1237
   64MOL   H14322949   0.109   7.350   5.454 -0.9136 -0.7269  0.7996
   64MOL   H14422950   0.074   7.517   5.451  2.4775 -0.3317 -5.1011
   64MOL   H14522951   7.696   7.393   5.507 -0.5745  2.8016  0.2858
   64MOL   C14622952   0.036   7.106   5.193 -0.2209 -0.5393  0.2733
   64MOL   C14722953   0.154   7.018   5.229  0.1545 -0.5143  0.1821
   64MOL   C14822954   0.277   7.105   5.281  0.0871 -0.7695 -0.0964
   64MOL   C14922955   0.361   7.046   5.394 -0.4026 -0.0043 -0.4914
   64MOL   C15022956   0.450   7.157   5.456 -0.6835 -0.3292 -0.0977
   64MOL   C15122957   0.289   6.982   5.508 -0.1156 -0.0059 -0.0383
   64MOL   H15222958   0.059   7.190   5.128 -0.6375 -0.4626  0.2250
   64MOL   H15322959   7.717   7.073   5.118 -0.7932  1.5384 -0.1309
   64MOL   H15422960   0.116   6.951   5.306 -1.3948  1.9956  1.6555
   64MOL   H15522961   0.335   7.138   5.195 -0.8226 -1.0117 -0.8154
   64MOL   H15622962   0.241   7.200   5.320 -1.1371 -0.5208 -1.7545
   64MOL   H15722963   0.427   6.976   5.343  3.4135  2.9837  0.0709
   64MOL   H15822964   0.493   7.208   5.370  1.1596 -2.5412 -0.5437
   64MOL   H15922965   0.533   7.101   5.498 -0.1590  0.7989  0.3929
   64MOL   H16022966   0.403   7.229   5.523  0.3371 -1.0416  1.4099
   64MOL   H16122967   0.221   7.052   5.557  1.6180  0.4211  1.8226
   64MOL   H16222968   0.355   6.942   5.585  0.9781  0.1189 -0.9050
   64MOL   H16322969   0.227   6.903   5.465 -1.8820  1.7895 -0.8759
   64MOL   C16422970   0.199   6.941   5.098 -0.1090  0.0046 -0.1474
   64MOL   C16522971   0.117   6.816   5.066 -0.8603  0.4734  0.3141
   64MOL   C16622972   0.061   6.835   4.926 -0.4330  0.8999 -0.2766
   64MOL   C16722973   7.687   6.757   4.890  0.1923  0.4475 -0.3320
   64MOL   C16822974   7.572   6.833   4.961 -0.1296  0.3718 -0.7878
   64MOL   C16922975   7.650   6.753   4.741 -0.8620  0.4751 -0.3099
   64MOL   H17022976   0.204   7.020   5.023  3.5461 -0.0838 -0.1008
   64MOL   H17122977   0.304   6.914   5.110 -0.1826  0.2657  1.1956
   64MOL   H17222978   0.035   6.802   5.136 -0.5963 -2.7035  0.0316
   64MOL   H17322979   0.050   6.941   4.905  1.1189  1.2598  0.6304
   64MOL   H17422980   0.140   6.798   4.860 -1.4185 -0.0422 -0.9479
   64MOL   H17522981   7.688   6.658   4.935 -3.4429  0.5148  0.0137
   64MOL   H17622982   7.587   6.861   5.065  0.7288  1.5946 -1.2223
   64MOL   H17722983   7.491   6.764   4.980 -0.5903  1.0753 -0.1785
   64MOL   H17822984   7.533   6.924   4.914 -1.4767  0.9960  1.4916
   64MOL   H17922985   7.545   6.722   4.735 -1.0097  0.6250  1.2785
   64MOL   H18022986   7.713   6.684   4.685  0.0584 -0.1234  1.4568
   64MOL   H18122987   7.650   6.858   4.710  2.1884  0.3934 -0.7242
   64MOL   C18222988   0.197   6.683   5.079 -0.4777 -0.1744  0.2345
   64MOL   C18322989   0.240   6.644   5.228  0.0207  0.6539  0.5214
   64MOL   C18422990   0.116   6.635   5.323 -0.1331 -0.1619  0.5090
   64MOL   C18522991   7.729   6.576   5.272 -0.0200 -0.0066 -0.4657
   64MOL   C18622992   7.720   6.424   5.274 -0.6979  0.0608 -0.2592
   64MOL   C18722993   7.618   6.625   5.363 -0.6596  0.5976 -0.2433
   64MOL   H18822994   0.281   6.691   5.010 -0.2498 -0.1779  0.5101
   64MOL   H18922995   0.144   6.598   5.036  1.6479  0.1778 -3.2150
   64MOL   H19022996   0.303   6.726   5.260 -0.4805  0.6422  1.5430
   64MOL   H19122997   0.093   6.735   5.361 -0.7947 -0.4878  0.9497
   64MOL   H19222998   0.147   6.584   5.414  0.7190 -0.8596 -0.1615
   64MOL   H19322999   7.698   6.615   5.175 -1.1552  0.1700 -0.0366
   64MOL   H19423000   0.051   6.385   5.214 -0.1691  0.4810  0.2037
   64MOL   H19523001   7.621   6.395   5.239 -1.0927 -0.4926  1.2586
   64MOL   H19623002   7.737   6.385   5.374  1.8637 -1.3685 -1.1946
   64MOL   H19723003   7.602   6.732   5.349 -2.7145  0.7923  3.1648
   64MOL   H19823004   7.637   6.620   5.470  0.1013  0.5982 -0.3765
   64MOL   H19923005   7.518   6.584   5.345 -0.9900  0.8693  0.9330
   64MOL   C20023006   0.327   6.513   5.222  0.1907 -0.8964  0.6770
   64MOL   C20123007   0.432   6.482   5.337  0.8415 -0.7958 -0.5856
   64MOL   C20223008   0.518   6.604   5.387  0.0860 -0.1363 -0.2022
   64MOL   C20323009   0.636   6.659   5.295  0.3674  0.4395  0.5754
   64MOL   C20423010   0.592   6.742   5.180 -0.3654 -0.2013 -0.4397
   64MOL   C20523011   0.710   6.760   5.386  0.4352 -0.1234 -0.7615
   64MOL   H20623012   0.385   6.519   5.130  0.1688  0.6730  0.7611
   64MOL   H20723013   0.258   6.430   5.203 -1.2362  0.3848  0.1254
   64MOL   H20823014   0.364   6.451   5.416  2.3344 -0.2422  0.9434
   64MOL   H20923015   0.447   6.684   5.407  1.4460  0.7253  1.2790
   64MOL   H21023016   0.546   6.581   5.489  0.2505 -1.1679 -0.4730
   64MOL   H21123017   0.700   6.582   5.252 -2.4375 -1.0979 -0.9693
   64MOL   H21223018   0.524   6.692   5.111 -2.4797 -3.2416  3.6057
   64MOL   H21323019   0.686   6.774   5.135 -1.8547  1.8777 -2.1678
   64MOL   H21423020   0.541   6.831   5.217  3.3290  1.8390 -0.0705
   64MOL   H21523021   0.641   6.839   5.419 -1.1091 -1.6730 -0.2191
   64MOL   H21623022   0.799   6.805   5.342  0.2807  1.6182  0.5949
   64MOL   H21723023   0.743   6.708   5.476 -0.6246  1.2124  0.4373
   64MOL   C21823024   0.509   6.351   5.301  0.1172 -0.2432 -0.4100
   64MOL   C21923025   0.622   6.311   5.393 -0.2241  0.2138 -0.2899
   64MOL   C22023026   0.736   6.228   5.323  0.4348 -0.4616 -0.3255
   64MOL   C22123027   0.824   6.309   5.224  0.2131  0.3076 -0.3670
   64MOL   C22223028   0.936   6.378   5.304 -0.1082 -0.5579  1.3241
   64MOL   C22323029   0.890   6.210   5.131 -0.5206 -0.4600  0.0989
   64MOL   H22423030   0.444   6.263   5.297 -0.7671  0.2500  2.4379
   64MOL   H22523031   0.545   6.351   5.198 -1.4982  0.3250 -0.9903
   64MOL   H22623032   0.675   6.400   5.428 -2.2523  0.9211  1.0817
   64MOL   H22723033   0.807   6.182   5.392  1.4990  0.7712 -0.6003
   64MOL   H22823034   0.679   6.148   5.276 -2.9469  1.2885  0.5897
   64MOL   H22923035   0.777   6.388   5.167 -5.3782 -1.9529  0.7648
   64MOL   H23023036   0.894   6.445   5.380 -0.7135 -1.1175  1.4852
   64MOL   H23123037   1.006   6.308   5.349 -0.6261 -0.5529  2.1643
   64MOL   H23223038   1.000   6.442   5.244  0.3604 -2.0742  0.1986
   64MOL   H23323039   0.976   6.244   5.074  0.2920 -2.5493  0.0222
   64MOL   H23423040   0.929   6.129   5.193 -0.4913 -0.4313  0.1168
   64MOL   H23523041   0.811   6.160   5.074  0.2385 -1.2029 -0.3124
   64MOL   C23623042   0.565   6.240   5.520 -0.1290 -0.1238  0.2949
   64MOL   C23723043   0.667   6.236   5.641 -0.5768  0.6747  0.0595
   64MOL   C23823044   0.614   6.137   5.747 -0.8020 -0.2533  0.1916
   64MOL   C23923045   0.607   5.985   5.700  0.8201  0.1956 -0.4497
   64MOL   C24023046   0.739   5.933   5.640  0.3734 -0.3185  0.2696
   64MOL   C24123047   0.565   5.887   5.812 -0.1927  0.5688 -0.1288
   64MOL   H24223048   0.517   6.145   5.498 -2.6673  0.7539  1.8171
   64MOL   H24323049   0.482   6.298   5.561 -0.6462 -1.1930  0.7791
   64MOL   H24423050   0.762   6.217   5.592 -1.2128  1.1296 -1.3680
   64MOL   H24523051   0.518   6.175   5.781 -0.3086  0.0018  1.3221
   64MOL   H24623052   0.671   6.153   5.839  0.2521 -1.3059 -0.2663
   64MOL   H24723053   0.530   5.981   5.623  0.7100  2.9820 -0.5414
   64MOL   H24823054   0.742   5.971   5.538  0.1554 -0.6950  0.1198
   64MOL   H24923055   0.747   5.826   5.619  1.1649 -0.4668  1.3171
   64MOL   H25023056   0.824   5.968   5.699 -0.5438 -0.3577  1.6297
   64MOL   H25123057   0.570   5.790   5.763 -1.8362  1.3043 -1.8140
   64MOL   H25223058   0.463   5.909   5.842 -0.6443 -0.4889 -0.8513
   64MOL   H25323059   0.626   5.885   5.902 -0.1710 -3.3624 -0.1554
   64MOL   C25423060   0.698   6.381   5.701 -0.6889 -0.4067 -0.2096
   64MOL   C25523061   0.819   6.387   5.795  0.6361  0.2301 -0.4021
   64MOL   C25623062   0.943   6.423   5.705 -0.3654 -0.0303  0.1485
   64MOL   C25723063   1.079   6.417   5.773  0.1566  0.1807  0.1757
   64MOL   C25823064   1.205   6.451   5.685  0.3075  0.4412 -0.0718
   64MOL   C25923065   1.095   6.280   5.840 -0.1049  0.7315  0.4576
   64MOL   H26023066   0.712   6.455   5.622 -0.3565 -0.7331 -0.4547
   64MOL   H26123067   0.607   6.415   5.750 -1.2116 -1.7993 -0.2098
   64MOL   H26223068   0.832   6.298   5.856  2.9676  0.3105 -0.7408
   64MOL   H26323069   0.943   6.520   5.655  0.7889 -0.1023 -0.0125
   64MOL   H26423070   0.951   6.357   5.619 -0.1422  1.6951 -1.1804
   64MOL   H26523071   1.077   6.499   5.844 -0.1566 -0.3110  0.7377
   64MOL   H26623072   1.241   6.371   5.620 -0.0505 -1.2418  1.7536
   64MOL   H26723073   1.283   6.471   5.758 -1.4516 -1.3361  2.3741
   64MOL   H26823074   1.191   6.538   5.620  0.3343 -0.7659 -1.7106
   64MOL   H26923075   1.043   6.253   5.931  0.2305  1.8695  0.9995
   64MOL   H27023076   1.081   6.203   5.764 -0.4538  2.1915 -1.0117
   64MOL   H27123077   1.201   6.265   5.861  0.3344  2.0625 -0.6767
   64MOL   C27223078   0.802   6.508   5.895 -0.4819  0.2870 -0.2566
   64MOL   C27323079   0.691   6.481   6.007  0.3956  0.4555 -0.1715
   64MOL   C27423080   0.767   6.407   6.120  0.0555  0.6850  0.2564
   64MOL   C27523081   0.700   6.276   6.166 -0.0428 -0.1850  0.3838
   64MOL   C27623082   0.562   6.298   6.226 -0.4419  0.1244  0.2479
   64MOL   C27723083   0.801   6.219   6.262 -0.4655  0.1835 -0.5987
   64MOL   H27823084   0.893   6.546   5.943 -0.8000 -1.2421  1.6292
   64MOL   H27923085   0.781   6.598   5.837 -3.4549 -0.8059 -0.9556
   64MOL   H28023086   0.623   6.412   5.957  0.9619  0.9877 -1.7042
   64MOL   H28123087   0.775   6.478   6.203  0.5397  0.4696  0.3973
   64MOL   H28223088   0.866   6.382   6.080 -0.3532  2.0608 -1.6638
   64MOL   H28323089   0.692   6.212   6.077 -1.3744  1.7064 -0.8931
   64MOL   H28423090   0.568   6.359   6.316 -0.9325 -0.1417  0.4609
   64MOL   H28523091   0.494   6.350   6.158 -0.2856  0.4605  0.3455
   64MOL   H28623092   0.521   6.205   6.265 -0.9768  0.3840  0.3067
   64MOL   H28723093   0.907   6.210   6.240  0.0673 -1.9350  2.4611
   64MOL   H28823094   0.799   6.268   6.360  2.1968 -0.3988 -0.2205
   64MOL   H28923095   0.775   6.117   6.291  1.8099 -0.1669  0.3049
   64MOL   C29023096   0.621   6.611   6.070  0.1842  0.0084 -0.3258
   64MOL   C29123097   0.545   6.703   5.971 -0.2294 -0.3150  0.7357
   64MOL   C29223098   0.411   6.635   5.941  0.3365 -1.0499 -0.2094
   64MOL   C29323099   0.329   6.699   5.820 -0.4226  0.5995 -0.1562
   64MOL   C29423100   0.389   6.663   5.682  0.1028  0.7430 -0.2770
   64MOL   C29523101   0.180   6.661   5.828 -0.0749 -0.0974  0.1021
   64MOL   H29623102   0.557   6.579   6.153  1.9934 -1.6790  0.4541
   64MOL   H29723103   0.701   6.672   6.110 -0.4329 -0.5107  1.7476
   64MOL   H29823104   0.600   6.699   5.877  0.5320 -2.5930  1.2311
   64MOL   H29923105   0.354   6.630   6.034 -1.4843 -2.0657 -1.3392
   64MOL   H30023106   0.422   6.530   5.916  0.8763 -1.6401  2.3202
   64MOL   H30123107   0.332   6.807   5.839  1.4031  0.5363  0.0116
   64MOL   H30223108   0.312   6.681   5.607 -0.1244  1.1259  0.0456
   64MOL   H30323109   0.424   6.560   5.678  0.7317  0.9893 -2.2151
   64MOL   H30423110   0.476   6.720   5.649  1.0540 -0.1260  0.7081
   64MOL   H30523111   0.164   6.554   5.812 -0.2718  0.3120 -2.6617
   64MOL   H30623112   0.129   6.714   5.747  0.2837 -0.2853 -0.2488
   64MOL   H30723113   0.146   6.701   5.923  0.5361 -0.7599  0.5979
   64MOL   C30823114   0.549   6.857   6.024  0.5635  0.5591 -0.2708
   64MOL   C30923115   0.643   6.951   5.941  0.2309  0.0158 -0.3435
   64MOL   C31023116   0.641   7.105   5.984 -0.3618  0.0526  0.0070
   64MOL   C31123117   0.509   7.181   5.959 -0.4035  0.1427 -0.7112
   64MOL   C31223118   0.505   7.313   6.037 -0.0235  0.4728 -0.4581
   64MOL   C31323119   0.480   7.200   5.816  0.1613  0.7195  1.6362
   64MOL   H31423120   0.451   6.906   6.017  0.7289  0.7086 -1.9322
   64MOL   H31523121   0.574   6.852   6.130  3.2247  0.1163 -0.8812
   64MOL   H31623122   0.615   6.937   5.837 -0.6780  1.4275 -0.3081
   64MOL   H31723123   0.713   7.167   5.933 -1.2097 -0.7430 -2.2156
   64MOL   H31823124   0.676   7.105   6.088  0.2827 -0.0777 -0.2095
   64MOL   H31923125   0.432   7.127   6.014 -1.6207  1.2598 -1.3190
   64MOL   H32023126   0.546   7.307   6.138  0.4142 -0.9080 -0.6930
   64MOL   H32123127   0.409   7.363   6.039  1.3306  3.1156  0.2051
   64MOL   H32223128   0.581   7.380   5.998  2.3677 -1.5039  0.5883
   64MOL   H32323129   0.474   7.107   5.759 -3.3604  1.3656  0.8688
   64MOL   H32423130   0.396   7.264   5.789  0.0008  0.2857  1.0991
   64MOL   H32523131   0.574   7.234   5.772  1.2964 -0.3647  3.1235
   64MOL   C32623132   0.786   6.900   5.960 -0.4449  0.4598  0.6473
   64MOL   C32723133   0.894   6.969   5.881 -0.7571  0.4595  0.0323
   64MOL   C32823134   0.887   6.957   5.724 -0.2376  0.7069  0.3879
   64MOL   C32923135   0.979   7.050   5.641 -0.2257 -0.1680  0.1218
   64MOL   C33023136   0.966   7.011   5.491  0.0089  0.0099 -0.2230
   64MOL   C33123137   0.948   7.197   5.661 -0.1106 -0.6916  0.4021
   64MOL   H33223138   0.786   6.792   5.947 -2.7667  0.2130  2.2279
   64MOL   H33323139   0.807   6.916   6.065  0.4731 -1.6152  0.8144
   64MOL   H33423140   0.881   7.076   5.895 -0.3067  0.1860  2.8229
   64MOL   H33523141   0.914   6.853   5.707  1.9824  1.6469 -2.1581
   64MOL   H33623142   0.782   6.973   5.700  0.0089  1.7020 -0.0661
   64MOL   H33723143   1.077   7.018   5.674 -0.7452 -0.0367  1.8798
   64MOL   H33823144   0.863   7.026   5.460  0.2412  3.1338  0.3795
   64MOL   H33923145   0.988   6.907   5.466 -1.3396 -0.1197 -0.9302
   64MOL   H34023146   1.029   7.079   5.432  1.2927  0.7397  1.9377
   64MOL   H34123147   1.020   7.248   5.598 -0.4453  1.2643  1.5740
   64MOL   H34223148   0.850   7.225   5.622 -1.2375 -3.3151  1.2107
   64MOL   H34323149   0.969   7.233   5.762 -1.0743  1.4241 -0.1394
   64MOL   C34423150   1.033   6.940   5.935 -0.1594  1.0055  0.0179
   64MOL   C34523151   1.089   6.796   5.907  0.2448 -0.5803 -0.1060
   64MOL   C34623152   1.220   6.770   5.977  0.3314 -0.4925  0.3684
   64MOL   C34723153   1.211   6.751   6.133  0.2277  0.2036  0.1078
   64MOL   C34823154   1.347   6.698   6.178  0.0519  0.5339  0.5113
   64MOL   C34923155   1.103   6.650   6.182  0.1447  0.6906  0.2355
   64MOL   H35023156   1.038   6.966   6.041 -0.4901  0.9447  0.0504
   64MOL   H35123157   1.101   7.019   5.904  1.4804 -0.8661 -1.2563
   64MOL   H35223158   1.103   6.794   5.798 -1.6874  0.4850 -0.3886
   64MOL   H35323159   1.259   6.682   5.926  0.7544  0.7268 -1.4740
   64MOL   H35423160   1.285   6.853   5.952 -1.2820  0.3061 -1.3199
   64MOL   H35523161   1.193   6.847   6.180  1.1030 -1.5697  4.3263
   64MOL   H35623162   1.425   6.766   6.143  1.3125 -1.3394 -0.3693
   64MOL   H35723163   1.374   6.704   6.284  1.5121  3.1264  0.0282
   64MOL   H35823164   1.376   6.603   6.134 -0.8316  0.4987  0.0058
   64MOL   H35923165   1.096   6.564   6.116  0.7321  0.9898 -0.2138
   64MOL   H36023166   1.001   6.690   6.180 -0.8487 -1.6760  1.2835
   64MOL   H36123167   1.125   6.606   6.279  2.2276 -1.5641 -1.2163
   64MOL   H36223168   1.020   6.715   5.926 -0.3336 -0.3545 -1.1881
   65MOL     C123169   1.566   7.065   7.020  0.0610  0.3371 -0.3307
   65MOL     C223170   1.704   7.068   6.956 -1.0697 -0.3068 -0.0345
   65MOL     C323171   1.786   7.193   6.993 -0.1375  0.2860 -0.1560
   65MOL     C423172   1.944   7.176   7.009  0.5478  0.3754  0.0059
   65MOL     C523173   1.987   7.098   7.140 -0.1077 -0.2857  0.1985
   65MOL     C623174   2.021   7.311   7.005  0.6451 -0.4297 -0.5020
   65MOL     H723175   1.557   7.070   7.129 -1.0362 -0.6574 -0.3757
   65MOL     H823176   1.506   7.142   6.971 -1.6594 -0.3348  0.6821
   65MOL     H923177   1.748   6.983   7.009 -0.4979  0.0361  0.0451
   65MOL    H1023178   1.757   7.275   6.928 -0.9864  0.9459  1.0475
   65MOL    H1123179   1.749   7.228   7.090  0.6657  0.9890 -0.0981
   65MOL    H1223180   1.986   7.116   6.928  1.6839 -0.6396  1.3049
   65MOL    H1323181   2.092   7.080   7.163  0.3811  3.8240  1.4398
   65MOL    H1423182   1.934   7.131   7.229 -0.6609  0.4180 -0.3876
   65MOL    H1523183   1.956   6.996   7.119 -1.0737  0.1601 -0.5483
   65MOL    H1623184   1.970   7.368   7.083 -0.6542 -1.2096 -0.7683
   65MOL    H1723185   2.010   7.365   6.911  1.8490  2.1425  0.7693
   65MOL    H1823186   2.124   7.283   7.025  0.7648  0.0460 -0.4482
   65MOL    H1923187   1.529   6.967   6.993  0.1119 -0.0880  1.1252
   65MOL    C2023188   1.707   7.048   6.804  0.1730 -0.1928 -0.3069
   65MOL    C2123189   1.710   6.897   6.747 -0.1780 -0.4858  0.8169
   65MOL    C2223190   1.654   6.885   6.601 -0.6672 -0.0292 -0.3227
   65MOL    C2323191   1.505   6.904   6.578 -0.1389  0.1540 -0.3137
   65MOL    C2423192   1.471   6.951   6.434 -0.8131  0.3757 -0.3015
   65MOL    C2523193   1.418   6.788   6.611  0.6852  0.7159  0.2468
   65MOL    H2623194   1.622   7.105   6.768 -0.1448 -0.8104 -0.5233
   65MOL    H2723195   1.794   7.104   6.770  1.1534 -0.8560  1.0681
   65MOL    H2823196   1.644   6.836   6.809 -1.2808 -2.1520 -1.9186
   65MOL    H2923197   1.675   6.787   6.558  0.0350  0.8966 -2.1226
   65MOL    H3023198   1.706   6.960   6.542 -1.0372 -0.7898 -1.6414
   65MOL    H3123199   1.469   6.978   6.650  2.5838 -0.5583  1.9039
   65MOL    H3223200   1.365   6.966   6.414 -1.1646 -2.1270 -0.4849
   65MOL    H3323201   1.515   6.884   6.360 -0.3772  1.2411 -0.8341
   65MOL    H3423202   1.518   7.047   6.413  0.3935 -0.0427  0.4638
   65MOL    H3523203   1.326   6.784   6.554 -0.7831  0.3189  2.5725
   65MOL    H3623204   1.465   6.690   6.598 -1.0020 -0.0424 -0.2470
   65MOL    H3723205   1.395   6.789   6.718  1.1872  3.1192  0.3529
   65MOL    C3823206   1.862   6.844   6.767  0.1677  0.1099  0.3603
   65MOL    C3923207   1.908   6.709   6.712 -0.4719  0.5322  0.5413
   65MOL    C4023208   1.883   6.594   6.806  0.2201 -0.4167  0.4196
   65MOL    C4123209   1.855   6.460   6.741 -0.6203  0.2007 -0.6724
   65MOL    C4223210   1.729   6.455   6.659  0.5597  0.0886  0.2193
   65MOL    C4323211   1.855   6.350   6.849  0.1480  0.1707  0.4775
   65MOL    H4423212   1.886   6.849   6.874 -0.5323 -0.2588  0.5348
   65MOL    H4523213   1.925   6.917   6.717  1.1340  1.0117  2.7864
   65MOL    H4623214   1.838   6.681   6.633  0.1485  2.1835 -0.6129
   65MOL    H4723215   1.801   6.625   6.871 -0.8479 -0.9492 -0.6577
   65MOL    H4823216   1.965   6.584   6.877  1.7945  0.7782 -1.1904
   65MOL    H4923217   1.937   6.446   6.670  0.2129 -2.8535  0.7694
   65MOL    H5023218   1.691   6.355   6.637  2.4150 -0.6660  0.3342
   65MOL    H5123219   1.657   6.521   6.705  1.0710 -0.0282  1.2117
   65MOL    H5223220   1.755   6.489   6.558 -1.3201 -1.6102 -0.8714
   65MOL    H5323221   1.831   6.258   6.797  3.3289 -0.5058  0.1251
   65MOL    H5423222   1.773   6.363   6.920 -0.3287 -0.2634  0.0099
   65MOL    H5523223   1.952   6.353   6.898 -1.0195 -2.3188  3.0697
   65MOL    C5623224   2.055   6.718   6.656  0.3615  0.1448  0.2213
   65MOL    C5723225   2.068   6.718   6.503 -0.6393  1.1321 -0.9062
   65MOL    C5823226   2.215   6.722   6.460 -0.0269  0.5330  0.5550
   65MOL    C5923227   2.317   6.617   6.501 -0.1031 -0.3526  0.0711
   65MOL    C6023228   2.459   6.661   6.471 -0.1429  0.4010 -1.4052
   65MOL    C6123229   2.288   6.479   6.442  0.4816 -0.3561  0.1290
   65MOL    H6223230   2.104   6.636   6.709 -1.1028 -1.3853 -0.7326
   65MOL    H6323231   2.101   6.809   6.694 -1.1505 -0.2857  3.1815
   65MOL    H6423232   2.025   6.620   6.480 -1.4613  0.8160  1.7859
   65MOL    H6523233   2.219   6.732   6.351  0.9358 -1.7547  0.3555
   65MOL    H6623234   2.252   6.816   6.501 -0.5159  1.3020 -0.7004
   65MOL    H6723235   2.311   6.608   6.609 -1.1979  1.3718  0.1813
   65MOL    H6823236   2.479   6.756   6.521  0.2868 -0.1582 -0.5228
   65MOL    H6923237   2.482   6.677   6.366  1.1759  0.4958 -1.1079
   65MOL    H7023238   2.529   6.586   6.506 -0.2667  0.7796 -0.3144
   65MOL    H7123239   2.283   6.494   6.334  0.3309 -2.1052 -0.1185
   65MOL    H7223240   2.191   6.441   6.473 -0.5196  1.6155 -0.4997
   65MOL    H7323241   2.373   6.411   6.452 -0.4665 -1.1081  3.5283
   65MOL    C7423242   1.982   6.820   6.424  0.3834 -0.4527  0.3967
   65MOL    C7523243   1.957   6.784   6.270 -0.2736  0.5830 -0.7524
   65MOL    C7623244   1.847   6.882   6.220  0.1582 -0.1661 -0.4124
   65MOL    C7723245   1.888   7.030   6.208  0.2923  0.6413 -0.5965
   65MOL    C7823246   1.768   7.121   6.250 -0.2352  0.5430 -0.5446
   65MOL    C7923247   1.933   7.072   6.070 -0.1350  0.2495 -0.5278
   65MOL    H8023248   2.009   6.925   6.433 -2.4877  0.3487  0.0300
   65MOL    H8123249   1.882   6.823   6.466 -0.6280 -1.1692 -1.9084
   65MOL    H8223250   2.052   6.814   6.226 -0.2917  1.9388  0.0904
   65MOL    H8323251   1.804   6.851   6.124 -0.1160  0.7164 -0.5802
   65MOL    H8423252   1.755   6.877   6.277  0.8056  2.0152  0.8723
   65MOL    H8523253   1.967   7.053   6.279  0.1279 -1.1494  0.2075
   65MOL    H8623254   1.761   7.115   6.358 -0.1103 -1.9094 -0.6577
   65MOL    H8723255   1.674   7.087   6.205 -0.7514 -3.1770  3.1184
   65MOL    H8823256   1.785   7.227   6.229 -1.6393  1.3438  2.0893
   65MOL    H8923257   1.870   7.042   5.986  0.5898  1.4739 -1.5356
   65MOL    H9023258   1.923   7.177   6.043  0.6446  0.7797  1.2101
   65MOL    H9123259   2.030   7.037   6.035  0.4182  2.2854 -1.1408
   65MOL    C9223260   1.933   6.638   6.238 -0.1731 -0.5040 -0.3532
   65MOL    C9323261   1.919   6.597   6.083 -0.2879 -0.1954  0.0190
   65MOL    C9423262   2.052   6.535   6.029  0.4210 -0.1327 -0.0132
   65MOL    C9523263   2.181   6.620   6.040 -0.0624 -0.0911 -0.5836
   65MOL    C9623264   2.299   6.527   6.008 -0.5750 -0.1944  0.0060
   65MOL    C9723265   2.183   6.747   5.964 -0.3165 -0.0906  0.7041
   65MOL    H9823266   2.015   6.576   6.275 -1.1595  0.9476  4.5239
   65MOL    H9923267   1.845   6.602   6.291  0.8946 -0.8323  1.2384
   65MOL   H10023268   1.905   6.692   6.032  1.0266 -0.8968 -1.7058
   65MOL   H10123269   2.039   6.501   5.927  0.7880 -0.7177  0.1314
   65MOL   H10223270   2.052   6.447   6.093 -1.1544  0.1711  0.4428
   65MOL   H10323271   2.185   6.640   6.147 -1.0366 -0.8851 -0.3922
   65MOL   H10423272   2.282   6.428   6.052 -2.4602 -0.9738 -2.3284
   65MOL   H10523273   2.392   6.568   6.046 -1.5440  0.8784  1.2782
   65MOL   H10623274   2.325   6.513   5.904  1.5044 -0.8263  0.6008
   65MOL   H10723275   2.240   6.824   6.015 -0.5655  0.6137 -0.0681
   65MOL   H10823276   2.080   6.779   5.953 -0.4507  0.0095  2.2138
   65MOL   H10923277   2.221   6.743   5.861  0.9528 -1.2421  1.1858
   65MOL   C11023278   1.802   6.501   6.062  0.1969 -0.3238 -0.4150
   65MOL   C11123279   1.748   6.492   5.917  0.9501 -0.3198 -0.1495
   65MOL   C11223280   1.642   6.381   5.897 -0.0100 -0.6153 -0.0239
   65MOL   C11323281   1.695   6.231   5.919  0.4397  0.3342 -0.8034
   65MOL   C11423282   1.777   6.193   5.796 -0.1299  0.4210 -0.3765
   65MOL   C11523283   1.572   6.134   5.942 -0.1498 -0.5483 -0.4834
   65MOL   H11623284   1.720   6.525   6.130  1.3616  2.1431  0.1713
   65MOL   H11723285   1.846   6.409   6.101 -1.2554  0.0788  2.2827
   65MOL   H11823286   1.834   6.452   5.862 -0.2937  1.0727 -3.1989
   65MOL   H11923287   1.611   6.385   5.792  2.5812 -0.1556 -0.8047
   65MOL   H12023288   1.555   6.404   5.959  0.4061 -1.5493  0.8979
   65MOL   H12123289   1.746   6.216   6.014  1.0448 -0.7545 -1.2947
   65MOL   H12223290   1.798   6.087   5.808 -1.0781  0.4167  1.4158
   65MOL   H12323291   1.878   6.230   5.811  0.7337 -2.0022 -0.0338
   65MOL   H12423292   1.729   6.207   5.699  1.2071  1.8434 -0.8427
   65MOL   H12523293   1.613   6.037   5.972 -0.9729 -0.6854  0.2251
   65MOL   H12623294   1.516   6.136   5.848  0.7809  1.4089 -1.0131
   65MOL   H12723295   1.505   6.178   6.016 -0.9243 -0.2859 -1.3227
   65MOL   C12823296   1.710   6.629   5.865 -0.1061  0.4170  0.4123
   65MOL   C12923297   1.705   6.634   5.709  0.1272  0.0088  0.5805
   65MOL   C13023298   1.778   6.757   5.657 -0.3600 -0.7975  0.1574
   65MOL   C13123299   1.927   6.771   5.684 -0.2755  0.0673 -0.0272
   65MOL   C13223300   2.007   6.658   5.615 -0.4348 -0.3086  0.9269
   65MOL   C13323301   1.973   6.906   5.642  0.6169 -0.3506  0.2281
   65MOL   H13423302   1.757   6.713   5.915 -0.8533  0.6224  0.7647
   65MOL   H13523303   1.613   6.641   5.912 -0.3218 -1.3172  0.4514
   65MOL   H13623304   1.758   6.544   5.676 -0.4950 -0.5026  0.9631
   65MOL   H13723305   1.770   6.763   5.549  0.3798  0.7424  0.1614
   65MOL   H13823306   1.721   6.845   5.688  1.2661  0.5759 -0.6358
   65MOL   H13923307   1.937   6.761   5.792  3.5163  1.9858 -0.0920
   65MOL   H14023308   1.975   6.558   5.642 -0.0724 -0.8151 -0.4477
   65MOL   H14123309   2.113   6.660   5.641 -0.3241  2.3541  0.4108
   65MOL   H14223310   2.013   6.667   5.506  1.5931 -0.5395  1.0014
   65MOL   H14323311   1.918   6.982   5.696  1.7558  0.2570  0.5419
   65MOL   H14423312   2.078   6.921   5.666  0.2404 -0.6955  2.1958
   65MOL   H14523313   1.967   6.915   5.533  1.6752  1.1954  0.2744
   65MOL   C14623314   1.572   6.621   5.641  0.1530  0.4504  0.2129
   65MOL   C14723315   1.577   6.570   5.494 -0.3078  0.0555  0.1360
   65MOL   C14823316   1.439   6.605   5.415  0.8084  0.0288  0.2139
   65MOL   C14923317   1.407   6.763   5.411  0.1887 -0.3082 -0.5536
   65MOL   C15023318   1.389   6.831   5.271  0.2065  0.2283  0.2313
   65MOL   C15123319   1.296   6.806   5.512 -0.3505  0.4888  0.4252
   65MOL   H15223320   1.535   6.723   5.650  0.5679  0.5170  1.2913
   65MOL   H15323321   1.502   6.555   5.692  0.5274  0.1523  0.3405
   65MOL   H15423322   1.657   6.617   5.437  0.0666 -2.6563 -1.6767
   65MOL   H15523323   1.458   6.584   5.310  0.6834 -0.3333  0.2637
   65MOL   H15623324   1.354   6.542   5.442 -0.3478  1.3776 -0.2087
   65MOL   H15723325   1.504   6.809   5.431 -0.6796  1.3228 -0.0352
   65MOL   H15823326   1.318   6.913   5.286  0.7652  0.9014 -0.7758
   65MOL   H15923327   1.337   6.764   5.202 -2.1264  1.3901  0.8082
   65MOL   H16023328   1.475   6.877   5.223 -1.4537  2.1345 -1.0087
   65MOL   H16123329   1.314   6.766   5.611 -3.3910 -3.6395 -0.5446
   65MOL   H16223330   1.200   6.781   5.467  0.3290 -0.2016 -0.6505
   65MOL   H16323331   1.295   6.915   5.524  0.5135  0.3841  1.4203
   65MOL   C16423332   1.612   6.416   5.490  0.4400  0.5960 -0.4418
   65MOL   C16523333   1.659   6.367   5.354 -0.4269  0.7566 -0.1480
   65MOL   C16623334   1.805   6.395   5.330 -0.5519 -0.0598  0.2461
   65MOL   C16723335   1.837   6.435   5.186  0.2885  0.4298 -0.1217
   65MOL   C16823336   1.776   6.580   5.147  0.1627 -0.0532  0.0214
   65MOL   C16923337   1.982   6.443   5.159 -0.1795 -0.4501  0.1256
   65MOL   H17023338   1.697   6.402   5.557  1.3439  0.5807 -1.5710
   65MOL   H17123339   1.533   6.357   5.537 -0.0294  1.2250 -0.4406
   65MOL   H17223340   1.597   6.417   5.280  1.5046  0.5274 -1.9576
   65MOL   H17323341   1.840   6.478   5.392 -0.8787 -0.0386  0.4042
   65MOL   H17423342   1.861   6.309   5.365  1.1598  1.9738  2.6429
   65MOL   H17523343   1.790   6.369   5.113  1.9336 -2.6626  1.5036
   65MOL   H17623344   1.668   6.591   5.155 -0.1199 -2.6226  0.2046
   65MOL   H17723345   1.813   6.621   5.053  1.1724  0.0237  0.4400
   65MOL   H17823346   1.820   6.655   5.212 -1.0457  0.9476 -0.3130
   65MOL   H17923347   2.042   6.378   5.223  1.6457  0.2611 -0.8294
   65MOL   H18023348   2.029   6.539   5.180 -0.1987 -0.0849 -1.4174
   65MOL   H18123349   1.998   6.417   5.054 -0.0460  2.8486 -0.7407
   65MOL   C18223350   1.639   6.214   5.327  0.4851  0.6803 -0.7155
   65MOL   C18323351   1.502   6.179   5.279  0.5337  0.1367 -0.3721
   65MOL   C18423352   1.494   6.212   5.127 -0.4868 -0.3502  0.4454
   65MOL   C18523353   1.351   6.255   5.080 -1.1159  0.0070  0.1369
   65MOL   C18623354   1.303   6.384   5.141  0.5175 -0.5121 -0.7244
   65MOL   C18723355   1.341   6.258   4.935 -0.1454  0.2819 -0.0762
   65MOL   H18823356   1.664   6.167   5.422 -1.1849  1.5907  0.2037
   65MOL   H18923357   1.711   6.172   5.257  0.2583 -2.7229  1.0241
   65MOL   H19023358   1.431   6.240   5.336 -0.7194 -2.5456  1.0295
   65MOL   H19123359   1.537   6.126   5.076 -0.9484  0.7991 -1.9735
   65MOL   H19223360   1.564   6.294   5.109 -0.4273 -0.4887  0.0467
   65MOL   H19323361   1.286   6.173   5.108 -1.1907 -0.4559 -1.3881
   65MOL   H19423362   1.211   6.419   5.095  0.5150 -1.1289 -1.1817
   65MOL   H19523363   1.373   6.468   5.139  1.3019 -1.1443 -0.2844
   65MOL   H19623364   1.285   6.375   5.248  0.1292  0.4247 -0.7053
   65MOL   H19723365   1.380   6.165   4.891  1.5356  1.3227 -0.8542
   65MOL   H19823366   1.397   6.337   4.885 -1.1699  1.2178  0.2345
   65MOL   H19923367   1.236   6.273   4.911  0.4764  3.0911 -1.2516
   65MOL   C20023368   1.477   6.028   5.310 -0.1351 -0.2122 -1.0292
   65MOL   C20123369   1.328   5.969   5.302 -0.0565  0.3899  0.0343
   65MOL   C20223370   1.212   6.054   5.365  0.4451 -0.5509 -0.3015
   65MOL   C20323371   1.173   6.038   5.518 -0.0307  0.8543 -0.3613
   65MOL   C20423372   1.080   5.923   5.560  0.6599 -0.5417 -0.1789
   65MOL   C20523373   1.293   6.061   5.610  0.0637 -0.4977  0.3366
   65MOL   H20623374   1.491   6.003   5.416 -1.5161  0.5742 -0.6468
   65MOL   H20723375   1.557   5.972   5.261  0.5149 -0.4699  0.2899
   65MOL   H20823376   1.294   5.971   5.199 -0.9355  1.8090  0.3276
   65MOL   H20923377   1.230   6.160   5.348  0.8529  0.0981  3.7117
   65MOL   H21023378   1.118   6.036   5.312  0.6067  0.6280 -0.9977
   65MOL   H21123379   1.113   6.124   5.548 -2.3262 -1.0778  0.8179
   65MOL   H21223380   1.119   5.821   5.565  3.1856  0.3958 -0.4068
   65MOL   H21323381   1.001   5.920   5.485  0.4901  0.4581 -0.0488
   65MOL   H21423382   1.038   5.952   5.656  0.0965  1.6105 -1.0346
   65MOL   H21523383   1.266   6.081   5.714  0.4996 -0.2381  0.4013
   65MOL   H21623384   1.345   6.152   5.581 -0.1347 -0.8983 -1.2771
   65MOL   H21723385   1.348   5.967   5.605  0.5461 -0.0705 -4.9108
   65MOL   C21823386   1.307   5.817   5.344 -0.3556  0.0729  1.3447
   65MOL   C21923387   1.382   5.717   5.245  0.9000  0.1916 -0.2099
   65MOL   C22023388   1.301   5.708   5.112 -0.2478  0.0489  0.2120
   65MOL   C22123389   1.373   5.730   4.977  0.7813 -0.0750  0.2831
   65MOL   C22223390   1.284   5.681   4.865 -0.0697 -0.1441 -0.3607
   65MOL   C22323391   1.408   5.876   4.952 -0.0502 -0.2018  0.1350
   65MOL   H22423392   1.359   5.796   5.438 -0.6587  0.6536  1.6435
   65MOL   H22523393   1.202   5.788   5.348  0.0711 -1.7670 -0.3801
   65MOL   H22623394   1.480   5.759   5.221 -0.2084  2.0859 -1.5452
   65MOL   H22723395   1.246   5.614   5.107 -0.1781  0.0846 -1.7436
   65MOL   H22823396   1.216   5.776   5.118 -2.0873 -1.9078 -2.3523
   65MOL   H22923397   1.460   5.665   4.969  1.0125  0.4480 -1.6378
   65MOL   H23023398   1.202   5.752   4.859 -0.3565 -0.3014  1.5978
   65MOL   H23123399   1.345   5.681   4.774  1.0650  3.3620  0.3050
   65MOL   H23223400   1.249   5.580   4.885  0.3488 -0.2765 -0.2716
   65MOL   H23323401   1.458   5.878   4.855  1.1522 -2.3102  0.6787
   65MOL   H23423402   1.319   5.938   4.945 -0.4696 -0.6466  1.3451
   65MOL   H23523403   1.487   5.917   5.015 -0.0012 -2.3162  1.4886
   65MOL   C23623404   1.398   5.580   5.300 -0.2621 -0.2922  0.0621
   65MOL   C23723405   1.490   5.558   5.421 -0.2254 -0.5413 -0.0909
   65MOL   C23823406   1.634   5.551   5.368 -1.0805 -0.2639  0.5722
   65MOL   C23923407   1.752   5.573   5.467  0.2789  0.0594 -0.5260
   65MOL   C24023408   1.883   5.503   5.437  0.4103 -0.7958 -0.2922
   65MOL   C24123409   1.766   5.726   5.492 -0.3155 -0.7220  0.7938
   65MOL   H24223410   1.441   5.511   5.228  0.4523 -0.3601  0.5514
   65MOL   H24323411   1.302   5.534   5.326 -0.6468  0.5889  0.2394
   65MOL   H24423412   1.480   5.645   5.485  2.5875 -0.7336  0.6779
   65MOL   H24523413   1.648   5.623   5.287  0.2747 -3.2609 -2.0178
   65MOL   H24623414   1.633   5.454   5.317  2.2713 -0.7343  1.3019
   65MOL   H24723415   1.726   5.519   5.558 -2.3579  0.7337 -0.8161
   65MOL   H24823416   1.874   5.395   5.436  0.2634 -0.7769 -1.3564
   65MOL   H24923417   1.957   5.528   5.513 -0.0338 -2.1909  0.6095
   65MOL   H25023418   1.925   5.529   5.340  0.3778  1.6811  0.3139
   65MOL   H25123419   1.668   5.764   5.520 -0.6973 -1.1270  0.0208
   65MOL   H25223420   1.800   5.780   5.405  2.4432  0.3194  2.4452
   65MOL   H25323421   1.829   5.751   5.577  0.5678  0.0637 -0.0908
   65MOL   C25423422   1.456   5.438   5.517  0.6965  0.2869  0.7289
   65MOL   C25523423   1.334   5.443   5.611  0.1496  0.1365  0.0407
   65MOL   C25623424   1.328   5.575   5.685 -0.3476  0.1273  1.2108
   65MOL   C25723425   1.448   5.609   5.774 -0.5179 -0.3080 -0.0531
   65MOL   C25823426   1.425   5.547   5.907  0.1016  0.6914 -0.5629
   65MOL   C25923427   1.459   5.759   5.797  0.2595 -0.1646  0.3145
   65MOL   H26023428   1.479   5.340   5.476 -2.1327 -0.1323  0.0367
   65MOL   H26123429   1.547   5.429   5.576  0.3602  0.5512  1.2968
   65MOL   H26223430   1.357   5.373   5.692  0.7225  0.8216  0.4739
   65MOL   H26323431   1.239   5.571   5.748 -1.0776  0.9336  0.2578
   65MOL   H26423432   1.299   5.658   5.621 -0.2401 -1.9695 -1.6624
   65MOL   H26523433   1.536   5.568   5.724 -1.0772  1.8130 -2.8558
   65MOL   H26623434   1.329   5.576   5.948 -0.3705  0.7750 -1.7355
   65MOL   H26723435   1.490   5.568   5.993 -0.0742  0.4606 -0.3725
   65MOL   H26823436   1.429   5.438   5.903  0.3582  0.6304  0.9041
   65MOL   H26923437   1.364   5.794   5.838  0.4435  0.3684  0.2850
   65MOL   H27023438   1.539   5.779   5.868  2.0226  0.8942 -1.9338
   65MOL   H27123439   1.485   5.807   5.703 -0.7569  0.7997  0.5160
   65MOL   C27223440   1.203   5.389   5.558  0.7806 -0.4510  0.5828
   65MOL   C27323441   1.091   5.349   5.665  0.3862 -0.4865 -1.3011
   65MOL   C27423442   0.969   5.450   5.652 -0.3384 -0.0892 -0.3292
   65MOL   C27523443   0.898   5.481   5.787  0.2921  0.0256 -0.0960
   65MOL   C27623444   0.781   5.563   5.745 -0.1095 -0.4287  0.6172
   65MOL   C27723445   0.976   5.559   5.887 -0.5459 -0.1946 -0.3056
   65MOL   H27823446   1.167   5.463   5.488  0.3270 -0.5866  0.6739
   65MOL   H27923447   1.225   5.306   5.490 -0.9789  1.6909 -2.6608
   65MOL   H28023448   1.135   5.366   5.764 -1.4502 -0.1777 -0.5082
   65MOL   H28123449   0.892   5.398   5.596  0.0851 -1.4644  0.3405
   65MOL   H28223450   0.995   5.540   5.598 -2.8262 -0.5778 -2.4191
   65MOL   H28323451   0.864   5.387   5.829 -1.1460 -0.1903 -1.6805
   65MOL   H28423452   0.733   5.524   5.656  3.1679 -1.4936 -0.7629
   65MOL   H28523453   0.702   5.562   5.821 -1.1682  2.3194 -0.3979
   65MOL   H28623454   0.818   5.665   5.735 -1.4605  0.0691  0.5636
   65MOL   H28723455   0.999   5.661   5.859  1.9667  0.2173  2.9525
   65MOL   H28823456   0.916   5.559   5.978  0.9573  1.5715  0.7037
   65MOL   H28923457   1.065   5.514   5.932 -0.1893  0.6535 -0.1645
   65MOL   C29023458   1.063   5.201   5.653  0.6085  0.0492  0.3941
   65MOL   C29123459   1.148   5.105   5.738  0.4447  0.2796  0.3496
   65MOL   C29223460   1.097   5.114   5.885  0.1497 -0.1963 -0.1254
   65MOL   C29323461   1.188   5.071   6.001  0.3468  0.1912  0.1821
   65MOL   C29423462   1.332   5.139   6.018 -0.4936  0.1218  0.7680
   65MOL   C29523463   1.109   5.101   6.131 -0.5405  0.0303 -0.0680
   65MOL   H29623464   0.958   5.181   5.675  1.0644 -1.2714  1.4573
   65MOL   H29723465   1.062   5.171   5.548  3.9567  1.4829 -0.1034
   65MOL   H29823466   1.250   5.142   5.736 -0.2218  2.1562 -1.3168
   65MOL   H29923467   1.008   5.053   5.895  0.5893 -0.6522  1.0326
   65MOL   H30023468   1.075   5.219   5.904  0.1501 -0.4169  1.1049
   65MOL   H30123469   1.212   4.965   5.991  0.1161  0.2102 -0.5489
   65MOL   H30223470   1.318   5.232   6.074  2.5423  0.3494  1.1902
   65MOL   H30323471   1.393   5.156   5.929  1.0767 -1.4224  1.5276
   65MOL   H30423472   1.392   5.078   6.086  0.6417  1.1165  0.6771
   65MOL   H30523473   1.024   5.032   6.131 -2.0649  1.7921  2.7488
   65MOL   H30623474   1.069   5.201   6.145 -1.3204 -0.2939  0.0392
   65MOL   H30723475   1.167   5.079   6.221  1.7145 -0.6911 -1.6432
   65MOL   C30823476   1.164   4.959   5.690  0.7118 -0.6135  0.5761
   65MOL   C30923477   1.303   4.892   5.693  0.2215 -0.3715 -0.5443
   65MOL   C31023478   1.297   4.744   5.724 -0.3474  0.3139 -0.4764
   65MOL   C31123479   1.274   4.716   5.877 -0.3046  0.2555  0.4665
   65MOL   C31223480   1.228   4.574   5.911  0.6365 -0.2328  0.2951
   65MOL   C31323481   1.400   4.746   5.967  0.3543  0.9411 -0.3706
   65MOL   H31423482   1.093   4.894   5.742 -1.1196 -0.1715 -1.3017
   65MOL   H31523483   1.121   4.948   5.591  0.9713  4.2505 -0.2164
   65MOL   H31623484   1.347   4.935   5.783 -0.0032 -1.7628  0.2465
   65MOL   H31723485   1.392   4.700   5.696 -0.4284  0.1455 -0.4856
   65MOL   H31823486   1.225   4.688   5.665  0.1108  0.8903 -1.5909
   65MOL   H31923487   1.197   4.785   5.911  0.6198  1.1908  0.6892
   65MOL   H32023488   1.294   4.495   5.874  0.6703 -0.1266  0.1276
   65MOL   H32123489   1.131   4.568   5.863 -0.9645  0.7739  3.3385
   65MOL   H32223490   1.214   4.571   6.019 -1.5874 -0.7673  0.0054
   65MOL   H32323491   1.440   4.839   5.927  0.4391  0.8108 -0.5890
   65MOL   H32423492   1.379   4.755   6.074 -1.6676 -0.6721 -0.5964
   65MOL   H32523493   1.476   4.669   5.958  0.8065  1.2568  0.7049
   65MOL   C32623494   1.380   4.925   5.560 -0.6665  0.0317  0.6959
   65MOL   C32723495   1.533   4.897   5.567 -0.4645  0.1259  0.1362
   65MOL   C32823496   1.602   5.031   5.608 -0.1577  0.2683 -0.6842
   65MOL   C32923497   1.727   5.017   5.693 -0.2335  0.2515 -0.4978
   65MOL   C33023498   1.812   5.144   5.700  0.3612  0.2410  0.3868
   65MOL   C33123499   1.707   4.955   5.830 -0.2889 -0.7631  0.1149
   65MOL   H33223500   1.348   5.028   5.543  0.0007 -0.0820 -1.3620
   65MOL   H33323501   1.335   4.879   5.473  0.7044 -1.0853  0.5604
   65MOL   H33423502   1.550   4.820   5.642  1.5641  1.7185  1.3626
   65MOL   H33523503   1.617   5.099   5.524  0.0254  0.5507 -0.4217
   65MOL   H33623504   1.534   5.082   5.675 -2.6166 -0.8247 -2.2842
   65MOL   H33723505   1.796   4.953   5.638 -0.4921  0.0635 -0.6027
   65MOL   H33823506   1.910   5.131   5.745  0.4228 -2.1359 -0.3613
   65MOL   H33923507   1.757   5.225   5.748  0.8183  1.1403 -0.5698
   65MOL   H34023508   1.825   5.192   5.603 -0.4581  2.1088  1.1551
   65MOL   H34123509   1.665   4.855   5.824 -1.0556 -0.4363 -0.0398
   65MOL   H34223510   1.804   4.937   5.874  0.7108  0.0515 -1.6749
   65MOL   H34323511   1.649   5.016   5.900  0.3404  1.4029 -1.2043
   65MOL   C34423512   1.588   4.855   5.431  0.7071  0.0440  0.2075
   65MOL   C34523513   1.516   4.723   5.385  0.0791  0.6352  0.1120
   65MOL   C34623514   1.601   4.634   5.294  0.0665 -0.1643  0.7726
   65MOL   C34723515   1.517   4.529   5.213 -0.6773 -0.0744  0.0360
   65MOL   C34823516   1.456   4.413   5.296  0.3725  1.0812 -0.4699
   65MOL   C34923517   1.606   4.479   5.094  0.6750  0.3443  0.9886
   65MOL   H35023518   1.695   4.840   5.441  0.7513  0.3256  0.1650
   65MOL   H35123519   1.571   4.933   5.357 -0.4118  0.4969  0.9172
   65MOL   H35223520   1.420   4.743   5.337 -0.5693 -2.3498  0.1019
   65MOL   H35323521   1.645   4.698   5.217 -0.0607 -0.3316  0.5593
   65MOL   H35423522   1.689   4.592   5.343 -0.3556  2.4751  3.9329
   65MOL   H35523523   1.434   4.586   5.172 -0.4778  1.0923  1.2454
   65MOL   H35623524   1.526   4.350   5.351 -0.4431 -0.0439 -0.7129
   65MOL   H35723525   1.380   4.446   5.366  0.0178  0.7137 -0.6789
   65MOL   H35823526   1.426   4.340   5.221  2.1356 -0.9222  0.7260
   65MOL   H35923527   1.639   4.554   5.022 -1.5981 -1.1065 -1.6415
   65MOL   H36023528   1.540   4.422   5.029  2.5432  0.6697 -1.2891
   65MOL   H36123529   1.687   4.414   5.130 -0.5081 -0.3714  2.4048
   65MOL   H36223530   1.488   4.659   5.469 -0.3110  0.0270 -0.4752
   66MOL     C123531   3.883   7.574   0.228  0.0882  0.2372 -1.3982
   66MOL     C223532   3.999   7.487   0.176 -0.3683 -0.0711  0.3816
   66MOL     C323533   4.124   7.572   0.147  0.0454  0.9926  0.7415
   66MOL     C423534   4.208   7.622   0.268 -0.1090 -0.6342  0.5261
   66MOL     C523535   4.305   7.731   0.215  0.2918  0.7326  0.2731
   66MOL     C623536   4.282   7.504   0.334  0.1601  0.1132  0.2329
   66MOL     H723537   3.914   7.627   0.318 -0.3482 -0.4305 -0.8434
   66MOL     H823538   3.848   7.643   0.151  0.2982  1.6649 -0.2445
   66MOL     H923539   4.029   7.416   0.253  0.1812 -3.3394 -2.7329
   66MOL    H1023540   4.184   7.510   0.082 -0.0451  0.9401  0.7094
   66MOL    H1123541   4.077   7.657   0.098 -2.3732  0.3887  1.9170
   66MOL    H1223542   4.141   7.664   0.343 -0.6642  0.6719 -0.6650
   66MOL    H1323543   4.383   0.012   0.284  1.6548  2.2171 -1.9162
   66MOL    H1423544   4.365   7.711   0.126 -0.6688  0.9546 -0.4370
   66MOL    H1523545   4.257   0.074   0.190  1.6854  1.6307  0.9786
   66MOL    H1623546   4.348   7.541   0.412  1.2986 -0.0155 -0.6577
   66MOL    H1723547   4.356   7.464   0.265 -0.5487  0.2675 -0.6376
   66MOL    H1823548   4.214   7.423   0.361 -0.2483  0.2968 -0.2270
   66MOL    H1923549   3.802   7.506   0.256  0.1137  0.9427  0.5107
   66MOL    C2023550   3.952   7.403   0.064 -0.2754  0.4669 -0.2345
   66MOL    C2123551   4.037   7.291   7.751 -0.5485  0.9576 -0.0252
   66MOL    C2223552   4.131   7.216   0.106  0.4692 -0.1861 -0.3672
   66MOL    C2323553   4.067   7.098   0.185 -1.0689  0.2258  0.0844
   66MOL    C2423554   4.169   7.050   0.293  1.0837 -0.5274  0.6960
   66MOL    C2523555   3.933   7.126   0.252  0.2787  0.6545 -0.0404
   66MOL    H2623556   3.859   7.352   0.087  1.8601 -2.9344  1.2296
   66MOL    H2723557   3.920   7.474   7.740 -3.0749 -0.5569 -0.0478
   66MOL    H2823558   4.106   7.351   7.691  1.1419 -1.5835 -0.7200
   66MOL    H2923559   4.177   7.292   0.169 -0.4156  0.2193 -0.2013
   66MOL    H3023560   4.197   7.154   0.046  0.6898 -1.7469  1.4273
   66MOL    H3123561   4.040   7.014   0.122 -1.9256  1.1674 -0.8060
   66MOL    H3223562   4.255   7.005   0.243  1.6366  1.5994 -0.3577
   66MOL    H3323563   4.118   6.972   0.348 -1.8222 -0.6603 -2.0702
   66MOL    H3423564   4.206   7.127   0.361  2.4773  0.3863 -1.0229
   66MOL    H3523565   3.851   7.126   0.180  0.2507 -0.6687 -0.0281
   66MOL    H3623566   3.900   7.044   0.316 -2.1049  1.8566  0.3322
   66MOL    H3723567   3.944   7.221   0.303  3.2444  0.1866  0.2801
   66MOL    C3823568   3.959   7.205   7.653  0.4078 -0.1910  0.1887
   66MOL    C3923569   3.868   7.270   7.550  0.8364  0.0450  0.1676
   66MOL    C4023570   3.794   7.156   7.474 -0.4148 -0.1901 -0.1438
   66MOL    C4123571   3.685   7.074   7.549  0.3802  0.2633 -0.4714
   66MOL    C4223572   3.645   6.958   7.451 -0.0317 -0.6959 -0.2244
   66MOL    C4323573   3.566   7.161   7.574 -0.3127 -0.2461 -0.1871
   66MOL    H4423574   3.897   7.140   7.715  0.2647  2.4446  2.9196
   66MOL    H4523575   4.026   7.136   7.601  1.0815 -0.1517  0.9831
   66MOL    H4623576   3.797   7.329   7.608  2.9838  2.1949  0.6778
   66MOL    H4723577   3.876   7.099   7.429 -0.5978 -1.2489  0.8504
   66MOL    H4823578   3.750   7.199   7.384  1.0715 -0.0133 -0.7911
   66MOL    H4923579   3.724   7.037   7.644  0.8948 -1.8859 -1.5069
   66MOL    H5023580   3.573   6.983   7.373 -1.2834 -1.9291  0.4876
   66MOL    H5123581   3.728   6.910   7.400  0.8459  0.2546  0.2940
   66MOL    H5223582   3.587   6.879   7.500  0.7260 -1.4565 -0.5404
   66MOL    H5323583   3.586   7.246   7.638 -0.1236  1.1467 -2.0687
   66MOL    H5423584   3.480   7.102   7.607 -1.0880 -0.0098 -1.7550
   66MOL    H5523585   3.537   7.208   7.480  1.1392  0.0099 -0.5205
   66MOL    C5623586   3.938   7.364   7.449 -0.2634  0.7619  0.2399
   66MOL    C5723587   3.850   7.446   7.347 -0.4786  0.3824 -0.3149
   66MOL    C5823588   3.943   7.539   7.265 -0.2042 -0.3573  0.7666
   66MOL    C5923589   4.041   7.477   7.163 -0.4316 -0.0650 -0.3714
   66MOL    C6023590   4.110   7.577   7.073  0.1873  0.8416 -0.7719
   66MOL    C6123591   3.990   7.355   7.086  0.2056  0.5833  0.3896
   66MOL    H6223592   3.998   7.296   7.388 -1.7435 -0.4917  0.1486
   66MOL    H6323593   4.007   7.425   7.507  2.3392 -1.1712 -0.6896
   66MOL    H6423594   3.797   7.380   7.278  1.7164  1.5890 -3.2565
   66MOL    H6523595   3.874   7.599   7.207  0.3832 -2.2428 -1.9875
   66MOL    H6623596   4.004   7.609   7.322  0.0167 -0.7523  1.0182
   66MOL    H6723597   4.113   7.427   7.228 -0.1905  0.3777 -0.2999
   66MOL    H6823598   4.164   7.646   7.137  0.8513 -0.4146  0.0604
   66MOL    H6923599   4.044   7.630   7.004  1.1454  1.8589 -0.9188
   66MOL    H7023600   4.187   7.537   7.007  0.4614  3.2899 -1.9680
   66MOL    H7123601   4.052   7.311   7.008 -2.2478 -0.8984 -0.8019
   66MOL    H7223602   3.897   7.372   7.030  0.0638 -3.0832 -0.5719
   66MOL    H7323603   3.964   7.267   7.145 -1.5851 -0.5558 -2.0021
   66MOL    C7423604   3.745   7.521   7.432 -0.1964  0.2588  0.1700
   66MOL    C7523605   3.627   7.601   7.358  0.1786  0.1536 -0.5793
   66MOL    C7623606   3.574   7.715   7.447 -0.3585  0.0214  0.4584
   66MOL    C7723607   3.632   0.097   7.435  0.3395 -0.4968  0.3608
   66MOL    C7823608   3.778   0.103   7.478  0.7273  0.0969 -0.1316
   66MOL    C7923609   3.536   0.203   7.516 -0.4732  0.1829  0.0585
   66MOL    H8023610   3.794   7.595   7.495  0.9718  0.4135 -0.9121
   66MOL    H8123611   3.686   7.450   7.490 -2.0490  0.6163 -1.2145
   66MOL    H8223612   3.670   7.653   7.272 -2.1502  1.7585 -0.8082
   66MOL    H8323613   3.466   7.727   7.436 -0.7832  0.1359  4.1104
   66MOL    H8423614   3.586   7.680   7.550  1.7260 -1.0023 -0.1066
   66MOL    H8523615   3.626   0.132   7.332 -1.5738 -2.4333 -0.2135
   66MOL    H8623616   3.844   0.045   7.413 -2.0126 -2.5210 -0.7310
   66MOL    H8723617   3.799   0.073   7.581 -2.2003  0.2439  0.5494
   66MOL    H8823618   3.822   0.202   7.475 -1.3355  1.1436  2.7000
   66MOL    H8923619   3.568   0.305   7.497  0.1886 -0.3501 -1.7324
   66MOL    H9023620   3.432   0.190   7.486  0.7821 -4.0594 -2.8866
   66MOL    H9123621   3.535   0.180   7.623 -0.4351 -1.0124 -0.1937
   66MOL    C9223622   3.511   7.509   7.312 -0.3040  0.2057  0.1806
   66MOL    C9323623   3.444   7.560   7.179 -0.2084 -1.2489 -0.5691
   66MOL    C9423624   3.537   7.537   7.061 -0.2464 -0.0326  0.6788
   66MOL    C9523625   3.498   7.604   6.929  0.2371 -0.5608  0.5617
   66MOL    C9623626   3.514   0.002   6.906  0.0921 -0.4354 -0.6569
   66MOL    C9723627   3.566   7.532   6.814 -0.7347  0.4831  0.0551
   66MOL    H9823628   3.551   7.412   7.283 -1.3937  0.2791 -1.6717
   66MOL    H9923629   3.434   7.491   7.386 -1.2381  1.7167 -0.3859
   66MOL   H10023630   3.419   7.666   7.185 -3.2768 -2.0219  2.1452
   66MOL   H10123631   3.552   7.430   7.048 -0.3311 -0.2560  2.2384
   66MOL   H10223632   3.641   7.557   7.088  0.7621 -2.0761 -1.5016
   66MOL   H10323633   3.391   7.592   6.916  0.3431  0.7478 -1.7868
   66MOL   H10423634   3.459   0.051   6.987  0.5404  0.2648 -0.7722
   66MOL   H10523635   3.475   0.038   6.811  1.1812  1.5282 -0.3953
   66MOL   H10623636   3.621   0.014   6.917  0.4352 -4.0988  0.8534
   66MOL   H10723637   3.564   7.425   6.834  1.3079  0.3276 -0.4777
   66MOL   H10823638   3.672   7.557   6.803 -0.2410 -1.6151 -0.1836
   66MOL   H10923639   3.521   7.547   6.716  0.5667 -0.4537 -0.7168
   66MOL   C11023640   3.312   7.490   7.165  0.1646  0.9671 -0.4507
   66MOL   C11123641   3.193   7.563   7.232 -0.2184 -0.1201  0.4251
   66MOL   C11223642   3.140   7.688   7.149 -0.5452  0.0943 -0.0911
   66MOL   C11323643   3.072   0.046   7.232  0.0415 -0.4142  0.1100
   66MOL   C11423644   3.001   0.146   7.142 -0.2308  0.2714  0.6517
   66MOL   C11523645   3.180   0.114   7.316  0.3938 -0.1692  0.2926
   66MOL   H11623646   3.321   7.394   7.216  1.9162  1.0246 -0.6124
   66MOL   H11723647   3.281   7.484   7.060  0.3913  3.3651 -0.6780
   66MOL   H11823648   3.227   7.601   7.328  2.2459  1.7350 -1.1402
   66MOL   H11923649   3.072   7.659   7.069 -1.2301  2.9409 -0.5918
   66MOL   H12023650   3.220   7.733   7.090 -1.3446  0.5472 -0.8322
   66MOL   H12123651   2.994   7.749   7.290  0.7806 -0.3900  1.1427
   66MOL   H12223652   3.043   0.157   7.042  0.3363 -0.0079  0.8613
   66MOL   H12323653   3.016   0.243   7.190 -1.1567  0.0822  1.3364
   66MOL   H12423654   2.893   0.129   7.136 -0.1708 -0.5724  1.8283
   66MOL   H12523655   3.233   0.050   7.387 -2.0283 -3.5986 -0.8987
   66MOL   H12623656   3.123   0.183   7.378 -2.3187 -1.3391 -0.8582
   66MOL   H12723657   3.250   0.167   7.252  1.5372 -0.2705  1.4343
   66MOL   C12823658   3.072   7.470   7.256  0.6995  0.1842 -0.8064
   66MOL   C12923659   3.033   7.452   7.405 -0.1521 -0.1573 -0.3788
   66MOL   C13023660   3.145   7.379   7.487  0.0494 -0.6063  0.4811
   66MOL   C13123661   3.151   7.399   7.634 -0.3621  0.0754  0.2556
   66MOL   C13223662   3.230   7.285   7.694 -0.7170  0.0135 -1.2712
   66MOL   C13323663   3.207   7.545   7.660  0.2479  1.1363 -0.4654
   66MOL   H13423664   3.078   7.366   7.223 -3.0860 -0.1643 -0.5987
   66MOL   H13523665   2.985   7.510   7.204 -0.4208 -1.9312 -0.6363
   66MOL   H13623666   3.010   7.547   7.454 -1.0734  0.3091 -1.6865
   66MOL   H13723667   3.134   7.272   7.469  1.1722 -0.8051  0.9553
   66MOL   H13823668   3.247   7.404   7.455  0.8420  0.1890  3.5263
   66MOL   H13923669   3.054   7.390   7.682  0.2439 -0.1914  1.4517
   66MOL   H14023670   3.196   7.188   7.657  1.2620 -1.3971  0.5148
   66MOL   H14123671   3.229   7.289   0.050 -1.4298 -3.2309 -1.1235
   66MOL   H14223672   3.335   7.300   7.670 -0.7674  0.9211 -0.9593
   66MOL   H14323673   3.125   7.617   7.651 -1.4623 -0.5120  1.5645
   66MOL   H14423674   3.254   7.560   0.004  0.5638  1.0688 -0.6095
   66MOL   H14523675   3.287   7.566   7.589 -0.1975  0.7419 -1.0960
   66MOL   C14623676   2.900   7.379   7.422  0.3140 -0.0598 -0.2650
   66MOL   C14723677   2.789   7.483   7.410 -0.2227 -0.5611  0.1042
   66MOL   C14823678   2.753   7.553   7.547 -0.2972  0.8662 -0.9435
   66MOL   C14923679   2.662   7.671   7.551  0.2972  0.2490 -0.0684
   66MOL   C15023680   2.646   7.728   7.694  0.2240 -0.6113  0.2968
   66MOL   C15123681   2.707   0.030   7.463 -0.0025 -0.4679  0.1248
   66MOL   H15223682   2.895   7.355   7.529 -0.5698  0.4176 -0.1885
   66MOL   H15323683   2.885   7.289   7.362  0.8043 -0.2665 -0.0782
   66MOL   H15423684   2.816   7.555   7.333 -1.5348 -1.1756 -0.9469
   66MOL   H15523685   2.722   7.477   7.620 -1.4665  0.7906 -1.5208
   66MOL   H15623686   2.849   7.585   7.588 -0.2168 -1.9819  1.3080
   66MOL   H15723687   2.561   7.644   7.520  1.3135 -3.6317 -0.2714
   66MOL   H15823688   2.743   7.742   7.741 -0.9256 -1.4977  3.0086
   66MOL   H15923689   2.583   7.662   0.000 -1.5024  0.3398 -0.4466
   66MOL   H16023690   2.604   0.076   7.695 -1.3764 -1.1917 -2.4240
   66MOL   H16123691   2.720   0.005   7.358 -1.4528  0.1870 -0.2237
   66MOL   H16223692   2.802   0.069   7.500 -0.2606  1.1067 -0.8178
   66MOL   H16323693   2.638   0.114   7.464  1.6132  0.9253 -1.0705
   66MOL   C16423694   2.654   7.404   7.371  0.0208  0.3020  0.0003
   66MOL   C16523695   2.639   7.310   7.248  1.3303 -0.3732  0.4041
   66MOL   C16623696   2.498   7.236   7.246 -0.0785 -0.8984 -0.7994
   66MOL   C16723697   2.485   7.133   7.363  0.2735 -0.0051  0.9382
   66MOL   C16823698   2.356   7.050   7.352  0.3119  0.3591  0.6283
   66MOL   C16923699   2.606   7.033   7.375  0.4382 -0.4565  0.3296
   66MOL   H17023700   2.621   7.337   7.451  0.4925 -1.6183 -1.3641
   66MOL   H17123701   2.565   7.466   7.364  0.9983  1.7320 -0.0240
   66MOL   H17223702   2.711   7.228   7.251 -0.4212 -1.9665 -0.5782
   66MOL   H17323703   2.418   7.309   7.256 -0.7954 -1.8001  0.2136
   66MOL   H17423704   2.489   7.182   7.152  0.5741  0.1730 -1.4928
   66MOL   H17523705   2.486   7.174   7.464  0.0307 -2.5095  1.9958
   66MOL   H17623706   2.364   6.967   7.282 -1.7731 -0.0361  0.8248
   66MOL   H17723707   2.272   7.118   7.335  0.3121  0.6143  1.6470
   66MOL   H17823708   2.337   7.001   7.447  0.7644 -1.2205 -0.0805
   66MOL   H17923709   2.700   7.080   7.401  0.7414 -0.9572  0.1389
   66MOL   H18023710   2.621   6.992   7.275  1.8433  1.1355 -0.1417
   66MOL   H18123711   2.588   6.955   7.449 -2.1437 -0.0334  0.2073
   66MOL   C18223712   2.659   7.398   7.123  0.1099 -0.1906 -0.0652
   66MOL   C18323713   2.690   7.314   6.994  0.0416 -0.1975 -0.2143
   66MOL   C18423714   2.643   7.388   6.858  0.2628 -0.4098  0.4991
   66MOL   C18523715   2.497   7.444   6.860  0.3512  0.2759 -0.7038
   66MOL   C18623716   2.459   7.506   6.731  0.3903  0.3335 -0.2193
   66MOL   C18723717   2.385   7.349   6.915  0.6498  0.2241 -0.3382
   66MOL   H18823718   2.738   7.471   7.140 -0.9192  1.2320 -1.3072
   66MOL   H18923719   2.571   7.462   7.113  1.1636  1.2985  0.1052
   66MOL   H19023720   2.630   7.223   6.986  0.6843 -0.7702  1.3934
   66MOL   H19123721   2.634   7.318   6.775  2.7864  0.7765 -0.8136
   66MOL   H19223722   2.722   7.450   6.816  0.3206 -0.2337  0.8680
   66MOL   H19323723   2.493   7.526   6.931  0.5534  0.8398 -1.3402
   66MOL   H19423724   2.525   7.587   6.700 -0.6959  1.8933  1.4596
   66MOL   H19523725   2.363   7.557   6.740  1.0524  1.4996  0.2768
   66MOL   H19623726   2.443   7.426   6.659  1.5897 -0.7470  0.6966
   66MOL   H19723727   2.291   7.399   6.939  0.0601 -2.6293  3.9160
   66MOL   H19823728   2.419   7.299   7.005 -1.2608  2.6949  1.8289
   66MOL   H19923729   2.365   7.263   6.851 -1.0477  0.1263  0.2885
   66MOL   C20023730   2.836   7.279   6.993  0.0388  0.1037  0.0902
   66MOL   C20123731   2.900   7.172   6.900  0.2670 -0.2148 -0.4251
   66MOL   C20223732   2.909   7.217   6.753  0.2130  0.2904 -0.0329
   66MOL   C20323733   2.982   7.350   6.722  0.4245 -0.2050 -0.9327
   66MOL   C20423734   3.123   7.355   6.778 -0.6305 -1.0350 -0.0758
   66MOL   C20523735   2.980   7.377   6.570  0.0575  0.1251 -0.0908
   66MOL   H20623736   2.852   7.243   7.094  0.3904  1.0078  0.3587
   66MOL   H20723737   2.884   7.376   6.979 -2.3507  0.9844 -2.5106
   66MOL   H20823738   3.006   7.160   6.924  0.1882 -1.6432 -0.7353
   66MOL   H20923739   2.965   7.135   6.707 -0.8986 -1.2191  1.2320
   66MOL   H21023740   2.812   7.212   6.702  1.4527  0.0201 -2.4564
   66MOL   H21123741   2.930   7.432   6.771  3.0191 -0.0144  1.6865
   66MOL   H21223742   3.162   7.256   6.751 -1.3154 -0.4487 -3.5048
   66MOL   H21323743   3.138   7.373   6.884  0.4118 -0.8820 -0.2469
   66MOL   H21423744   3.175   7.431   6.719 -2.2505 -0.8802 -1.3449
   66MOL   H21523745   3.038   7.467   6.547 -0.4524  0.4026 -0.2898
   66MOL   H21623746   2.886   7.396   6.519  1.2808 -0.2601 -2.5755
   66MOL   H21723747   3.020   7.290   6.518 -1.1492  0.0305 -0.8738
   66MOL   C21823748   2.842   7.023   6.913 -0.2405 -0.2140 -0.2667
   66MOL   C21923749   2.836   6.960   7.058  0.8301  0.0441  0.9438
   66MOL   C22023750   2.964   6.973   7.139  0.2870  0.2852 -0.2850
   66MOL   C22123751   2.963   6.919   7.283 -0.0218  1.0497  0.1770
   66MOL   C22223752   2.994   6.760   7.300  0.5781 -0.3403  0.4557
   66MOL   C22323753   3.035   7.009   7.381 -0.0409 -0.3155  0.0230
   66MOL   H22423754   2.739   7.023   6.881 -0.6893  0.9780  1.0944
   66MOL   H22523755   2.899   6.959   6.845 -0.7829  0.3582 -1.2535
   66MOL   H22623756   2.762   7.023   7.108 -0.3173 -0.3498 -0.2319
   66MOL   H22723757   3.038   6.920   7.079  3.2068  0.5536  2.8975
   66MOL   H22823758   2.992   7.078   7.146 -0.2203  0.4490 -0.7074
   66MOL   H22923759   2.858   6.937   7.305 -0.0064 -1.3538  2.5400
   66MOL   H23023760   3.087   6.729   7.252  0.8059  0.1141  0.5950
   66MOL   H23123761   3.025   6.736   7.401 -0.8236  0.1280  1.0064
   66MOL   H23223762   2.908   6.697   7.280 -1.2784  2.2682 -0.1312
   66MOL   H23323763   3.015   7.114   7.359  1.8711 -0.3188 -1.8379
   66MOL   H23423764   3.003   6.987   7.483 -0.5412 -0.4012 -0.1484
   66MOL   H23523765   3.142   6.996   7.368  0.1071 -0.0073  0.8757
   66MOL   C23623766   2.786   6.812   7.054  0.3527 -0.7497  0.4810
   66MOL   C23723767   2.671   6.769   6.955 -0.8677 -0.5296 -0.5657
   66MOL   C23823768   2.543   6.832   6.998  0.0502 -0.1038 -0.1906
   66MOL   C23923769   2.420   6.827   6.908  0.2609 -0.7505  1.0108
   66MOL   C24023770   2.305   6.910   6.965 -0.1117  0.0268 -0.4254
   66MOL   C24123771   2.460   6.885   6.765 -0.2167 -1.1257  0.0057
   66MOL   H24223772   2.749   6.789   7.154  1.7447 -1.5012  0.8369
   66MOL   H24323773   2.873   6.751   7.030 -0.3837  0.0272 -4.8657
   66MOL   H24423774   2.694   6.803   6.854  1.2415 -0.0478  0.0475
   66MOL   H24523775   2.557   6.937   7.025 -3.0063  1.1831 -3.1923
   66MOL   H24623776   2.521   6.789   7.095  1.8161 -1.4051 -0.3611
   66MOL   H24723777   2.389   6.723   6.902  1.2944 -1.0678  1.0429
   66MOL   H24823778   2.287   6.874   7.066  1.2173  1.2045  0.2519
   66MOL   H24923779   2.211   6.893   6.913 -0.5408  0.8235  0.0905
   66MOL   H25023780   2.330   7.016   6.973 -0.8683  0.2256 -0.6921
   66MOL   H25123781   2.513   6.980   6.776 -0.4988 -0.7424 -1.7962
   66MOL   H25223782   2.380   6.887   6.691 -0.4118 -0.8532  0.2228
   66MOL   H25323783   2.533   6.825   6.712  0.9419 -0.4989  0.8710
   66MOL   C25423784   2.662   6.619   6.952  0.7226  1.0104 -0.2523
   66MOL   C25523785   2.764   6.537   6.866 -1.0241  0.2155 -0.9757
   66MOL   C25623786   2.785   6.393   6.932  0.0994 -0.1690  0.6658
   66MOL   C25723787   2.895   6.391   7.046  0.6688  0.1145  0.1388
   66MOL   C25823788   3.029   6.465   7.005  0.4183  0.3924  0.8235
   66MOL   C25923789   2.914   6.245   7.094  0.0996  0.0777  0.6551
   66MOL   H26023790   2.668   6.590   7.057 -0.9065 -1.4031 -0.8037
   66MOL   H26123791   2.570   6.577   6.913  1.7599 -1.6844  0.0855
   66MOL   H26223792   2.854   6.595   6.885 -0.6241 -0.8879  0.5647
   66MOL   H26323793   2.809   6.324   6.851 -2.0039 -0.8235  0.5724
   66MOL   H26423794   2.689   6.356   6.969  0.8828 -2.7566  0.2159
   66MOL   H26523795   2.849   6.439   7.132 -2.0497 -1.0995 -0.5542
   66MOL   H26623796   3.104   6.426   7.074  0.6353 -0.0393  0.3470
   66MOL   H26723797   3.025   6.573   7.020 -1.9129  0.3691  0.6230
   66MOL   H26823798   3.063   6.449   6.903 -0.2372 -0.7713  0.7777
   66MOL   H26923799   3.001   6.237   7.159 -0.3995  1.1030  1.4648
   66MOL   H27023800   2.823   6.196   7.128 -1.5121  0.8420 -2.3774
   66MOL   H27123801   2.935   6.199   6.997  1.5891  1.6636  0.2026
   66MOL   C27223802   2.733   6.538   6.715 -0.0231 -0.0554  0.4311
   66MOL   C27323803   2.863   6.528   6.628 -0.0598 -0.2191  0.3975
   66MOL   C27423804   2.846   6.428   6.521 -0.3709  0.4076  0.3278
   66MOL   C27523805   2.861   6.276   6.567  0.1955  0.2672  0.5558
   66MOL   C27623806   2.999   6.242   6.618  0.0314  0.7301  1.1512
   66MOL   C27723807   2.833   6.179   6.451  0.8783 -0.2685 -0.1692
   66MOL   H27823808   2.666   6.456   6.692  0.7414 -0.3422 -0.8679
   66MOL   H27923809   2.690   6.636   6.697 -0.2410 -0.0058  1.2072
   66MOL   H28023810   2.947   6.495   6.689 -0.2996 -0.3805  0.6384
   66MOL   H28123811   2.925   6.449   6.449  0.8900 -0.1304  1.5359
   66MOL   H28223812   2.751   6.443   6.470 -0.7285  2.5043  1.5398
   66MOL   H28323813   2.803   6.248   6.654 -0.4998 -0.0954 -0.0181
   66MOL   H28423814   3.053   6.316   6.675  0.5493  0.7957  0.5771
   66MOL   H28523815   2.988   6.157   6.686 -1.4516 -0.7316 -0.8513
   66MOL   H28623816   3.070   6.225   6.537 -3.9991 -1.9218 -2.0454
   66MOL   H28723817   2.852   6.079   6.488  1.5566 -0.9327 -2.2506
   66MOL   H28823818   2.727   6.180   6.425  1.3423  0.6388 -2.1272
   66MOL   H28923819   2.900   6.207   6.370 -0.5125  1.7500 -0.6588
   66MOL   C29023820   2.889   6.669   6.566 -0.1148  0.6561 -0.2963
   66MOL   C29123821   3.025   6.707   6.485 -0.5673 -0.5606 -0.3591
   66MOL   C29223822   3.151   6.630   6.540  0.1968 -0.1189  0.0459
   66MOL   C29323823   3.192   6.667   6.687  0.2669 -0.3634  0.0816
   66MOL   C29423824   3.274   6.555   6.737 -0.5773  0.9924  0.0418
   66MOL   C29523825   3.254   6.807   6.691 -0.2546 -0.7528 -0.2285
   66MOL   H29623826   2.805   6.702   6.506 -0.6314  0.0495  0.0937
   66MOL   H29723827   2.881   6.745   6.644  1.6774  1.1202 -0.5343
   66MOL   H29823828   3.050   6.812   6.488  1.4502 -1.0135 -0.9358
   66MOL   H29923829   3.239   6.651   6.479  0.8262 -1.9541  0.2947
   66MOL   H30023830   3.131   6.523   6.534 -2.7593  0.3890  0.3732
   66MOL   H30123831   3.096   6.674   6.738  0.0293 -0.7002 -0.3119
   66MOL   H30223832   3.227   6.457   6.726  1.9230 -0.2707  0.1901
   66MOL   H30323833   3.302   6.560   6.842 -0.2771  2.9989 -0.1253
   66MOL   H30423834   3.367   6.545   6.681 -0.6934  0.9980 -0.1530
   66MOL   H30523835   3.314   6.836   6.605 -0.6396  0.8275  0.0316
   66MOL   H30623836   3.313   6.813   6.783 -1.7194  0.8163  0.6239
   66MOL   H30723837   3.178   6.885   6.688 -0.0542 -0.5933 -1.6596
   66MOL   C30823838   3.001   6.689   6.326 -0.4535  0.7134 -0.5826
   66MOL   C30923839   2.933   6.807   6.247  0.1548  0.0124  0.2821
   66MOL   C31023840   3.022   6.940   6.241  0.4361 -0.1609  0.3274
   66MOL   C31123841   2.941   7.074   6.219 -0.2831 -0.5615 -0.7375
   66MOL   C31223842   2.856   7.108   6.347  0.4362 -0.7831  0.8852
   66MOL   C31323843   3.043   7.190   6.192  0.0271 -0.1890 -0.6262
   66MOL   H31423844   3.098   6.660   6.286  1.2625  3.4092  1.4291
   66MOL   H31523845   2.921   6.615   6.324  1.0752 -1.0960  2.2615
   66MOL   H31623846   2.843   6.829   6.304 -0.9920 -1.2976 -1.0035
   66MOL   H31723847   3.100   6.939   6.164 -1.2516  0.3695 -1.4396
   66MOL   H31823848   3.081   6.952   6.332  0.8454 -0.5685  0.1218
   66MOL   H31923849   2.886   7.065   6.125 -1.6732 -0.7818  0.0777
   66MOL   H32023850   2.791   7.024   6.372 -0.8881 -0.5725 -1.6949
   66MOL   H32123851   2.799   7.201   6.351 -0.5210 -1.3050 -0.3298
   66MOL   H32223852   2.922   7.119   6.433  3.8535 -1.3514 -1.5312
   66MOL   H32323853   2.989   7.284   6.201 -0.2652 -0.4620  0.5012
   66MOL   H32423854   3.110   7.194   6.277 -0.3033 -0.2523 -0.3640
   66MOL   H32523855   3.102   7.184   6.101  0.3014  1.7813 -0.6133
   66MOL   C32623856   2.891   6.756   6.099  0.1406  0.5979  0.3498
   66MOL   C32723857   2.756   6.684   6.079  0.4926 -0.7876 -0.4838
   66MOL   C32823858   2.769   6.578   5.971  0.9506  0.0401  0.2543
   66MOL   C32923859   2.815   6.442   6.032 -0.0623 -0.3515  0.0828
   66MOL   C33023860   2.695   6.354   6.079  0.6497  0.7623 -0.1724
   66MOL   C33123861   2.896   6.362   5.933  0.0236  0.1213 -0.2914
   66MOL   H33223862   2.977   6.693   6.073  0.4884  0.8865  0.8002
   66MOL   H33323863   2.903   6.834   6.024  0.1269 -0.9051 -1.2578
   66MOL   H33423864   2.729   6.634   6.172  1.0692  1.8453  1.1701
   66MOL   H33523865   2.678   6.547   5.920 -0.0455  1.0568  1.3799
   66MOL   H33623866   2.854   6.608   5.910  0.7002 -0.7270 -0.4865
   66MOL   H33723867   2.883   6.447   6.118  1.2657  0.6547 -1.0096
   66MOL   H33823868   2.723   6.264   6.134 -1.2892 -0.3501 -0.9469
   66MOL   H33923869   2.625   6.330   5.999  0.6267  1.4876 -0.3656
   66MOL   H34023870   2.644   6.400   6.164 -1.5703  0.0223 -1.0670
   66MOL   H34123871   2.855   6.328   5.838 -0.4618  2.1858 -0.8267
   66MOL   H34223872   2.988   6.412   5.904 -0.1055 -0.4023 -1.6099
   66MOL   H34323873   2.924   6.267   5.979  0.2419 -0.2886 -1.2684
   66MOL   C34423874   2.640   6.780   6.052  0.3465 -0.2516  0.4196
   66MOL   C34523875   2.614   6.880   6.159  0.2256 -0.7348 -0.2752
   66MOL   C34623876   2.483   6.961   6.144 -0.8064 -0.1072  0.1556
   66MOL   C34723877   2.484   7.093   6.226 -0.2176  0.3625 -0.8734
   66MOL   C34823878   2.458   7.066   6.376  0.0439  0.0985 -0.1782
   66MOL   C34923879   2.375   7.190   6.171 -1.1452  0.9935  0.2059
   66MOL   H35023880   2.550   6.719   6.050 -1.2243  2.0066  0.2143
   66MOL   H35123881   2.647   6.831   5.955  0.7220 -1.4922 -0.2148
   66MOL   H35223882   2.701   6.945   6.159 -0.8225  0.6848 -1.2499
   66MOL   H35323883   2.462   6.976   6.039  2.2538  0.6146 -0.4060
   66MOL   H35423884   2.400   6.899   6.177 -0.7364  0.5755  1.6558
   66MOL   H35523885   2.575   7.152   6.218  0.3682  0.2339  3.4650
   66MOL   H35623886   2.454   7.156   6.438  1.1981 -0.7145  1.1076
   66MOL   H35723887   2.372   7.001   6.388  1.2149 -1.8729 -2.2427
   66MOL   H35823888   2.539   7.007   6.421 -0.0068 -0.7487 -1.2067
   66MOL   H35923889   2.418   7.243   6.086 -1.2571 -1.0839 -1.1876
   66MOL   H36023890   2.359   7.277   6.234 -0.9155  0.9382  0.3388
   66MOL   H36123891   2.277   7.144   6.159 -1.2916  1.3981 -0.1581
   66MOL   H36223892   2.613   6.825   6.254 -0.1081 -0.2743 -0.0097
   67MOL     C123893   0.563   3.426   7.532 -0.2103  0.4311  1.1680
   67MOL     C223894   0.595   3.469   7.385 -0.3227  0.0549 -0.2712
   67MOL     C323895   0.740   3.524   7.369 -0.7621 -0.6732  0.9478
   67MOL     C423896   0.859   3.456   7.425 -0.3604 -0.2005 -0.1298
   67MOL     C523897   0.893   3.507   7.566  0.7621  0.1722  0.6272
   67MOL     C623898   0.978   3.456   7.337 -0.3894  0.0667 -0.6094
   67MOL     H723899   0.572   3.515   7.594 -0.5722  1.5363 -0.3597
   67MOL     H823900   0.459   3.395   7.531  0.2699 -1.2193 -1.0140
   67MOL     H923901   0.578   3.382   7.322 -1.0553  0.8738 -1.2150
   67MOL    H1023902   0.758   3.546   7.264  1.5535  0.6358  1.6001
   67MOL    H1123903   0.746   3.617   7.425 -0.3216 -0.4123  0.4705
   67MOL    H1223904   0.834   3.351   7.441  1.0400 -0.3780  0.9390
   67MOL    H1323905   0.973   3.581   7.571 -0.1430  1.0881  2.0788
   67MOL    H1423906   0.815   3.564   7.617  0.4154  1.1830 -1.0058
   67MOL    H1523907   0.936   3.428   7.627  0.3973  0.2248  0.9556
   67MOL    H1623908   1.019   3.555   7.317 -0.2777 -0.0668 -1.0438
   67MOL    H1723909   0.951   3.412   7.242 -0.7626 -0.4289 -0.2746
   67MOL    H1823910   1.056   3.394   7.381 -1.3805 -0.8302 -0.1008
   67MOL    H1923911   0.616   3.334   7.555 -2.0468 -0.8863  0.2596
   67MOL    C2023912   0.491   3.575   7.331 -0.3637 -0.1137 -0.5323
   67MOL    C2123913   0.520   3.643   7.194  0.0390  0.2637 -0.8887
   67MOL    C2223914   0.527   3.535   7.077  0.1514  0.0782 -0.9249
   67MOL    C2323915   0.588   3.590   6.945 -0.1169 -0.0033  0.4121
   67MOL    C2423916   0.735   3.614   6.958 -0.1042  0.6706 -0.2337
   67MOL    C2523917   0.564   3.504   6.822  0.5239 -0.4977  0.2703
   67MOL    H2623918   0.392   3.529   7.338 -1.0611  0.6985 -4.0980
   67MOL    H2723919   0.472   3.654   7.404 -3.4117  0.3828 -1.7808
   67MOL    H2823920   0.614   3.697   7.207 -0.5072  0.9893  0.1443
   67MOL    H2923921   0.424   3.503   7.066 -0.3331  0.6644  1.7520
   67MOL    H3023922   0.578   3.447   7.115 -2.5406 -0.9620  0.3700
   67MOL    H3123923   0.531   3.680   6.921 -2.0066 -1.3309 -0.0990
   67MOL    H3223924   0.764   3.682   7.038  1.0637 -0.4465  0.3115
   67MOL    H3323925   0.781   3.665   6.873  2.7205  0.4826  1.0923
   67MOL    H3423926   0.786   3.518   6.971  0.0472  0.8207  0.3123
   67MOL    H3523927   0.576   3.561   6.729  1.5152  0.4217  0.9505
   67MOL    H3623928   0.632   3.420   6.818 -0.5814 -1.4267  0.8262
   67MOL    H3723929   0.463   3.463   6.827  0.2038  0.1973 -0.3589
   67MOL    C3823930   0.421   3.758   7.161  0.4829  0.2252  0.2351
   67MOL    C3923931   0.432   3.893   7.244  0.3435 -0.1933 -0.5078
   67MOL    C4023932   0.309   3.984   7.206 -0.1995  0.0425 -0.0652
   67MOL    C4123933   0.168   3.941   7.266 -0.3563  0.0239 -0.1730
   67MOL    C4223934   0.061   4.040   7.210 -0.4551 -0.2912 -0.2254
   67MOL    C4323935   0.152   3.936   7.422 -0.5428 -0.3286  0.7429
   67MOL    H4423936   0.319   3.720   7.166  1.2925 -2.4346 -1.9793
   67MOL    H4523937   0.434   3.802   7.062  1.8042 -0.3484  0.1358
   67MOL    H4623938   0.424   3.870   7.350  2.3640 -0.4393 -0.3709
   67MOL    H4723939   0.299   3.999   7.098 -0.5623  0.1402 -0.0203
   67MOL    H4823940   0.320   4.083   7.249  1.4381  0.3887 -1.2289
   67MOL    H4923941   0.150   3.838   7.234  0.0995  0.4858 -1.9858
   67MOL    H5023942   0.085   4.053   7.104 -1.0022  1.6303 -0.1246
   67MOL    H5123943   7.713   3.996   7.210  0.2764 -2.0129  1.2334
   67MOL    H5223944   0.057   4.140   7.253  1.2652  0.2712 -1.2983
   67MOL    H5323945   0.229   3.865   7.454  0.0169  0.2565  0.6919
   67MOL    H5423946   0.055   3.889   7.441 -0.5643 -1.0028 -0.9709
   67MOL    H5523947   0.180   4.034   7.462  2.2320 -0.4597 -0.7833
   67MOL    C5623948   0.569   3.967   7.227  0.6217 -0.1144 -0.8493
   67MOL    C5723949   0.616   4.046   7.350 -0.5354  0.5384  0.8630
   67MOL    C5823950   0.729   4.142   7.320  0.2655 -0.7240  0.3203
   67MOL    C5923951   0.696   4.286   7.260 -0.1984 -0.1986 -0.7961
   67MOL    C6023952   0.594   4.367   7.356  0.1070  0.6116  0.4708
   67MOL    C6123953   0.663   4.298   7.108  0.3123 -0.9194  0.0920
   67MOL    H6223954   0.545   4.026   7.138  0.3596 -0.7580 -1.2058
   67MOL    H6323955   0.654   3.905   7.200  0.3315 -0.7163 -0.3916
   67MOL    H6423956   0.532   4.102   7.392  0.3626  3.0783 -0.6441
   67MOL    H6523957   0.783   4.160   7.413 -0.8496 -3.1735  1.4702
   67MOL    H6623958   0.795   4.089   7.251  0.2974  2.7431 -2.4751
   67MOL    H6723959   0.784   4.348   7.277 -0.6749  0.2376  0.0913
   67MOL    H6823960   0.494   4.325   7.349  1.1909 -1.8397 -1.2157
   67MOL    H6923961   0.586   4.472   7.328  0.0118  0.3099 -0.6517
   67MOL    H7023962   0.624   4.370   7.461  0.6800 -3.0143  0.4818
   67MOL    H7123963   0.748   4.257   7.053  0.8729  1.1384 -0.6150
   67MOL    H7223964   0.665   4.403   7.080  0.2101 -0.6209  1.1709
   67MOL    H7323965   0.569   4.255   7.076  0.1099 -1.3245  1.1896
   67MOL    C7423966   0.675   3.936   7.451  0.2068 -0.0061  0.7094
   67MOL    C7523967   0.676   3.973   7.602 -0.4796 -0.3894 -1.0914
   67MOL    C7623968   0.792   3.897   7.677 -0.0799 -0.2963 -0.4625
   67MOL    C7723969   0.940   3.936   7.650  0.8319 -0.2687  0.4088
   67MOL    C7823970   1.039   3.841   7.721  0.0338  0.1486  0.0679
   67MOL    C7923971   0.965   4.092   7.672 -0.3520 -0.0119  0.2490
   67MOL    H8023972   0.775   3.911   7.414  0.3634  0.5184  0.7670
   67MOL    H8123973   0.630   3.838   7.435  1.9810 -0.6558 -0.4329
   67MOL    H8223974   0.691   4.081   7.598  0.3140 -0.4718 -0.5723
   67MOL    H8323975   0.770   3.902   0.031 -0.6049  1.1713 -0.6307
   67MOL    H8423976   0.786   3.792   7.650  0.5501 -0.4429 -0.0401
   67MOL    H8523977   0.952   3.918   7.543  0.2968  0.3195  0.2547
   67MOL    H8623978   1.014   3.735   7.722  0.6810  0.0024  1.0603
   67MOL    H8723979   1.034   3.870   0.073  0.2476 -0.0584  0.1367
   67MOL    H8823980   1.144   3.849   7.692  0.1136 -1.5857 -0.1823
   67MOL    H8923981   1.070   4.114   7.650  0.1546 -1.5926  0.9876
   67MOL    H9023982   0.916   4.165   7.607 -0.5226 -0.8299 -0.5517
   67MOL    H9123983   0.945   4.117   0.024 -0.0588  0.0175  0.3002
   67MOL    C9223984   0.532   3.947   7.666 -0.0515  0.4279  0.0029
   67MOL    C9323985   0.482   4.040   0.039 -0.2123  0.1353  0.5735
   67MOL    C9423986   0.559   4.025   0.181  0.3833  0.1599  0.6334
   67MOL    C9523987   0.521   3.894   0.256  0.0171  0.5583  0.4880
   67MOL    C9623988   0.601   3.874   0.385  0.2902  0.4106 -0.1981
   67MOL    C9723989   0.363   3.889   0.280  0.3057 -0.8252  0.2756
   67MOL    H9823990   0.452   3.949   7.591  0.3232 -0.3622 -0.4242
   67MOL    H9923991   0.528   3.841   7.693 -1.5845 -0.0277 -1.8510
   67MOL   H10023992   0.379   4.010   0.062 -0.3129 -0.3156 -0.4276
   67MOL   H10123993   0.517   4.108   0.238  0.0212  0.6011 -0.2640
   67MOL   H10223994   0.668   4.028   0.181  0.3843  1.8225  3.1161
   67MOL   H10323995   0.544   3.807   0.195 -2.3129 -0.6837  1.3261
   67MOL   H10423996   0.707   3.889   0.368  0.6678  1.0280  2.3931
   67MOL   H10523997   0.577   3.775   0.423 -0.2174 -0.2031 -2.0556
   67MOL   H10623998   0.572   3.938   0.468 -0.7692  1.6248 -1.4770
   67MOL   H10723999   0.295   3.860   0.200 -0.5039 -0.0775  0.6856
   67MOL   H10824000   0.321   3.984   0.314 -2.3595 -1.4201 -1.1876
   67MOL   H10924001   0.351   3.822   0.365  0.4407 -0.9722  0.1788
   67MOL   C11024002   0.477   4.183   7.734 -0.1963 -0.3145 -0.0030
   67MOL   C11124003   0.390   4.285   0.058  0.0682  1.0047 -0.2075
   67MOL   C11224004   0.433   4.435   0.015  0.7650 -0.8746  0.0633
   67MOL   C11324005   0.547   4.501   0.101 -0.2046 -0.7247 -0.2927
   67MOL   C11424006   0.512   4.530   0.248 -0.0217 -0.0532  0.7053
   67MOL   C11524007   0.601   4.633   0.038 -0.1430  0.1299  0.0141
   67MOL   H11624008   0.439   4.182   7.632 -0.4572 -0.3289  0.0953
   67MOL   H11724009   0.584   4.206   7.740 -0.2209 -0.3520  0.7183
   67MOL   H11824010   0.397   4.276   0.167 -1.3777 -1.8108 -0.2876
   67MOL   H11924011   0.347   4.503   0.015  0.1466 -1.5783  2.4650
   67MOL   H12024012   0.453   4.436   7.661 -0.9160  0.5689 -0.2575
   67MOL   H12124013   0.621   4.422   0.103  1.5908  0.9295  1.1298
   67MOL   H12224014   0.592   4.575   0.307  0.4768 -0.2022  0.1326
   67MOL   H12324015   0.478   4.434   0.287 -0.4870  0.3603  1.3379
   67MOL   H12424016   0.421   4.589   0.264 -0.9331 -1.2296 -0.0637
   67MOL   H12524017   0.525   4.712   0.043  0.3515  0.6573 -0.6360
   67MOL   H12624018   0.615   4.616   7.683 -1.5276 -1.2575  0.0343
   67MOL   H12724019   0.695   4.664   0.084 -0.1424  0.9877 -0.5503
   67MOL   C12824020   0.232   4.265   0.042 -0.1344  0.1626  0.0995
   67MOL   C12924021   0.142   4.354   0.140  0.0047 -0.9280 -0.5760
   67MOL   C13024022   0.149   4.309   0.284 -0.5429 -0.4020 -0.0355
   67MOL   C13124023   0.081   4.398   0.396 -0.7694  0.1553 -0.8720
   67MOL   C13224024   0.124   4.345   0.540 -0.7444  0.0222 -0.9304
   67MOL   C13324025   0.112   4.553   0.376 -0.5853  0.2498  0.1771
   67MOL   H13424026   0.198   4.162   0.048  0.9457 -0.2269 -0.2225
   67MOL   H13524027   0.204   4.297   7.694 -0.5721  0.7348  0.4071
   67MOL   H13624028   0.172   4.459   0.135  1.2612 -1.1756  1.1352
   67MOL   H13724029   0.111   4.206   0.286  2.7498 -1.6774 -0.4570
   67MOL   H13824030   0.254   4.309   0.312 -0.3354  2.0288 -0.7035
   67MOL   H13924031   7.728   4.382   0.377 -0.7608 -2.8828  1.3892
   67MOL   H14024032   0.230   4.353   0.562 -0.7366 -1.7598 -0.2246
   67MOL   H14124033   0.086   4.243   0.550  1.9517 -0.8589  0.7098
   67MOL   H14224034   0.069   4.389   0.624 -2.1147  1.1167 -2.3601
   67MOL   H14324035   0.066   4.603   0.461  1.0571  0.4664  0.9372
   67MOL   H14424036   0.217   4.573   0.393 -0.5582  0.1498  0.1286
   67MOL   H14524037   0.080   4.590   0.278  1.1936 -0.7582 -0.8037
   67MOL   C14624038   7.741   4.349   0.099  0.1216 -0.8225 -0.0690
   67MOL   C14724039   7.698   4.358   7.702  0.4882 -0.1438 -0.6570
   67MOL   C14824040   7.738   4.506   7.656  0.0450 -0.2810 -0.0063
   67MOL   C14924041   7.724   4.533   7.502 -0.9674  0.0952 -0.4253
   67MOL   C15024042   7.734   4.678   7.466  0.0581 -0.1531 -0.2796
   67MOL   C15124043   0.074   4.455   7.417 -0.3704  1.3422  0.2878
   67MOL   H15224044   7.691   4.425   0.159  2.0002  0.7054 -0.3852
   67MOL   H15324045   7.708   4.251   0.133  0.1344 -1.2116 -1.1556
   67MOL   H15424046   7.746   4.289   7.633  0.6149 -0.6484 -0.0669
   67MOL   H15524047   7.676   4.577   7.711  1.6407  1.6025 -0.5943
   67MOL   H15624048   0.087   4.526   7.690  0.0750 -0.9312  0.3031
   67MOL   H15724049   7.624   4.502   7.471 -1.6037 -0.9729  2.5246
   67MOL   H15824050   7.655   4.728   7.522  0.9593  0.6183  0.3301
   67MOL   H15924051   7.712   4.704   7.363 -0.5250  1.0955  0.1572
   67MOL   H16024052   0.077   4.723   7.495  1.4075 -1.1237 -3.0079
   67MOL   H16124053   0.080   4.491   7.315 -0.5027  1.1193  0.2017
   67MOL   H16224054   0.047   4.350   7.408 -0.1845  1.3054  0.1591
   67MOL   H16324055   0.175   4.470   7.455  0.7465  1.9640 -2.8342
   67MOL   C16424056   7.544   4.320   7.702  0.0203 -0.0094  0.4466
   67MOL   C16524057   7.502   4.174   7.649 -0.5442 -0.2350 -0.5167
   67MOL   C16624058   7.533   4.149   7.499 -0.0260 -0.2331 -0.1815
   67MOL   C16724059   7.431   4.218   7.408 -0.5806 -0.5852 -0.0903
   67MOL   C16824060   7.468   4.226   7.258 -0.4279 -0.7474 -0.1899
   67MOL   C16924061   7.289   4.155   7.415 -0.6948 -0.3392  0.2943
   67MOL   H17024062   7.503   4.349   0.046 -0.9913 -1.4440  0.4677
   67MOL   H17124063   7.497   4.400   7.645  0.4891 -0.2969 -0.3533
   67MOL   H17224064   7.394   4.179   7.663 -0.2929  0.4396  1.2550
   67MOL   H17324065   7.617   4.208   7.464 -1.0140  1.1852 -0.1729
   67MOL   H17424066   7.540   4.042   7.480 -2.0469  0.0378 -2.6953
   67MOL   H17524067   7.414   4.324   7.431 -2.5175 -0.8935 -0.0091
   67MOL   H17624068   7.397   4.284   7.198  0.2328 -0.7675 -1.0108
   67MOL   H17724069   7.476   4.134   7.200  1.4251 -0.4107 -0.5062
   67MOL   H17824070   7.566   4.267   7.232 -0.5842  0.1372  0.5992
   67MOL   H17924071   7.240   4.195   7.504 -1.2230  0.5539 -0.3930
   67MOL   H18024072   7.284   4.052   7.448  0.8681 -0.2013  0.9763
   67MOL   H18124073   7.224   4.155   7.327 -1.2205 -1.1229  0.6818
   67MOL   C18224074   7.560   4.058   7.731 -0.5894 -0.1923  0.5797
   67MOL   C18324075   7.515   4.022   0.123 -0.0994  0.2507  0.5527
   67MOL   C18424076   7.413   3.907   0.101  0.2324 -0.9907  0.7377
   67MOL   C18524077   7.282   3.941   0.017 -0.6079 -0.2782  0.0955
   67MOL   C18624078   7.196   3.825   7.743  0.1026 -0.0149 -0.5664
   67MOL   C18724079   7.190   4.054   0.086  0.7845  0.4596 -0.4350
   67MOL   H18824080   7.666   4.083   7.736  0.1949 -3.2896  0.7050
   67MOL   H18924081   7.570   3.970   7.667  0.4093 -1.2910  2.2090
   67MOL   H19024082   7.451   4.102   0.160 -3.6929 -1.6950 -1.2138
   67MOL   H19124083   7.387   3.863   0.197 -2.1678  1.3713  1.2149
   67MOL   H19224084   7.465   3.821   0.058  1.5757  0.5682 -0.8532
   67MOL   H19324085   7.313   3.973   7.670 -0.6412 -2.9915 -0.8409
   67MOL   H19424086   7.231   3.756   7.667 -2.8770 -0.7045 -1.3846
   67MOL   H19524087   7.097   3.850   7.706 -0.2822 -0.1838  0.3268
   67MOL   H19624088   7.168   3.763   0.077  2.7530 -1.1916 -0.4996
   67MOL   H19724089   7.108   4.074   0.017  1.1550  0.3757 -0.8954
   67MOL   H19824090   7.232   4.150   0.118 -0.5270  0.6121  0.8988
   67MOL   H19924091   7.138   4.011   0.172 -0.1336 -2.6537 -2.4580
   67MOL   C20024092   7.633   3.983   0.212 -0.4673 -0.5195  0.4164
   67MOL   C20124093   7.613   3.978   0.365  0.0934 -0.3056  0.4755
   67MOL   C20224094   7.562   4.115   0.432 -0.1860 -0.8224 -0.2060
   67MOL   C20324095   7.438   4.109   0.515  0.4404  0.0517  0.1854
   67MOL   C20424096   7.436   4.232   0.619 -0.8483  0.0502 -0.1199
   67MOL   C20524097   7.306   4.085   0.440 -0.4370 -0.0995 -0.1062
   67MOL   H20624098   7.714   4.054   0.193 -0.9798 -0.4309 -1.5689
   67MOL   H20724099   7.664   3.884   0.178 -1.0050 -1.2630  2.0519
   67MOL   H20824100   7.541   3.897   0.374  1.5749 -1.4541  2.3418
   67MOL   H20924101   7.644   4.158   0.490 -2.7467  3.8176  0.2474
   67MOL   H21024102   7.542   4.198   0.364 -2.1582 -0.5168  0.7033
   67MOL   H21124103   7.433   4.020   0.578  1.6951 -0.3117 -0.2296
   67MOL   H21224104   7.533   4.234   0.667 -0.7316 -1.9942 -0.2184
   67MOL   H21324105   7.357   4.209   0.691 -1.4212 -0.9324 -1.0487
   67MOL   H21424106   7.418   4.328   0.570 -0.6973  1.5969  2.7786
   67MOL   H21524107   7.297   3.997   0.376  0.9557  0.8431 -1.6442
   67MOL   H21624108   7.289   4.162   0.365 -1.3289 -1.5774 -1.4516
   67MOL   H21724109   7.220   4.083   0.507  0.6480 -1.0151  1.2749
   67MOL   C21824110   7.749   3.928   0.428  0.7263  0.9182  0.1897
   67MOL   C21924111   7.741   3.852   0.569  0.0421 -0.3635  0.9930
   67MOL   C22024112   0.129   3.815   0.621  0.0968 -0.4608  0.1651
   67MOL   C22124113   0.221   3.933   0.645  0.0645 -0.8158 -0.1393
   67MOL   C22224114   0.154   4.029   0.743  0.5814 -0.5076 -0.3158
   67MOL   C22324115   0.360   3.897   0.707  1.4532 -0.4606  0.1061
   67MOL   H22424116   0.044   3.856   0.361  1.7451  1.5948  0.1736
   67MOL   H22524117   0.063   4.014   0.435  0.6584  0.9363  0.6046
   67MOL   H22624118   7.680   3.915   0.634 -0.8177  0.0352 -0.1804
   67MOL   H22724119   0.116   3.760   0.714 -0.6017  0.3768  0.5611
   67MOL   H22824120   0.184   3.757   0.547  1.4929  1.0483 -0.0015
   67MOL   H22924121   0.243   3.983   0.551  1.3922  0.5717  0.9075
   67MOL   H23024122   0.208   4.123   0.758  0.1479 -0.2609 -0.2726
   67MOL   H23124123   0.051   4.045   0.710  0.3689 -0.2389  0.4481
   67MOL   H23224124   0.139   3.980   0.839 -0.2025 -0.7367 -0.5573
   67MOL   H23324125   0.344   3.853   0.805 -1.1556 -0.5559 -0.3200
   67MOL   H23424126   0.387   3.822   0.633 -0.0077 -0.7125 -0.1947
   67MOL   H23524127   0.429   3.981   0.716 -0.2266  1.0444 -0.6230
   67MOL   C23624128   7.651   3.727   0.559  0.0447  0.7265 -0.0094
   67MOL   C23724129   7.615   3.654   0.690  0.7764  0.1559  0.3451
   67MOL   C23824130   7.546   3.514   0.665 -0.0771 -0.2173  0.0694
   67MOL   C23924131   7.639   3.407   0.599  0.4813  0.6175 -0.5642
   67MOL   C24024132   7.751   3.355   0.689 -0.1684  0.6310  0.1493
   67MOL   C24124133   7.550   3.289   0.556 -0.2066  0.3455 -0.8581
   67MOL   H24224134   7.695   3.653   0.492  0.9292 -0.4332  1.8185
   67MOL   H24324135   7.558   3.762   0.514  0.2237  0.4600 -0.5863
   67MOL   H24424136   7.704   3.630   0.749  0.1502 -1.0456  0.8365
   67MOL   H24524137   7.462   3.540   0.601 -0.4610  1.8253  1.3606
   67MOL   H24624138   7.496   3.472   0.752 -0.2636 -0.2576 -0.0564
   67MOL   H24724139   7.674   3.443   0.503  1.0338  1.0503 -0.2039
   67MOL   H24824140   0.081   3.426   0.693 -0.8682  1.6799 -2.6462
   67MOL   H24924141   0.040   3.262   0.651  0.4822  0.9522  0.0560
   67MOL   H25024142   7.729   3.350   0.795  0.0406 -0.5005  0.1422
   67MOL   H25124143   7.588   3.205   0.497 -2.0404 -1.2369  0.1605
   67MOL   H25224144   7.464   3.327   0.500 -2.0423 -1.6737  0.5086
   67MOL   H25324145   7.501   3.236   0.638 -0.1899  3.2808  1.1271
   67MOL   C25424146   7.523   3.737   0.785 -0.3623  0.2434  0.3854
   67MOL   C25524147   7.541   3.702   0.936  0.0472 -0.4453 -0.2533
   67MOL   C25624148   7.667   3.782   0.988  0.0743 -0.0980 -0.0704
   67MOL   C25724149   0.025   3.704   1.062 -0.2461  0.0431 -0.1870
   67MOL   C25824150   0.101   3.599   0.987 -0.1833  0.3529  0.3971
   67MOL   C25924151   7.734   3.650   1.192  0.3530 -0.0901  0.4504
   67MOL   H26024152   7.530   3.844   0.771  0.2761  0.2379  0.6594
   67MOL   H26124153   7.419   3.712   0.762 -1.0561  2.4338  1.0502
   67MOL   H26224154   7.565   3.597   0.955  1.9632  0.2113  1.0780
   67MOL   H26324155   7.633   3.847   1.069 -2.7969 -0.7211 -0.7040
   67MOL   H26424156   7.719   3.843   0.914 -0.3951  1.7490  1.0893
   67MOL   H26524157   0.109   3.771   1.081  0.3237  0.3083 -3.2628
   67MOL   H26624158   0.132   3.648   0.895  0.4579 -1.2226 -0.2368
   67MOL   H26724159   0.033   3.520   0.956  0.8070 -1.1966  2.0783
   67MOL   H26824160   0.192   3.574   1.042  0.4857  2.3545  0.2293
   67MOL   H26924161   7.679   3.563   1.156  1.7260 -0.5131 -0.6442
   67MOL   H27024162   0.064   3.642   1.263  1.9034  0.3911 -1.2428
   67MOL   H27124163   7.668   3.713   1.252  0.3919 -0.2593  0.6689
   67MOL   C27224164   7.415   3.733   1.025  0.0322  1.2780 -0.1055
   67MOL   C27324165   7.284   3.651   0.987  0.0670 -0.1734 -0.0014
   67MOL   C27424166   7.303   3.501   1.017 -0.1050  0.7642 -0.0992
   67MOL   C27524167   7.170   3.423   1.009 -0.3673 -0.1873  0.8725
   67MOL   C27624168   7.199   3.272   1.039  0.1128  0.1288 -0.0666
   67MOL   C27724169   7.100   3.429   0.871  0.2389 -0.2808 -0.0792
   67MOL   H27824170   7.437   3.713   1.129 -2.6333  0.2934  0.3098
   67MOL   H27924171   7.400   3.840   1.023 -0.5162  1.2306  1.1397
   67MOL   H28024172   7.267   3.670   0.881 -1.6481 -0.3044  0.2333
   67MOL   H28124173   7.340   3.484   1.118  0.5040 -0.6227 -0.5423
   67MOL   H28224174   7.383   3.472   0.948 -0.3579 -0.1418 -0.0173
   67MOL   H28324175   7.100   3.458   1.084 -1.3074  1.7260 -0.8335
   67MOL   H28424176   7.293   3.239   0.996 -0.2995 -3.1533  1.4514
   67MOL   H28524177   7.214   3.250   1.144 -0.3538  0.8444  0.1563
   67MOL   H28624178   7.120   3.203   1.008 -1.1077  1.1805  0.6312
   67MOL   H28724179   7.011   3.366   0.877  0.7324 -0.8828  1.0259
   67MOL   H28824180   7.074   3.529   0.835 -1.2746 -0.7712 -0.4047
   67MOL   H28924181   7.161   3.383   0.794  1.2105 -0.2605  0.6794
   67MOL   C29024182   7.164   3.710   1.062 -0.3991  0.6857 -0.4696
   67MOL   C29124183   7.111   3.848   1.009 -0.4014  0.1307 -0.1498
   67MOL   C29224184   7.034   3.823   0.870  0.0056 -0.7632  0.5973
   67MOL   C29324185   6.981   3.950   0.793  0.4472  0.5570 -0.0521
   67MOL   C29424186   7.081   4.058   0.759 -0.1078  0.1556 -0.0824
   67MOL   C29524187   6.914   3.905   0.660  0.4988  0.4747  0.0346
   67MOL   H29624188   7.075   3.650   1.043  0.1887 -0.7575  1.1937
   67MOL   H29724189   7.183   3.724   1.168  1.1273  2.9769 -1.0048
   67MOL   H29824190   7.195   3.914   0.991 -0.4758  0.1350 -0.4802
   67MOL   H29924191   6.954   3.750   0.884 -0.5839 -0.1110  0.6830
   67MOL   H30024192   7.099   3.777   0.796 -0.6819  1.1311 -1.2285
   67MOL   H30124193   6.911   3.999   0.861  1.4052  0.8673  0.7385
   67MOL   H30224194   7.051   4.132   0.685  1.6177  1.0078  0.0434
   67MOL   H30324195   7.180   4.022   0.730 -0.6358 -1.6700  0.2934
   67MOL   H30424196   7.104   4.120   0.846 -4.8918  1.4651  0.3454
   67MOL   H30524197   6.892   3.993   0.599 -2.5609 -0.9611 -1.0739
   67MOL   H30624198   6.818   3.856   0.679  1.2847 -1.6224 -1.2919
   67MOL   H30724199   6.974   3.838   0.598 -0.7360 -1.0125  0.4134
   67MOL   C30824200   7.019   3.913   1.111  0.3947 -0.4736 -0.8255
   67MOL   C30924201   7.068   4.053   1.149 -0.1167  0.1930 -0.8407
   67MOL   C31024202   6.955   4.137   1.212 -0.1869  0.2265  0.7767
   67MOL   C31124203   6.855   4.203   1.117  0.2017 -0.1140  0.1069
   67MOL   C31224204   6.724   4.239   1.195  0.0183  0.2471 -0.1630
   67MOL   C31324205   6.909   4.326   1.042 -0.2053  0.8715 -0.2156
   67MOL   H31424206   6.915   3.916   1.078  0.5873  0.1533 -1.3912
   67MOL   H31524207   7.019   3.857   1.204 -0.6255  1.8953  0.6166
   67MOL   H31624208   7.088   4.098   1.052 -0.6243 -1.6692 -1.8414
   67MOL   H31724209   6.990   4.205   1.290 -1.3251  1.2195  0.4441
   67MOL   H31824210   6.910   4.061   1.276  0.6168 -1.0461 -0.1578
   67MOL   H31924211   6.831   4.126   1.043 -0.7774  2.5015 -2.4041
   67MOL   H32024212   6.667   4.321   1.151  0.6344  1.4887  1.3296
   67MOL   H32124213   6.738   4.262   1.300 -0.8305  0.4571 -0.0914
   67MOL   H32224214   6.650   4.159   1.191 -1.0903  1.0670  2.8874
   67MOL   H32324215   7.006   4.317   0.995  0.5690  1.6431  1.2198
   67MOL   H32424216   6.827   4.363   0.980 -1.1925  0.0448  0.5618
   67MOL   H32524217   6.928   4.399   1.121 -0.9120 -1.3946  2.1450
   67MOL   C32624218   7.189   4.043   1.247  0.7782  0.4098  0.1980
   67MOL   C32724219   7.278   4.171   1.235 -0.6558 -0.2930  0.1127
   67MOL   C32824220   7.371   4.148   1.118  0.0709 -0.3879 -0.0841
   67MOL   C32924221   7.455   4.254   1.053  0.7568  0.0783  0.1354
   67MOL   C33024222   7.408   4.397   1.083 -0.0492 -0.2957 -0.1931
   67MOL   C33124223   7.607   4.244   1.072  0.5816  0.1223  0.1855
   67MOL   H33224224   7.250   3.956   1.225 -1.0138 -0.5325 -1.1580
   67MOL   H33324225   7.152   4.015   1.345 -1.8165 -3.4673 -1.7451
   67MOL   H33424226   7.229   4.266   1.215  0.5559  0.2232 -0.4365
   67MOL   H33524227   7.432   4.060   1.137  0.6164  0.3506  1.6548
   67MOL   H33624228   7.307   4.116   1.035  0.2257 -0.2721 -0.2499
   67MOL   H33724229   7.445   4.236   0.946  2.3834 -0.1138 -0.0007
   67MOL   H33824230   7.436   4.438   1.180  0.6200  1.2570 -1.0111
   67MOL   H33924231   7.301   4.399   1.059 -0.2825  1.3772  0.8705
   67MOL   H34024232   7.454   4.469   1.015 -1.9414  1.2390  0.0924
   67MOL   H34124233   7.648   4.325   1.012 -1.3294 -0.1606 -1.5442
   67MOL   H34224234   7.632   4.237   1.178 -1.3707 -0.2601  0.6288
   67MOL   H34324235   7.633   4.145   1.033 -0.7830  0.1779 -0.8874
   67MOL   C34424236   7.347   4.197   1.374  0.0972 -0.4559 -0.0364
   67MOL   C34524237   7.272   4.286   1.471  0.0380 -0.0024 -0.5415
   67MOL   C34624238   7.361   4.303   1.593 -0.0192  0.1604 -0.0679
   67MOL   C34724239   7.308   4.400   1.698  0.4197  0.1891  0.2860
   67MOL   C34824240   7.271   4.542   1.648 -0.5112 -0.1145 -0.3687
   67MOL   C34924241   7.404   4.405   1.817 -0.1468  0.3426 -0.1459
   67MOL   H35024242   7.442   4.240   1.344  0.2499 -1.0976 -0.4883
   67MOL   H35124243   7.368   4.103   1.425  1.8649  0.8827  1.7958
   67MOL   H35224244   7.179   4.238   1.502  0.5339 -0.5601  0.1204
   67MOL   H35324245   7.384   4.205   1.635 -0.6984  0.0702  0.0957
   67MOL   H35424246   7.447   4.349   1.545 -0.2662 -0.1265 -0.7981
   67MOL   H35524247   7.220   4.351   1.739  1.3211 -1.4294  0.3703
   67MOL   H35624248   7.363   4.585   1.609 -1.8257  0.2130 -3.1603
   67MOL   H35724249   7.187   4.536   1.579  0.3868  0.5017 -1.5386
   67MOL   H35824250   7.247   4.613   1.728 -0.4473 -0.2554 -0.2233
   67MOL   H35924251   7.370   4.460   1.904  0.9355  3.1215 -1.3935
   67MOL   H36024252   7.507   4.436   1.796  0.3517 -0.4958  1.0093
   67MOL   H36124253   7.432   4.305   1.848  0.8080  0.7520  0.3413
   67MOL   H36224254   7.244   4.379   1.423  0.6797  0.0993 -0.7217
   68MOL     C124255   6.211   5.384   3.167  0.5209 -0.0512 -0.0881
   68MOL     C224256   6.102   5.365   3.056  0.5103  0.0828 -0.1880
   68MOL     C324257   5.980   5.465   3.083  0.5995  0.1150 -0.4086
   68MOL     C424258   5.990   5.610   3.028  0.7671 -0.1547 -0.0643
   68MOL     C524259   5.885   5.701   3.093 -0.0323 -0.1405  0.0727
   68MOL     C624260   5.961   5.607   2.875  0.3323 -0.0573  0.1787
   68MOL     H724261   6.184   5.332   3.259 -1.2232  0.6793 -0.1749
   68MOL     H824262   6.304   5.344   3.127  0.4727 -2.3298  1.9673
   68MOL     H924263   6.146   5.396   2.961  0.8789 -1.7800 -0.6535
   68MOL    H1024264   5.893   5.412   3.043  0.1591 -1.0988  2.0473
   68MOL    H1124265   5.960   5.474   3.190 -3.2318  0.8986 -1.1148
   68MOL    H1224266   6.086   5.660   3.045  1.1447 -0.9493  0.1545
   68MOL    H1324267   5.785   5.666   3.066  0.8267 -2.3414 -0.4236
   68MOL    H1424268   5.890   5.703   3.202 -1.8871 -1.2160  0.2076
   68MOL    H1524269   5.901   5.805   3.067 -1.4805  0.0941  0.0601
   68MOL    H1624270   5.991   5.703   2.833  1.1060 -0.6003 -0.5393
   68MOL    H1724271   5.856   5.589   2.854  0.6710  1.6456 -3.2190
   68MOL    H1824272   6.005   5.520   2.826  1.7671  0.3933  0.6437
   68MOL    H1924273   6.238   5.488   3.182 -0.7063 -0.0476  2.4172
   68MOL    C2024274   6.063   5.214   3.026  0.3949  0.0401 -0.2622
   68MOL    C2124275   6.026   5.178   2.883  0.3655  0.0631  0.1837
   68MOL    C2224276   6.155   5.176   2.792 -0.5011 -0.2575 -0.6768
   68MOL    C2324277   6.116   5.184   2.644  0.7278  0.2691  1.0892
   68MOL    C2424278   6.044   5.313   2.603  0.2563 -0.2465  0.2998
   68MOL    C2524279   6.237   5.161   2.550  0.4281  0.0430  0.1242
   68MOL    H2624280   6.145   5.145   3.050 -1.4473 -2.4326 -0.9510
   68MOL    H2724281   5.984   5.192   3.097  2.3267 -0.2694  1.8780
   68MOL    H2824282   5.961   5.258   2.849  1.3716  1.4445  1.4230
   68MOL    H2924283   6.210   5.083   2.807  0.2152  0.3234  0.3813
   68MOL    H3024284   6.216   5.263   2.819 -2.0135  2.1056 -4.5094
   68MOL    H3124285   6.046   5.104   2.621  1.0606 -0.0259  1.0776
   68MOL    H3224286   6.034   5.339   2.497 -2.4200  2.1082  1.0717
   68MOL    H3324287   6.105   5.397   2.635  0.6141 -0.3842 -0.0252
   68MOL    H3424288   5.947   5.336   2.647 -0.0604 -1.9632  0.5624
   68MOL    H3524289   6.319   5.232   2.558  2.1105 -2.0763  2.5839
   68MOL    H3624290   6.276   5.059   2.561  0.4516 -0.4479 -3.7413
   68MOL    H3724291   6.201   5.154   2.447  0.0287  1.5095  0.1639
   68MOL    C3824292   5.957   5.041   2.879 -0.8775  0.4236  0.8882
   68MOL    C3924293   5.812   5.026   2.919 -0.0016 -0.0532 -0.0567
   68MOL    C4024294   5.766   4.878   2.932  0.6704 -0.3282  0.2511
   68MOL    C4124295   5.823   4.795   3.048  0.0699 -0.0651  0.0307
   68MOL    C4224296   5.794   4.646   3.027 -0.0136  0.4057 -0.0500
   68MOL    C4324297   5.766   4.852   3.180 -1.0469 -0.0454 -0.0011
   68MOL    H4424298   6.018   4.987   2.951  0.0594 -2.0088 -1.6409
   68MOL    H4524299   5.971   4.976   2.793  0.2024  1.5295  0.2054
   68MOL    H4624300   5.801   5.083   3.012  3.8709  2.1402 -0.8023
   68MOL    H4724301   5.793   4.824   2.841 -0.8879 -0.2541 -0.2601
   68MOL    H4824302   5.658   4.882   2.947  0.3985  1.2166 -1.8681
   68MOL    H4924303   5.931   4.803   3.062 -0.1075 -0.0570  1.4118
   68MOL    H5024304   5.869   4.597   2.964  0.1433 -0.8551  1.0790
   68MOL    H5124305   5.807   4.580   3.112  1.7457  0.2335 -0.4346
   68MOL    H5224306   5.692   4.627   2.994 -0.1959  0.4240  0.5044
   68MOL    H5324307   5.804   4.955   3.182 -2.5757  0.5213  0.5026
   68MOL    H5424308   5.800   4.791   3.263 -2.8702 -0.2880  0.5733
   68MOL    H5524309   5.657   4.855   3.186 -1.3630 -2.7822 -3.2660
   68MOL    C5624310   5.725   5.094   2.814  0.1668  0.0070 -0.3926
   68MOL    C5724311   5.588   5.151   2.858 -0.2493 -0.5821 -0.2697
   68MOL    C5824312   5.504   5.169   2.733 -0.0628  0.2066  0.4120
   68MOL    C5924313   5.400   5.060   2.703 -0.1187 -0.0340 -0.3967
   68MOL    C6024314   5.459   4.921   2.685  0.6600  0.0463 -0.2101
   68MOL    C6124315   5.308   5.083   2.587  0.6070  0.5245 -0.5535
   68MOL    H6224316   5.703   5.007   2.751  0.8357 -0.3493 -0.1437
   68MOL    H6324317   5.778   5.163   2.748 -0.3792  1.5527  0.7644
   68MOL    H6424318   5.539   5.072   2.915 -0.2149 -1.2952 -1.2203
   68MOL    H6524319   5.457   5.267   2.721  2.3527  1.2299 -1.0404
   68MOL    H6624320   5.570   5.178   2.646 -1.0967  2.0798 -0.2131
   68MOL    H6724321   5.332   5.064   2.788  1.9638  0.3444  1.3255
   68MOL    H6824322   5.378   4.857   2.651  1.2255  0.0411 -1.5903
   68MOL    H6924323   5.509   4.880   2.774  1.4002 -0.1804 -0.7255
   68MOL    H7024324   5.527   4.924   2.600  0.1137  2.2718 -0.5758
   68MOL    H7124325   5.242   5.169   2.593 -0.5600 -0.3447 -0.6714
   68MOL    H7224326   5.237   5.000   2.583 -0.2559  1.2867 -1.0630
   68MOL    H7324327   5.365   5.077   2.494 -1.8303  1.1881 -2.1479
   68MOL    C7424328   5.603   5.285   2.934 -0.0616 -0.2779 -0.2377
   68MOL    C7524329   5.471   5.335   3.005  0.4466 -0.7032  0.4508
   68MOL    C7624330   5.451   5.493   3.029  0.4720 -0.4365 -0.0853
   68MOL    C7724331   5.478   5.601   2.914 -0.2160  0.3276 -0.4524
   68MOL    C7824332   5.465   5.746   2.974 -0.5367 -0.4754 -0.5211
   68MOL    C7924333   5.401   5.586   2.781 -0.5937 -0.1141 -0.9847
   68MOL    H8024334   5.624   5.360   2.857 -0.5536  0.3523  0.2285
   68MOL    H8124335   5.685   5.281   3.006 -1.5862 -0.7104  1.5077
   68MOL    H8224336   5.396   5.310   2.931  2.8902 -3.3784 -1.2363
   68MOL    H8324337   5.346   5.508   3.054  0.5853  0.4190 -0.0839
   68MOL    H8424338   5.514   5.524   3.113  1.3283  0.9760 -1.2263
   68MOL    H8524339   5.582   5.583   2.889  0.1863 -2.4538  2.9917
   68MOL    H8624340   5.529   5.760   3.062  1.0994 -0.7469 -1.6420
   68MOL    H8724341   5.362   5.748   3.007  0.0257  1.2291  1.2356
   68MOL    H8824342   5.489   5.814   2.892  1.6742 -0.5718 -0.0064
   68MOL    H8924343   5.294   5.566   2.791 -0.1550 -1.2589  1.8421
   68MOL    H9024344   5.409   5.672   2.715  0.2521 -1.0129 -2.0819
   68MOL    H9124345   5.451   5.506   2.727  0.3410  1.4548 -2.4887
   68MOL    C9224346   5.441   5.255   3.143  0.4574  0.4172  0.2967
   68MOL    C9324347   5.304   5.270   3.204 -0.1123 -0.3731  0.8633
   68MOL    C9424348   5.198   5.181   3.128  0.7687 -0.0953  0.1447
   68MOL    C9524349   5.073   5.254   3.066 -0.3444 -0.2548  0.5622
   68MOL    C9624350   5.008   5.184   2.952  0.0918 -0.0623 -0.1087
   68MOL    C9724351   4.970   5.247   3.179  0.2069 -0.2387  0.1008
   68MOL    H9824352   5.483   5.155   3.137 -0.0257  0.3226 -1.8698
   68MOL    H9924353   5.514   5.304   3.207 -0.5553 -0.4683  2.1547
   68MOL   H10024354   5.271   5.374   3.196 -3.2181 -1.4072 -0.4241
   68MOL   H10124355   5.171   5.090   3.183 -1.1475  0.7675  0.6754
   68MOL   H10224356   5.235   5.132   3.038 -1.4804 -0.5001 -0.5966
   68MOL   H10324357   5.094   5.355   3.030  1.5405 -1.4895 -1.9187
   68MOL   H10424358   4.990   5.080   2.978 -0.6399 -0.2499 -1.3530
   68MOL   H10524359   5.074   5.171   2.865  1.1481  1.1054  0.5067
   68MOL   H10624360   4.914   5.222   2.913 -0.3683  0.8226  1.8077
   68MOL   H10724361   5.000   5.324   3.251 -0.1713 -0.2705  0.2902
   68MOL   H10824362   4.973   5.160   3.244  0.9848  0.8180  1.5256
   68MOL   H10924363   4.866   5.264   3.152 -0.2960 -0.2290  1.9856
   68MOL   C11024364   5.301   5.245   3.355  0.4242  0.1281  0.1605
   68MOL   C11124365   5.396   5.321   3.457  0.6435  0.0317 -0.4130
   68MOL   C11224366   5.367   5.472   3.448 -0.4939  0.3930 -0.0642
   68MOL   C11324367   5.468   5.570   3.520  0.1280 -0.3749 -0.5362
   68MOL   C11424368   5.404   5.711   3.528  0.0279  0.0734  0.9032
   68MOL   C11524369   5.608   5.560   3.466 -0.1819 -0.5565  0.5139
   68MOL   H11624370   5.319   5.139   3.368 -0.8299 -0.2005 -0.7028
   68MOL   H11724371   5.197   5.250   3.388  0.3077  2.6235 -0.4827
   68MOL   H11824372   5.499   5.321   3.420  0.7498  0.1613 -0.1151
   68MOL   H11924373   5.266   5.486   3.488  0.1768  0.1597  1.7635
   68MOL   H12024374   5.361   5.501   3.343  0.2763  0.3162 -0.1308
   68MOL   H12124375   5.473   5.540   3.625 -0.3426 -2.2986 -1.0520
   68MOL   H12224376   5.424   5.774   3.441 -1.5943  1.3343  1.4047
   68MOL   H12324377   5.447   5.770   3.610  0.2986 -0.2852  1.0160
   68MOL   H12424378   5.296   5.707   3.544 -0.0896 -0.3113  0.0465
   68MOL   H12524379   5.613   5.571   3.357  0.7165 -3.2883  0.2487
   68MOL   H12624380   5.660   5.468   3.491  2.3351  0.3942 -1.0141
   68MOL   H12724381   5.672   5.642   3.499 -0.2339 -0.5985  0.7204
   68MOL   C12824382   5.405   5.277   3.608 -0.3168  0.1918  0.5769
   68MOL   C12924383   5.448   5.130   3.624  0.1477  0.1778  0.5116
   68MOL   C13024384   5.439   5.089   3.771  0.4327  0.1022 -0.0008
   68MOL   C13124385   5.292   5.072   3.829 -0.1598 -0.1132 -0.8774
   68MOL   C13224386   5.210   4.973   3.742  0.3348 -0.2482  0.3986
   68MOL   C13324387   5.290   5.033   3.976 -0.2468 -0.5627  0.6896
   68MOL   H13424388   5.306   5.291   3.651 -1.2718 -0.2881 -1.3989
   68MOL   H13524389   5.465   5.337   3.677  0.1820  2.7929 -1.9845
   68MOL   H13624390   5.389   5.060   3.565 -0.6152 -0.4649  1.9978
   68MOL   H13724391   5.499   5.000   3.790 -0.1632 -0.0315  1.3098
   68MOL   H13824392   5.486   5.166   3.832  0.3465 -0.6439  1.0076
   68MOL   H13924393   5.241   5.168   3.838 -1.5280 -0.8414 -0.6703
   68MOL   H14024394   5.118   4.929   3.782  1.6397 -1.9513  1.6156
   68MOL   H14124395   5.289   4.900   3.722  1.7472  1.7996 -1.8215
   68MOL   H14224396   5.190   5.008   3.641  0.3023  1.9196  1.1388
   68MOL   H14324397   5.195   4.989   4.006 -2.4243  1.3651 -3.0951
   68MOL   H14424398   5.367   4.957   3.995 -0.8581 -0.8450  2.1384
   68MOL   H14524399   5.299   5.124   4.035  0.0796  0.5865 -1.1294
   68MOL   C14624400   5.596   5.108   3.584  0.3254 -0.1384 -0.2072
   68MOL   C14724401   5.662   4.961   3.576 -0.0101 -0.6092 -0.1337
   68MOL   C14824402   5.798   4.962   3.503 -0.0786 -0.0092  0.2695
   68MOL   C14924403   5.926   5.026   3.564 -0.3877 -0.2837 -1.2354
   68MOL   C15024404   5.980   4.940   3.675  0.1147 -0.3002 -0.2904
   68MOL   C15124405   6.027   5.060   3.460  0.0399 -0.1637 -0.0152
   68MOL   H15224406   5.666   5.163   3.646  1.1374 -0.5990 -0.7101
   68MOL   H15324407   5.615   5.149   3.484  1.7367  1.2069  0.5931
   68MOL   H15424408   5.673   4.922   3.677  1.0317  0.3029  0.1124
   68MOL   H15524409   5.840   4.864   3.480  2.2480  0.2560  3.1225
   68MOL   H15624410   5.780   5.007   3.405  0.4605  1.7267  0.9469
   68MOL   H15724411   5.893   5.121   3.606  0.8002 -0.5258  0.2846
   68MOL   H15824412   5.902   4.920   3.748  1.6826  0.2417  1.5781
   68MOL   H15924413   6.066   4.976   3.732  1.5546 -2.2817 -1.1665
   68MOL   H16024414   6.020   4.843   3.644  0.5492  0.1702 -1.2300
   68MOL   H16124415   6.085   5.143   3.500  0.6590  0.2634 -1.7554
   68MOL   H16224416   5.985   5.100   3.368  0.3557  1.1995  0.4196
   68MOL   H16324417   6.102   4.981   3.450 -0.2587 -0.2516 -1.7004
   68MOL   C16424418   5.565   4.853   3.515 -0.5824 -0.0792 -0.4251
   68MOL   C16524419   5.588   4.703   3.550 -0.3712  0.0441 -0.5119
   68MOL   C16624420   5.483   4.651   3.655 -0.5023  0.7043  0.8388
   68MOL   C16724421   5.514   4.514   3.718  0.1618 -0.4245  0.0015
   68MOL   C16824422   5.607   4.544   3.837  0.3309 -1.1744 -0.2367
   68MOL   C16924423   5.396   4.432   3.758  0.4829  0.4868  0.1718
   68MOL   H17024424   5.467   4.872   3.559 -0.1848 -1.2046  0.9954
   68MOL   H17124425   5.556   4.874   3.409 -2.0373  0.3974 -0.2149
   68MOL   H17224426   5.688   4.697   3.592 -0.2238 -2.0382 -1.1050
   68MOL   H17324427   5.485   4.729   3.731 -3.4214 -0.6051  2.3580
   68MOL   H17424428   5.381   4.648   3.617 -0.1480 -1.9115 -0.0374
   68MOL   H17524429   5.578   4.463   3.646  2.4549  0.3563  1.3920
   68MOL   H17624430   5.623   4.459   3.903 -0.7188 -0.8587  0.4540
   68MOL   H17724431   5.561   4.610   3.911 -3.0358  0.5796 -3.7479
   68MOL   H17824432   5.706   4.579   3.807 -0.5625  0.7878 -1.0103
   68MOL   H17924433   5.359   4.371   3.675 -1.0807  1.1924  0.3291
   68MOL   H18024434   5.319   4.492   3.806 -1.3771 -2.3091  0.7991
   68MOL   H18124435   5.418   4.360   3.837  0.4352  0.1165 -0.1497
   68MOL   C18224436   5.585   4.609   3.420 -0.0709  0.6212  0.0958
   68MOL   C18324437   5.450   4.584   3.343  0.1486  1.2981 -0.1440
   68MOL   C18424438   5.376   4.700   3.286  0.2148  0.4270 -0.4036
   68MOL   C18524439   5.233   4.669   3.225 -0.1070 -0.1779 -0.0218
   68MOL   C18624440   5.133   4.674   3.339  0.2596 -0.0671  0.1120
   68MOL   C18724441   5.213   4.773   3.119 -0.0477  0.7769  0.2348
   68MOL   H18824442   5.632   4.515   3.448 -2.1929 -0.9696 -1.4593
   68MOL   H18924443   5.662   4.642   3.351  0.6681 -2.9253 -0.9078
   68MOL   H19024444   5.384   4.547   3.421  1.9907 -1.1262  0.3314
   68MOL   H19124445   5.448   4.749   3.221  0.4416  0.2169 -0.3134
   68MOL   H19224446   5.362   4.785   3.353 -2.8819  0.4982 -1.0664
   68MOL   H19324447   5.221   4.570   3.181  0.1307 -0.1109 -0.2407
   68MOL   H19424448   5.033   4.652   3.302  0.5752 -0.1931 -0.6689
   68MOL   H19524449   5.146   4.774   3.379  2.0638 -0.2948  0.1127
   68MOL   H19624450   5.156   4.597   3.414 -3.9925 -1.8970 -0.3267
   68MOL   H19724451   5.252   4.871   3.149  1.1398  1.1277 -2.2837
   68MOL   H19824452   5.108   4.796   3.104  0.2411  0.6515 -2.1852
   68MOL   H19924453   5.262   4.743   3.026  1.4571  0.5847  1.0698
   68MOL   C20024454   5.480   4.482   3.227 -0.4359  0.5849 -0.1747
   68MOL   C20124455   5.456   4.335   3.260  0.1616 -0.1896 -0.0209
   68MOL   C20224456   5.308   4.310   3.283  0.3466 -0.2368  0.0067
   68MOL   C20324457   5.224   4.281   3.158 -0.3918 -0.2241  0.3906
   68MOL   C20424458   5.294   4.183   3.057 -0.0949  0.4791  0.2322
   68MOL   C20524459   5.084   4.233   3.193 -0.3697  0.3298  0.0145
   68MOL   H20624460   5.581   4.498   3.190 -0.6720  0.8484 -0.7019
   68MOL   H20724461   5.422   4.501   3.137 -0.8698  0.3851  0.0581
   68MOL   H20824462   5.482   4.284   3.167 -0.0349 -1.8090  0.7972
   68MOL   H20924463   5.312   4.211   3.329  0.2767 -0.1182  0.2679
   68MOL   H21024464   5.255   4.372   3.355 -0.7601 -0.5895 -0.5029
   68MOL   H21124465   5.210   4.374   3.104  0.2459  0.5671  1.5666
   68MOL   H21224466   5.223   4.138   2.987  1.2850 -0.8902 -0.3135
   68MOL   H21324467   5.349   4.102   3.105 -0.2827  1.5796  2.3719
   68MOL   H21424468   5.350   4.246   2.988  2.9557 -1.7324  0.6070
   68MOL   H21524469   5.085   4.135   3.241  1.0818  0.9129  1.2184
   68MOL   H21624470   5.017   4.227   3.107  1.0077  0.3005 -1.0743
   68MOL   H21724471   5.049   4.298   3.273 -0.2905 -0.3114  0.5770
   68MOL   C21824472   5.534   4.274   3.382  0.2434 -0.4769  0.1170
   68MOL   C21924473   5.692   4.267   3.355  0.2934 -0.1572  0.6294
   68MOL   C22024474   5.736   4.181   3.230  0.3931  0.2283  0.0326
   68MOL   C22124475   5.775   4.254   3.100  0.6526  0.0284  0.1685
   68MOL   C22224476   5.917   4.308   3.097 -0.1993  0.3670  0.0205
   68MOL   C22324477   5.764   4.148   2.983  0.0870  0.1501 -0.8014
   68MOL   H22424478   5.499   4.324   3.472  0.0958 -0.6745  0.1718
   68MOL   H22524479   5.505   4.170   3.400 -1.4553  0.2685  2.0113
   68MOL   H22624480   5.729   4.369   3.348 -0.1224 -0.0896 -0.7367
   68MOL   H22724481   5.823   4.119   3.251  0.6474  0.5390 -0.0968
   68MOL   H22824482   5.656   4.109   3.208  1.9184 -1.6929  0.6002
   68MOL   H22924483   5.709   4.339   3.085  1.3302  0.7580  1.2734
   68MOL   H23024484   5.931   4.377   3.180  0.8697  1.3190 -0.9437
   68MOL   H23124485   5.984   4.223   3.107 -0.7895 -0.5314 -3.1110
   68MOL   H23224486   5.950   4.354   3.004 -1.2237 -1.5618 -1.3394
   68MOL   H23324487   5.800   4.189   2.888 -0.5811  0.4470 -0.9299
   68MOL   H23424488   5.824   4.057   2.986  1.3716  0.9998 -0.3648
   68MOL   H23524489   5.663   4.108   2.978 -0.4181  0.6929  3.7417
   68MOL   C23624490   5.760   4.196   3.476 -0.0207 -0.0135 -0.0849
   68MOL   C23724491   5.897   4.256   3.510  0.2895 -0.6220 -0.1674
   68MOL   C23824492   6.001   4.150   3.566  0.4662  0.2143  0.0663
   68MOL   C23924493   6.024   4.017   3.486 -0.0978  0.0709  0.2472
   68MOL   C24024494   6.118   4.036   3.364 -0.0608  0.0779 -0.8039
   68MOL   C24124495   6.065   3.897   3.571 -0.2935  0.9237 -0.0101
   68MOL   H24224496   5.760   4.087   3.472  0.4391 -0.0864  1.5395
   68MOL   H24324497   5.687   4.197   3.557  0.9538 -3.5661  0.9440
   68MOL   H24424498   5.946   4.287   3.418 -0.6278 -0.5371 -0.6322
   68MOL   H24524499   5.974   4.127   3.669 -1.4045  1.3273 -0.1546
   68MOL   H24624500   6.099   4.198   3.556  0.3610  0.6458  1.0456
   68MOL   H24724501   5.933   3.978   3.441 -1.0865 -0.4975  2.6620
   68MOL   H24824502   6.095   4.129   3.313 -1.2756  0.1921 -0.0669
   68MOL   H24924503   6.092   3.961   3.289 -0.7214  0.4358 -0.9410
   68MOL   H25024504   6.220   4.032   3.401 -0.4983  3.7413  1.0022
   68MOL   H25124505   6.170   3.908   3.597  0.2425 -2.5994 -0.3514
   68MOL   H25224506   6.048   3.808   3.510  0.7491 -0.3126  1.4405
   68MOL   H25324507   6.009   3.887   3.665  0.4132  1.6218  0.4879
   68MOL   C25424508   5.890   4.376   3.598 -0.2286 -0.0184  0.1584
   68MOL   C25524509   6.017   4.470   3.595  0.2394 -0.4707 -0.4696
   68MOL   C25624510   6.014   4.561   3.467  0.2372  0.3583 -0.0728
   68MOL   C25724511   6.155   4.621   3.416  0.7493  0.4668 -1.1408
   68MOL   C25824512   6.131   4.711   3.296  0.2226  0.1460 -0.1766
   68MOL   C25924513   6.237   4.498   3.364 -0.1124 -0.1999 -0.4229
   68MOL   H26024514   5.805   4.439   3.573 -0.1340 -0.4720 -1.3554
   68MOL   H26124515   5.874   4.354   3.703 -1.6387 -2.8033 -0.6056
   68MOL   H26224516   6.098   4.400   3.579  0.4881 -0.0613 -1.0190
   68MOL   H26324517   5.950   4.642   3.502  0.9354  0.1361  1.7608
   68MOL   H26424518   5.954   4.512   3.390 -0.3388 -0.4406  0.8737
   68MOL   H26524519   6.211   4.676   3.492 -0.8255 -0.2551  0.5907
   68MOL   H26624520   6.059   4.666   3.228  1.0842 -1.8285  0.1640
   68MOL   H26724521   6.214   4.744   3.233 -0.3046  0.1782 -0.8464
   68MOL   H26824522   6.083   4.800   3.336  0.0310  0.4633 -1.1026
   68MOL   H26924523   6.192   4.454   3.274  0.0339  0.3815 -0.7790
   68MOL   H27024524   6.334   4.539   3.334 -0.6548  1.2005 -0.2948
   68MOL   H27124525   6.262   4.426   3.442 -2.2921 -0.8274 -0.2741
   68MOL   C27224526   6.044   4.555   3.723  0.1175 -0.5394 -0.1623
   68MOL   C27324527   6.140   4.503   3.831  0.3262 -0.1127  0.1584
   68MOL   C27424528   6.090   4.393   3.924  0.6752 -0.1973 -0.0385
   68MOL   C27524529   5.948   4.416   3.982  0.5829 -0.1042  0.2990
   68MOL   C27624530   5.925   4.544   4.070 -0.3261 -0.1927  1.1460
   68MOL   C27724531   5.901   4.292   4.060 -0.3083  0.9104  0.4349
   68MOL   H27824532   6.094   4.642   3.680  1.6352 -1.7945 -0.9528
   68MOL   H27924533   5.959   4.612   3.760  0.2239  0.1733 -0.9972
   68MOL   H28024534   6.146   4.589   3.897  1.7265 -0.4948  0.5655
   68MOL   H28124535   6.164   4.379   4.002 -0.4104 -1.8319  0.7174
   68MOL   H28224536   6.091   4.304   3.861 -0.1847 -1.0777  1.1644
   68MOL   H28324537   5.877   4.438   3.903  1.1723  1.5752  0.2317
   68MOL   H28424538   5.977   4.626   4.020 -0.7805 -0.3170  0.4809
   68MOL   H28524539   5.819   4.555   4.091 -0.0563 -0.8631  3.0357
   68MOL   H28624540   5.970   4.526   4.168  2.8079 -2.0456 -0.5372
   68MOL   H28724541   5.914   4.203   3.998  0.0837  0.9254  0.4914
   68MOL   H28824542   5.952   4.286   4.156 -0.8780  0.4258  0.7063
   68MOL   H28924543   5.793   4.296   4.072 -0.3554 -0.0577  0.3079
   68MOL   C29024544   6.282   4.484   3.782 -0.4148 -0.0033 -0.4363
   68MOL   C29124545   6.391   4.566   3.858 -0.2075 -0.0986 -0.7291
   68MOL   C29224546   6.415   4.504   4.003  0.4058  0.1739  0.0193
   68MOL   C29324547   6.330   4.566   4.118 -0.5387 -0.5391 -0.3543
   68MOL   C29424548   6.343   4.467   4.233 -0.3014 -0.9807  0.0400
   68MOL   C29524549   6.394   4.700   4.161 -0.0531  0.3234  0.7512
   68MOL   H29624550   6.304   4.378   3.782 -2.2560 -0.4169  1.0682
   68MOL   H29724551   6.295   4.524   3.682  2.3493 -3.1796 -1.4058
   68MOL   H29824552   6.348   4.665   3.870 -2.5693 -0.9985 -1.6314
   68MOL   H29924553   6.519   4.526   4.027  0.5703  0.4914 -0.9579
   68MOL   H30024554   6.406   4.396   3.993 -0.7678  0.2928 -0.3508
   68MOL   H30124555   6.227   4.582   4.086 -1.1798 -2.5071  0.7127
   68MOL   H30224556   6.311   4.519   4.324  1.2278 -0.1037  0.0944
   68MOL   H30324557   6.450   4.447   4.241  0.2417  1.1761 -1.2544
   68MOL   H30424558   6.290   4.373   4.221 -3.2217  0.4500  1.1674
   68MOL   H30524559   6.387   4.776   4.083  1.8587 -0.9994 -0.7561
   68MOL   H30624560   6.500   4.683   4.180  0.4479  0.4356 -1.7992
   68MOL   H30724561   6.345   4.742   4.249 -3.3243 -2.2319  0.2249
   68MOL   C30824562   6.526   4.586   3.776 -0.0715  0.6550 -0.6860
   68MOL   C30924563   6.618   4.700   3.826  0.4940  0.3816  0.0908
   68MOL   C31024564   6.765   4.648   3.855  0.5654  0.2703  0.2187
   68MOL   C31124565   6.871   4.728   3.932  0.0735  0.3864 -0.5479
   68MOL   C31224566   6.822   4.762   4.072 -0.4586 -0.2446  0.3459
   68MOL   C31324567   7.009   4.650   3.936 -0.4495 -0.2009  0.5603
   68MOL   H31424568   6.575   4.490   3.759 -3.7213 -1.2160 -1.1476
   68MOL   H31524569   6.494   4.620   3.678 -0.5261  0.0857 -0.7403
   68MOL   H31624570   6.580   4.711   3.928  0.4388  0.7106  0.0334
   68MOL   H31724571   6.805   4.613   3.760 -0.1389  1.6227 -0.5910
   68MOL   H31824572   6.738   4.576   3.933  0.7757 -0.5528 -0.4604
   68MOL   H31924573   6.896   4.818   3.876  0.7155  0.0400 -0.8237
   68MOL   H32024574   6.904   4.798   4.134  0.2631 -1.0176 -0.1546
   68MOL   H32124575   6.787   4.672   4.125  0.5751  0.4031  2.1794
   68MOL   H32224576   6.742   4.835   4.063  1.4069  1.9406  1.2090
   68MOL   H32324577   7.055   4.620   3.842 -0.1877 -2.6300  1.4329
   68MOL   H32424578   7.083   4.720   3.975 -1.8427  2.2350 -1.0454
   68MOL   H32524579   7.006   4.568   4.008  0.2664  0.5641  1.4793
   68MOL   C32624580   6.612   4.837   3.745  0.2339  0.0911 -0.1163
   68MOL   C32724581   6.479   4.907   3.741 -0.0890  0.4580  0.3841
   68MOL   C32824582   6.484   5.010   3.627  0.5792 -0.8566 -0.1344
   68MOL   C32924583   6.424   4.957   3.496 -0.2426  0.2456 -0.1183
   68MOL   C33024584   6.386   5.071   3.401 -0.4294 -0.4604 -0.0817
   68MOL   C33124585   6.503   4.852   3.423 -0.7041  0.2181  0.1112
   68MOL   H33224586   6.644   4.821   3.642  1.3022  0.1870  0.1953
   68MOL   H33324587   6.687   4.905   3.784  0.7339  0.6127 -1.9456
   68MOL   H33424588   6.399   4.836   3.724 -0.4506  1.2683 -1.4872
   68MOL   H33524589   6.417   5.093   3.648  0.6614 -1.1240  1.2861
   68MOL   H33624590   6.584   5.050   3.613  0.2122 -0.1285 -0.7103
   68MOL   H33724591   6.325   4.921   3.524 -0.0541  0.2418  0.5588
   68MOL   H33824592   6.467   5.144   3.393 -1.8505  0.9962 -1.9215
   68MOL   H33924593   6.300   5.125   3.442 -0.1157  0.2017 -0.2858
   68MOL   H34024594   6.364   5.052   3.296  3.1224 -0.6768 -0.8652
   68MOL   H34124595   6.467   4.758   3.463  0.7895 -0.3427  0.1571
   68MOL   H34224596   6.483   4.852   3.316 -2.3261  2.2878  0.3796
   68MOL   H34324597   6.611   4.854   3.438 -0.8646 -0.4985  1.4013
   68MOL   C34424598   6.456   4.976   3.879  0.6448 -0.5812  0.1383
   68MOL   C34524599   6.308   5.022   3.903 -0.2192  0.5597 -0.1190
   68MOL   C34624600   6.289   5.098   4.034 -0.1593 -0.8544 -0.2820
   68MOL   C34724601   6.160   5.180   4.032 -0.9127  0.4498  0.1071
   68MOL   C34824602   6.176   5.301   3.943  0.2416  0.2916 -0.0652
   68MOL   C34924603   6.096   5.216   4.168  0.1630  0.5873  0.3781
   68MOL   H35024604   6.516   5.066   3.889  1.1874 -0.4421 -3.6656
   68MOL   H35124605   6.497   4.920   3.963 -0.1889 -1.6783 -0.1696
   68MOL   H35224606   6.249   4.931   3.911  2.7628 -1.7730 -2.9272
   68MOL   H35324607   6.277   5.018   4.107 -2.2952 -0.2873  0.0067
   68MOL   H35424608   6.373   5.162   4.060 -0.2791 -0.9427  0.3394
   68MOL   H35524609   6.082   5.128   3.977 -0.2048  0.6969 -1.1491
   68MOL   H35624610   6.233   5.281   3.852 -0.1592 -0.4291 -0.1595
   68MOL   H35724611   6.084   5.355   3.919  0.4051  0.8560  0.5623
   68MOL   H35824612   6.233   5.381   3.991  3.0710 -0.7682 -1.5731
   68MOL   H35924613   6.003   5.270   4.152  0.2286  0.0170 -2.0739
   68MOL   H36024614   6.160   5.279   4.229  0.7808  2.3417 -2.0087
   68MOL   H36124615   6.082   5.126   4.228 -0.4781  0.1280 -0.4604
   68MOL   H36224616   6.265   5.069   3.814 -0.1920 -1.1430 -1.0436
   69MOL     C124617   5.883   2.089   6.812 -0.7084  0.6186  0.4401
   69MOL     C224618   5.893   1.956   6.882  0.4530 -0.1457  0.3318
   69MOL     C324619   5.749   1.905   6.912  0.4563 -0.0142  0.5957
   69MOL     C424620   5.689   1.847   6.778  0.7454 -0.1973 -0.3684
   69MOL     C524621   5.533   1.851   6.780 -0.5134 -0.4856  0.3241
   69MOL     C624622   5.737   1.712   6.748 -0.0903  0.0209  0.3696
   69MOL     H724623   5.828   2.154   6.880 -1.3342  0.0937  0.4356
   69MOL     H824624   5.983   2.116   6.779 -1.1863  1.2007 -0.5802
   69MOL     H924625   5.959   1.902   6.815 -0.3968  0.7209 -1.2183
   69MOL    H1024626   5.750   1.823   6.984 -2.2713 -0.6637 -0.0543
   69MOL    H1124627   5.681   1.981   6.948  0.3807  0.3028 -0.2019
   69MOL    H1224628   5.722   1.908   6.694  0.1445  1.0941  0.3208
   69MOL    H1324629   5.477   1.835   6.688 -1.2338 -0.8638  0.8279
   69MOL    H1424630   5.495   1.769   6.841  1.4966 -1.4149  0.3839
   69MOL    H1524631   5.491   1.942   6.820  1.3608 -0.9093  3.3970
   69MOL    H1624632   5.846   1.706   6.748 -0.1551 -1.5368  0.6585
   69MOL    H1724633   5.701   1.673   6.652 -0.6759  1.2133  0.0980
   69MOL    H1824634   5.700   1.644   6.825  1.2354 -1.3725 -0.2061
   69MOL    H1924635   5.829   2.086   6.717 -1.3725 -1.3879  0.8651
   69MOL    C2024636   5.972   1.969   7.015 -0.6417  0.8065  1.0019
   69MOL    C2124637   6.055   1.837   7.044 -0.5386 -0.1363 -0.0597
   69MOL    C2224638   6.132   1.855   7.176 -0.3095 -0.3760  0.3283
   69MOL    C2324639   6.258   1.943   7.165 -0.1173  0.7303 -0.6160
   69MOL    C2424640   6.302   1.971   7.306  0.8420  0.2221  0.1978
   69MOL    C2524641   6.360   1.873   7.081 -0.1461 -0.2196  0.6799
   69MOL    H2624642   6.046   2.048   7.004 -1.0853  0.9552 -1.1732
   69MOL    H2724643   5.908   1.990   7.100 -1.3570 -0.9782  0.9317
   69MOL    H2824644   6.128   1.828   6.963  1.5013  0.7013  1.6529
   69MOL    H2924645   6.170   1.759   7.213  3.6999  0.3593 -1.6359
   69MOL    H3024646   6.058   1.896   7.244  0.2040  1.2906 -0.0978
   69MOL    H3124647   6.239   2.042   7.125 -1.2561  0.3238 -1.1086
   69MOL    H3224648   6.332   2.076   7.310 -0.2277  0.5260  0.3181
   69MOL    H3324649   6.383   1.909   7.346  0.5033 -0.1654  0.2812
   69MOL    H3424650   6.222   1.956   7.378 -0.1239 -1.8663 -1.2609
   69MOL    H3524651   6.325   1.861   6.979 -3.2366  0.9506  1.5589
   69MOL    H3624652   6.437   1.948   7.062 -2.3216  2.0235  0.4764
   69MOL    H3724653   6.403   1.786   7.130 -0.7970 -0.8632  0.1124
   69MOL    C3824654   5.976   1.705   7.033 -0.3113 -0.1922  0.7419
   69MOL    C3924655   6.073   1.582   7.021 -0.1552  0.1540  0.1682
   69MOL    C4024656   6.073   1.523   6.878  0.1979  0.5320  0.0817
   69MOL    C4124657   6.141   1.601   6.766 -0.2457 -0.1533 -0.7335
   69MOL    C4224658   6.114   1.541   6.630  0.7631  0.3060  0.4807
   69MOL    C4324659   6.290   1.605   6.796 -0.1370  0.5037 -0.2481
   69MOL    H4424660   5.923   1.706   6.938 -0.4066  1.6449  0.8068
   69MOL    H4524661   5.902   1.696   7.113 -1.0017  0.1726  0.1411
   69MOL    H4624662   6.177   1.599   7.046  0.2934 -0.7708 -1.0108
   69MOL    H4724663   5.967   1.511   6.854  0.3577  0.4806 -0.6336
   69MOL    H4824664   6.115   1.422   6.878 -1.9277 -0.4430 -2.6291
   69MOL    H4924665   6.106   1.704   6.761 -1.6893 -0.5149  1.2252
   69MOL    H5024666   6.009   1.514   6.629  0.6579  0.6828 -1.8171
   69MOL    H5124667   6.143   1.597   6.542 -0.7660 -1.7956 -1.4089
   69MOL    H5224668   6.156   1.442   6.613  0.3770  0.3771 -0.9589
   69MOL    H5324669   6.347   1.673   6.733 -0.4834  2.1282  1.1347
   69MOL    H5424670   6.336   1.509   6.775  0.0967  0.4533  0.4696
   69MOL    H5524671   6.319   1.633   6.898  2.7588 -0.1350 -0.8640
   69MOL    C5624672   6.023   1.478   7.119  0.2272 -0.3629 -0.4113
   69MOL    C5724673   6.066   1.489   7.271  0.0755 -0.2232  0.4167
   69MOL    C5824674   6.211   1.435   7.296 -0.1835  1.0364 -0.0292
   69MOL    C5924675   6.271   1.465   7.428 -0.3380  0.3734  0.2138
   69MOL    C6024676   6.298   1.616   7.448  0.0267 -0.3470  0.1202
   69MOL    C6124677   6.410   1.393   7.440 -0.6499 -0.0060  0.1245
   69MOL    H6224678   6.064   1.377   7.109  1.6905  0.2763 -1.0233
   69MOL    H6324679   5.916   1.467   7.104 -0.0438  1.6290 -0.0138
   69MOL    H6424680   6.057   1.595   7.294 -0.0310  0.1998 -1.4770
   69MOL    H6524681   6.193   1.327   7.301  1.8571  0.7630  2.3964
   69MOL    H6624682   6.288   1.453   7.221  0.6254 -0.1876  0.4762
   69MOL    H6724683   6.202   1.431   7.504 -0.9854  4.5168  1.6384
   69MOL    H6824684   6.203   1.669   7.453  0.9722  1.2902  1.5146
   69MOL    H6924685   6.357   1.661   7.367  0.6819  2.2432  1.9549
   69MOL    H7024686   6.345   1.645   7.542  1.1057 -0.3231 -0.4256
   69MOL    H7124687   6.435   1.406   7.546 -1.5341  0.8404  0.2386
   69MOL    H7224688   6.485   1.442   7.378 -0.6880  0.9217  0.7994
   69MOL    H7324689   6.402   1.286   7.425  0.4325 -0.3603  1.9071
   69MOL    C7424690   5.958   1.413   7.348 -0.1253  0.5185  0.3921
   69MOL    C7524691   5.834   1.492   7.386 -0.1701 -0.1823  0.1552
   69MOL    C7624692   5.840   1.537   7.534  0.1553 -0.1972 -0.2619
   69MOL    C7724693   5.956   1.623   7.586  0.5910  0.4951  0.5874
   69MOL    C7824694   5.945   1.631   7.737  0.6317  0.0573  0.5944
   69MOL    C7924695   5.960   1.757   7.517  0.6156  0.5188  0.1132
   69MOL    H8024696   5.985   1.352   7.434 -0.1846 -0.3728 -0.2156
   69MOL    H8124697   5.935   1.327   7.285 -0.5511 -0.4288  1.8303
   69MOL    H8224698   5.833   1.581   7.323 -0.9673 -0.9589 -0.9406
   69MOL    H8324699   5.749   1.584   7.571 -0.5331 -3.2481  2.1755
   69MOL    H8424700   5.828   1.449   7.597  0.5128  0.2261  0.4046
   69MOL    H8524701   6.042   1.559   7.567  0.7073  1.1776 -1.2405
   69MOL    H8624702   5.846   1.670   0.009 -0.0713 -0.4386 -1.4497
   69MOL    H8724703   6.019   1.703   0.021  0.8176  0.9379 -1.4441
   69MOL    H8824704   5.946   1.533   0.032  1.1244  0.4773  1.4914
   69MOL    H8924705   6.051   1.804   7.555  0.6228 -0.8147  1.7771
   69MOL    H9024706   5.954   1.748   7.409  0.8187  3.9658 -0.2601
   69MOL    H9124707   5.869   1.813   7.541  1.0716  0.3735  2.3260
   69MOL    C9224708   5.706   1.406   7.362  0.1561  0.3500 -0.3445
   69MOL    C9324709   5.567   1.460   7.387 -0.5416  0.2919  0.4512
   69MOL    C9424710   5.539   1.561   7.271  0.5904 -1.0048  0.3158
   69MOL    C9524711   5.400   1.594   7.229  0.4465 -0.2847  0.5747
   69MOL    C9624712   5.311   1.657   7.334 -0.3392 -0.3878  0.6869
   69MOL    C9724713   5.391   1.678   7.103  0.2597 -0.7085  0.0739
   69MOL    H9824714   5.709   1.366   7.261  1.4874 -0.9405  0.1813
   69MOL    H9924715   5.716   1.322   7.431 -0.9829  0.4295 -0.0853
   69MOL   H10024716   5.572   1.536   7.465  0.0362  1.2028 -0.4545
   69MOL   H10124717   5.592   1.528   7.182  0.3187  0.8961 -0.5726
   69MOL   H10224718   5.582   1.656   7.303 -0.5067 -0.0914 -0.8781
   69MOL   H10324719   5.344   1.507   7.194 -0.7478  0.4798  0.5558
   69MOL   H10424720   5.346   1.757   7.361 -1.8438  0.2481  0.3307
   69MOL   H10524721   5.327   1.609   7.431  1.1169 -1.0107  0.1417
   69MOL   H10624722   5.205   1.663   7.310 -0.4170 -1.3129  0.7827
   69MOL   H10724723   5.410   1.632   7.006 -0.6594 -2.0187  0.4977
   69MOL   H10824724   5.461   1.761   7.097  0.2475 -0.6386  0.8534
   69MOL   H10924725   5.297   1.734   7.103 -0.0748 -1.2343 -2.5098
   69MOL   C11024726   5.462   1.348   7.395  0.4410 -0.0386  0.2347
   69MOL   C11124727   5.476   1.274   7.532 -0.3130 -0.6153  0.1017
   69MOL   C11224728   5.373   1.339   7.634  0.5244 -0.1552 -0.2016
   69MOL   C11324729   5.413   1.471   7.702 -0.1972 -0.9953 -0.2731
   69MOL   C11424730   5.543   1.450   0.035  0.5388 -0.0732 -0.1249
   69MOL   C11524731   5.300   1.512   0.049  0.0493  0.4254 -0.1657
   69MOL   H11624732   5.489   1.294   7.304  4.7190  1.0330  0.7669
   69MOL   H11724733   5.366   1.397   7.379  0.5838  0.2440  0.2424
   69MOL   H11824734   5.579   1.287   7.566  0.8107 -1.4724 -2.8051
   69MOL   H11924735   5.351   1.261   7.708  0.8635  1.0099  1.1404
   69MOL   H12024736   5.280   1.372   7.587 -1.5521 -2.5198  2.0947
   69MOL   H12124737   5.421   1.546   7.623  1.3214 -1.4530 -0.5743
   69MOL   H12224738   5.562   1.546   0.083  1.4700 -0.4395  0.2325
   69MOL   H12324739   5.629   1.437   7.721 -0.8790  0.8356 -2.2222
   69MOL   H12424740   5.533   1.374   0.112 -2.8837  0.5522  0.1374
   69MOL   H12524741   5.298   1.436   0.127 -0.9036 -0.4619 -1.0319
   69MOL   H12624742   5.200   1.521   0.005  0.7531  2.4590 -1.4442
   69MOL   H12724743   5.328   1.596   0.113 -1.4287  0.3424  0.6040
   69MOL   C12824744   5.467   1.116   7.519 -0.5900  0.0256 -0.4713
   69MOL   C12924745   5.529   1.037   7.640 -0.5732  0.8059 -0.1447
   69MOL   C13024746   5.681   1.020   7.618  0.5173 -0.4737 -0.5335
   69MOL   C13124747   5.761   0.965   7.741  0.0542 -0.6784 -0.8390
   69MOL   C13224748   5.900   0.928   7.690  0.0115  0.1997  1.3782
   69MOL   C13324749   5.771   1.069   0.104  0.2002  0.0571 -0.3510
   69MOL   H13424750   5.509   1.085   7.423 -1.0604  0.6670 -0.8819
   69MOL   H13524751   5.361   1.092   7.517 -0.5514 -0.2593  0.6805
   69MOL   H13624752   5.505   1.083   7.736 -1.8702  0.6425 -0.3694
   69MOL   H13724753   5.708   0.960   7.532 -1.0295 -1.1323 -0.5901
   69MOL   H13824754   5.726   1.117   7.596 -0.7691  0.1126 -0.6357
   69MOL   H13924755   5.718   0.878   0.038 -1.3881  0.8449  0.6537
   69MOL   H14024756   5.976   0.912   0.013 -0.7855 -0.8637  1.9681
   69MOL   H14124757   5.948   1.000   7.624  0.2800  0.6915  2.1059
   69MOL   H14224758   5.896   0.837   7.631 -2.5470 -0.6288  2.7616
   69MOL   H14324759   5.771   1.169   0.061  2.7205  0.4933  0.5441
   69MOL   H14424760   5.690   1.053   0.175 -0.3775  0.5056 -0.9073
   69MOL   H14524761   5.867   1.070   0.157 -1.3245 -2.3378  2.5904
   69MOL   C14624762   5.470   0.890   7.656  0.1143  0.1016  0.7009
   69MOL   C14724763   5.316   0.878   7.689  0.5711  0.5639  0.5887
   69MOL   C14824764   5.287   0.928   0.085  0.1001  0.3271 -0.5622
   69MOL   C14924765   5.175   1.034   0.102  0.5314  0.0227 -0.0140
   69MOL   C15024766   5.046   0.985   0.053  0.1658 -0.2571  0.2263
   69MOL   C15124767   5.177   1.113   0.238  0.4565 -0.1522  0.8302
   69MOL   H15224768   5.516   0.825   7.731  2.5971  0.6931 -0.2608
   69MOL   H15324769   5.487   0.839   7.561 -2.1588 -2.6338  1.6619
   69MOL   H15424770   5.270   0.953   7.625  0.7773 -0.1139 -0.3679
   69MOL   H15524771   5.262   0.845   0.152 -0.7129  1.0889  0.1083
   69MOL   H15624772   5.380   0.962   0.131 -1.0618  0.5340  1.7455
   69MOL   H15724773   5.202   1.116   0.035  1.5103 -1.7338 -1.8308
   69MOL   H15824774   4.972   1.063   0.074 -0.8529 -1.2753  0.4772
   69MOL   H15924775   5.012   0.902   0.115  2.1471 -2.4257 -1.5313
   69MOL   H16024776   5.037   0.958   7.700  0.1372 -0.3534  0.2531
   69MOL   H16124777   5.123   1.205   0.218 -1.6795 -1.3398  0.9612
   69MOL   H16224778   5.279   1.141   0.265  1.4954 -0.2532 -2.6943
   69MOL   H16324779   5.129   1.055   0.317 -3.8745  1.0167 -0.7795
   69MOL   C16424780   5.251   0.734   7.671  0.1529  0.0378  0.1023
   69MOL   C16524781   5.251   0.677   7.527  0.4112 -0.7262 -0.2599
   69MOL   C16624782   5.228   0.518   7.535  0.2509  0.1403 -0.1505
   69MOL   C16724783   5.358   0.431   7.553  0.0386  0.2328 -0.5757
   69MOL   C16824784   5.322   0.287   7.556  0.2187  0.5155  0.4879
   69MOL   C16924785   5.469   0.466   7.453  0.4297 -0.1745  0.6696
   69MOL   H17024786   5.307   0.666   7.735  1.8028  0.8645 -0.4241
   69MOL   H17124787   5.150   0.719   7.709  1.0424 -2.2244  1.7253
   69MOL   H17224788   5.350   0.681   7.481  0.2163  0.5185 -0.5577
   69MOL   H17324789   5.149   0.496   7.607 -0.7831  1.9089 -0.7284
   69MOL   H17424790   5.172   0.481   7.449 -1.3949  0.2172  0.8710
   69MOL   H17524791   5.399   0.458   7.651  1.1114  4.7229 -2.1384
   69MOL   H17624792   5.276   0.245   7.467  0.1030 -2.0050  1.6854
   69MOL   H17724793   5.251   0.275   7.637 -0.1332 -0.9908 -0.0135
   69MOL   H17824794   5.404   0.220   7.584  0.9911  1.4540  0.5141
   69MOL   H17924795   5.413   0.475   7.359  0.3464 -0.4420  0.6928
   69MOL   H18024796   5.543   0.388   7.437 -0.9179 -0.5336 -4.8682
   69MOL   H18124797   5.513   0.562   7.480  1.4509 -1.1319  2.5328
   69MOL   C18224798   5.144   0.737   7.435 -0.6367  0.5124  0.1576
   69MOL   C18324799   5.194   0.770   7.289 -0.5110  0.4017 -0.0324
   69MOL   C18424800   5.071   0.765   7.193  0.2418  0.2934 -0.6095
   69MOL   C18524801   5.031   0.623   7.158  0.1980  0.0100  0.2642
   69MOL   C18624802   4.896   0.617   7.075  0.6299 -0.2867  0.5330
   69MOL   C18724803   5.142   0.556   7.067 -0.4068 -0.4718 -0.0133
   69MOL   H18824804   5.108   0.831   7.475 -2.1233  0.3394 -0.7400
   69MOL   H18924805   5.054   0.677   7.420 -2.2331  3.4289 -2.4845
   69MOL   H19024806   5.261   0.690   7.261 -0.6105  0.7878 -1.4259
   69MOL   H19124807   5.110   0.818   7.106 -1.6261  1.4211 -0.7867
   69MOL   H19224808   4.983   0.818   7.228 -1.2905 -0.4570 -3.1756
   69MOL   H19324809   5.026   0.561   7.248 -2.8078  1.4846  1.1668
   69MOL   H19424810   4.894   0.688   6.992  0.2592  1.8257  2.2921
   69MOL   H19524811   4.806   0.626   7.135 -0.4693 -1.0911 -0.9674
   69MOL   H19624812   4.880   0.516   7.037 -0.3249 -2.0548  5.3454
   69MOL   H19724813   5.243   0.571   7.106 -0.6661  1.2740  0.0191
   69MOL   H19824814   5.152   0.597   6.966 -1.6507 -0.8392 -0.2964
   69MOL   H19924815   5.136   0.448   7.052  0.7054 -0.4963 -0.3508
   69MOL   C20024816   5.272   0.903   7.285 -0.7086 -0.1974  0.0914
   69MOL   C20124817   5.392   0.916   7.180 -0.6235  0.3281  0.0059
   69MOL   C20224818   5.349   0.907   7.034 -0.5328 -0.0850 -0.0664
   69MOL   C20324819   5.256   1.013   6.985  0.8791  0.0818  0.3773
   69MOL   C20424820   5.327   1.144   6.980  0.2506  0.9234 -0.4871
   69MOL   C20524821   5.199   0.987   6.849 -0.0477  0.0907 -0.4422
   69MOL   H20624822   5.311   0.918   7.385 -0.2634 -0.5836 -0.0222
   69MOL   H20724823   5.202   0.985   7.267 -0.5785 -0.6511 -2.7377
   69MOL   H20824824   5.434   1.014   7.203 -0.8670  0.7801 -1.4432
   69MOL   H20924825   5.431   0.921   6.964 -0.2529  1.6156  0.5812
   69MOL   H21024826   5.310   0.809   7.007  1.1620 -0.5119 -1.0168
   69MOL   H21124827   5.173   1.036   7.053  1.1006  0.6172  0.4696
   69MOL   H21224828   5.387   1.167   7.068  0.0266 -0.4968  0.0463
   69MOL   H21324829   5.259   1.227   6.964  0.1448  0.8515 -0.4076
   69MOL   H21424830   5.398   1.154   6.897  4.8863 -2.7460  2.7490
   69MOL   H21524831   5.135   0.899   6.842 -1.1384  0.8168  0.1444
   69MOL   H21624832   5.276   0.975   6.773  0.6830  1.2259  0.0934
   69MOL   H21724833   5.136   1.073   6.825  1.1003  2.0434  3.0324
   69MOL   C21824834   5.507   0.818   7.227  0.5499  0.4119 -0.2489
   69MOL   C21924835   5.650   0.833   7.167  1.0318 -0.0802  0.1362
   69MOL   C22024836   5.733   0.729   7.244 -0.2908 -0.0203 -0.5875
   69MOL   C22124837   5.787   0.619   7.151 -0.5036 -0.4151  0.2267
   69MOL   C22224838   5.886   0.535   7.227  0.8027 -0.1879 -0.4784
   69MOL   C22324839   5.681   0.527   7.093  0.0355 -0.0468  1.3702
   69MOL   H22424840   5.523   0.834   7.334 -1.1930 -1.5614  0.3487
   69MOL   H22524841   5.465   0.719   7.209  0.9353 -0.4326  3.1149
   69MOL   H22624842   5.658   0.811   7.060  1.1209  2.6426 -0.4616
   69MOL   H22724843   5.819   0.776   7.291 -1.0012  2.2603 -1.4909
   69MOL   H22824844   5.681   0.677   7.325  2.9555 -0.6997  1.1222
   69MOL   H22924845   5.827   0.672   7.064 -2.9402  0.3182 -0.4816
   69MOL   H23024846   5.977   0.595   7.240 -0.7549  2.7123 -2.3265
   69MOL   H23124847   5.843   0.517   7.325  0.3955  0.1518 -0.5962
   69MOL   H23224848   5.913   0.441   7.179 -1.2836 -0.8796 -0.3368
   69MOL   H23324849   5.723   0.454   7.023 -0.4954 -0.2325  1.2459
   69MOL   H23424850   5.631   0.479   7.176  0.2305 -0.6048  1.1677
   69MOL   H23524851   5.600   0.584   7.047 -1.2930 -2.7780  0.1789
   69MOL   C23624852   5.703   0.982   7.187  0.2642  0.1360 -0.6486
   69MOL   C23724853   5.848   1.003   7.156  0.2955 -0.0653 -0.0670
   69MOL   C23824854   5.932   1.030   7.281 -0.0047  0.6804  0.2267
   69MOL   C23924855   6.084   1.016   7.275  0.0405 -0.3217 -0.2278
   69MOL   C24024856   6.146   1.061   7.405 -0.3146 -0.2425 -0.1020
   69MOL   C24124857   6.131   0.873   7.244  0.1448  0.0251  0.3462
   69MOL   H24224858   5.678   1.015   7.288 -1.0124  1.9292 -1.5145
   69MOL   H24324859   5.634   1.050   7.135 -1.4194 -2.2043 -1.5507
   69MOL   H24424860   5.880   0.910   7.110  2.5312  1.0753 -0.9400
   69MOL   H24524861   5.898   0.976   7.370  2.4826  0.8248  1.2857
   69MOL   H24624862   5.927   1.132   7.321  0.4360  0.6650  0.3187
   69MOL   H24724863   6.121   1.086   7.200  0.4858  0.2174  0.4940
   69MOL   H24824864   6.255   1.050   7.399 -0.1265  1.7393 -0.7063
   69MOL   H24924865   6.117   0.986   7.478 -1.8493  0.1619 -0.2892
   69MOL   H25024866   6.118   1.161   7.438  3.1771  1.9081 -3.1483
   69MOL   H25124867   6.074   0.808   7.309  2.3413  0.1536  2.4536
   69MOL   H25224868   6.237   0.853   7.263  0.4091  1.6538  0.6513
   69MOL   H25324869   6.099   0.840   7.145  1.4159  1.7535 -0.6931
   69MOL   C25424870   5.865   1.117   7.051  0.2760  0.5476  0.1984
   69MOL   C25524871   5.813   1.082   6.906  0.2957 -0.1203 -0.7799
   69MOL   C25624872   5.810   1.211   6.823  0.0236  0.5199  1.0922
   69MOL   C25724873   5.671   1.271   6.809  0.0519  0.3680 -0.1730
   69MOL   C25824874   5.649   1.355   6.677  0.1800 -0.3151  0.0446
   69MOL   C25924875   5.615   1.339   6.940  0.2669 -0.7133 -0.0921
   69MOL   H26024876   5.823   1.214   7.075 -1.4715  0.2255 -1.4264
   69MOL   H26124877   5.973   1.130   7.049  0.6527 -2.3885 -0.5700
   69MOL   H26224878   5.712   1.040   6.910  0.1740  0.3776  1.9824
   69MOL   H26324879   5.856   1.198   6.725 -1.8755 -0.2266  0.2748
   69MOL   H26424880   5.875   1.289   6.862 -2.3899  1.1563  3.9947
   69MOL   H26524881   5.611   1.182   6.796  0.5048  0.0220  0.1031
   69MOL   H26624882   5.691   1.310   6.587 -0.5830 -0.9209 -0.0068
   69MOL   H26724883   5.696   1.453   6.687 -1.2806  0.4344 -0.1930
   69MOL   H26824884   5.544   1.380   6.660 -0.0029 -0.3436  1.1050
   69MOL   H26924885   5.570   1.276   7.016  1.0721  0.9823  1.8502
   69MOL   H27024886   5.698   1.394   6.985 -0.2664  2.0809 -2.3310
   69MOL   H27124887   5.541   1.416   6.918 -0.7656 -1.6341  0.1320
   69MOL   C27224888   5.904   0.976   6.842  0.4652  0.6141 -0.7488
   69MOL   C27324889   5.861   0.921   6.703 -0.4250 -0.0501  0.2507
   69MOL   C27424890   5.969   0.831   6.635  0.1278  0.3645  0.0193
   69MOL   C27524891   5.995   0.868   6.484 -0.7076  0.6261  0.4073
   69MOL   C27624892   6.050   0.744   6.404  0.0508 -0.1528 -0.2756
   69MOL   C27724893   6.092   0.986   6.472  0.0410  0.4964 -0.1252
   69MOL   H27824894   6.007   1.011   6.838  0.1502  1.6252 -0.3607
   69MOL   H27924895   5.902   0.888   6.906  0.2023  1.3705  0.3100
   69MOL   H28024896   5.850   1.007   6.638 -0.1291  1.7473  2.5185
   69MOL   H28124897   5.938   0.727   6.637  0.3726  0.2714 -0.8240
   69MOL   H28224898   6.061   0.839   6.693 -0.0908 -1.6347  0.6847
   69MOL   H28324899   5.901   0.897   6.436 -0.0471 -1.0489 -2.0174
   69MOL   H28424900   6.139   0.687   6.430  0.4399 -0.2244 -1.7524
   69MOL   H28524901   5.970   0.672   6.387 -1.0091  1.4234 -2.1853
   69MOL   H28624902   6.078   0.776   6.303 -0.0985 -0.3033 -0.3655
   69MOL   H28724903   6.059   1.064   6.541 -1.4502 -0.5160  0.3458
   69MOL   H28824904   6.196   0.971   6.500  0.5493  0.8916 -1.7450
   69MOL   H28924905   6.097   1.032   6.374  2.1218 -1.6026 -1.0334
   69MOL   C29024906   5.731   0.845   6.707 -0.4905 -0.8116 -0.3181
   69MOL   C29124907   5.656   0.820   6.569 -0.3565  0.1730  0.5343
   69MOL   C29224908   5.537   0.728   6.603  0.1084  0.8634 -0.2502
   69MOL   C29324909   5.569   0.580   6.618 -0.0674  0.0415  0.0534
   69MOL   C29424910   5.439   0.510   6.667  0.2205  0.0058 -0.1211
   69MOL   C29524911   5.615   0.511   6.482  0.3667  0.5080 -0.4536
   69MOL   H29624912   5.733   0.760   6.775  1.6293  0.2940  1.0711
   69MOL   H29724913   5.663   0.908   6.764  0.8353  0.6642 -0.3260
   69MOL   H29824914   5.720   0.773   6.495 -3.0456  0.2853 -1.9451
   69MOL   H29924915   5.468   0.744   6.520  0.0871  1.4542 -0.1191
   69MOL   H30024916   5.486   0.757   6.695 -0.7474 -1.6456  0.1262
   69MOL   H30124917   5.649   0.562   6.690  0.0363 -0.5271 -0.2013
   69MOL   H30224918   5.455   0.404   6.689  2.1371  0.5087  1.1016
   69MOL   H30324919   5.363   0.527   6.592 -1.9034 -4.4254  0.8964
   69MOL   H30424920   5.388   0.553   6.753  1.3808  1.7322 -0.2551
   69MOL   H30524921   5.569   0.554   6.393  1.1970 -1.2356 -1.7428
   69MOL   H30624922   5.601   0.403   6.484  1.1924  0.3880 -0.7433
   69MOL   H30724923   5.723   0.525   6.471  0.3999  2.0081  1.5190
   69MOL   C30824924   5.597   0.957   6.514  0.6108 -1.0150  0.5427
   69MOL   C30924925   5.534   0.959   6.366 -0.4868  0.4128  0.3887
   69MOL   C31024926   5.448   1.085   6.341 -0.9579  0.1469 -0.3229
   69MOL   C31124927   5.322   1.112   6.427  0.0211  0.2479 -0.9107
   69MOL   C31224928   5.292   1.263   6.445  0.8184  0.7504 -0.3201
   69MOL   C31324929   5.214   1.034   6.364  0.1719 -0.4113 -0.0505
   69MOL   H31424930   5.531   1.002   6.589  0.6446 -1.6174  0.9328
   69MOL   H31524931   5.681   1.026   6.506  0.0165 -0.3773 -0.3271
   69MOL   H31624932   5.474   0.869   6.356 -2.0661  1.4251  0.5594
   69MOL   H31724933   5.410   1.088   6.239 -0.7613  1.9395 -0.3622
   69MOL   H31824934   5.522   1.165   6.340 -1.6841  0.8116 -1.1229
   69MOL   H31924935   5.344   1.072   6.526 -0.9756  0.7685 -0.4694
   69MOL   H32024936   5.212   1.293   6.513  0.3629  0.9062 -0.9291
   69MOL   H32124937   5.274   1.299   6.344  0.7749 -1.7573 -1.2641
   69MOL   H32224938   5.384   1.311   6.480 -0.6383  2.9561  0.5547
   69MOL   H32324939   5.252   0.934   6.343  0.5789 -0.3587  0.4182
   69MOL   H32424940   5.124   1.027   6.425 -0.7692 -2.1092 -1.5800
   69MOL   H32524941   5.179   1.082   6.272  0.5760  0.8957  0.4641
   69MOL   C32624942   5.651   0.961   6.262  1.0892  0.2527 -0.2247
   69MOL   C32724943   5.604   0.895   6.132  0.6494 -0.9404 -0.4150
   69MOL   C32824944   5.617   0.740   6.137 -0.4485 -0.0240  0.4168
   69MOL   C32924945   5.521   0.665   6.047 -0.8149  0.1632 -0.1357
   69MOL   C33024946   5.571   0.531   5.978  0.7911  0.6887  0.2489
   69MOL   C33124947   5.391   0.629   6.124 -0.1304 -0.2312  0.7935
   69MOL   H33224948   5.736   0.904   6.299  1.1251  0.1277 -0.5020
   69MOL   H33324949   5.692   1.060   6.241  1.0671 -0.0651 -1.8778
   69MOL   H33424950   5.498   0.920   6.124  1.0134  2.4224  3.4760
   69MOL   H33524951   5.721   0.713   6.118 -0.7330 -1.1667  0.4466
   69MOL   H33624952   5.605   0.719   6.243  0.7656  1.7204  0.9298
   69MOL   H33724953   5.493   0.731   5.965 -0.0706 -2.7646 -2.8496
   69MOL   H33824954   5.610   0.459   6.051 -1.6677 -1.3970 -0.4015
   69MOL   H33924955   5.648   0.544   5.903  0.2334 -3.0681 -1.1107
   69MOL   H34024956   5.492   0.492   5.915 -0.3190  0.8674  1.5001
   69MOL   H34124957   5.349   0.709   6.185 -1.8362 -1.0883  0.7512
   69MOL   H34224958   5.331   0.597   6.039  0.9994 -0.1231 -0.0616
   69MOL   H34324959   5.407   0.543   6.190 -0.0015  0.4007  1.5886
   69MOL   C34424960   5.667   0.962   6.011 -0.2468  0.2892  0.2158
   69MOL   C34524961   5.598   1.103   5.965 -0.9091 -0.1918  0.3731
   69MOL   C34624962   5.649   1.161   5.831 -0.1531  0.6394  0.3327
   69MOL   C34724963   5.565   1.284   5.785  0.6945 -0.2813  0.4722
   69MOL   C34824964   5.423   1.264   5.739 -0.1018 -0.4068 -0.3663
   69MOL   C34924965   5.649   1.356   5.686  0.0719  0.1329  0.3947
   69MOL   H35024966   5.646   0.908   5.918 -0.1223  0.6344 -0.0169
   69MOL   H35124967   5.774   0.975   6.025 -0.4595  2.5017  0.0523
   69MOL   H35224968   5.610   1.178   6.043  1.2927  1.2950 -1.3284
   69MOL   H35324969   5.756   1.183   5.835 -0.0404 -0.0897  1.5226
   69MOL   H35424970   5.633   1.081   5.759 -1.5223  0.7933  0.4553
   69MOL   H35524971   5.549   1.360   5.862 -0.0125 -0.2649  0.3170
   69MOL   H35624972   5.381   1.363   5.725 -1.2680 -0.6299  1.3056
   69MOL   H35724973   5.431   1.211   5.644  1.4660 -0.8325 -0.0084
   69MOL   H35824974   5.365   1.204   5.809 -0.4325 -0.3831 -0.6196
   69MOL   H35924975   5.594   1.434   5.634  2.3774  2.4147  1.2821
   69MOL   H36024976   5.702   1.291   5.616 -0.4660  0.8005 -0.6532
   69MOL   H36124977   5.724   1.418   5.735  1.8881 -1.7977  0.1643
   69MOL   H36224978   5.495   1.081   5.938 -0.3529 -0.4786 -1.5983
   70MOL     C124979   6.559   4.336   2.559 -0.8690  0.2507 -0.8147
   70MOL     C224980   6.538   4.397   2.420 -0.4359 -0.0516 -0.3090
   70MOL     C324981   6.650   4.347   2.321 -0.3672 -0.2166 -0.0662
   70MOL     C424982   6.652   4.203   2.281  0.2962  0.1458  0.0555
   70MOL     C524983   6.762   4.180   2.171 -0.7913 -0.2009 -0.5215
   70MOL     C624984   6.522   4.146   2.233 -0.3557 -0.7528 -0.1801
   70MOL     H724985   6.545   4.228   2.565  1.4560 -0.0276  0.0692
   70MOL     H824986   6.655   4.359   2.605 -0.1401 -2.9387 -0.6694
   70MOL     H924987   6.438   4.373   2.386 -0.7439  0.6039  0.1430
   70MOL    H1024988   6.657   4.408   2.230 -1.3259 -0.6423 -0.4401
   70MOL    H1124989   6.746   4.370   2.366 -2.0171 -0.5438  3.7403
   70MOL    H1224990   6.668   4.143   2.371 -1.6409 -1.1533 -0.4275
   70MOL    H1324991   6.779   4.072   2.165  0.3707 -0.1423  1.1597
   70MOL    H1424992   6.742   4.224   2.074  0.8057 -1.1834 -1.3332
   70MOL    H1524993   6.853   4.231   2.205  0.0043 -3.0467  1.8006
   70MOL    H1624994   6.542   4.058   2.171  1.9987 -0.2005 -0.2700
   70MOL    H1724995   6.484   4.214   2.156  1.4655 -0.6754 -1.0411
   70MOL    H1824996   6.464   4.126   2.323 -3.9827 -0.6083 -2.3818
   70MOL    H1924997   6.486   4.376   2.629  0.9128 -0.3089  1.4166
   70MOL    C2024998   6.528   4.547   2.420 -0.6900 -0.5640 -0.4973
   70MOL    C2124999   6.647   4.622   2.474 -0.5439 -0.3802 -0.1819
   70MOL    C2225000   6.666   4.741   2.379 -0.3491  0.7902 -0.1656
   70MOL    C2325001   6.549   4.839   2.369 -0.3918  0.5855 -0.5044
   70MOL    C2425002   6.570   4.953   2.466  0.6610 -0.1147  0.5046
   70MOL    C2525003   6.539   4.892   2.230  0.0353 -0.2972 -0.6020
   70MOL    H2625004   6.505   4.574   2.317 -0.4482 -0.5180 -0.5393
   70MOL    H2725005   6.438   4.576   2.473 -0.9792 -0.5931 -0.9689
   70MOL    H2825006   6.737   4.562   2.459  0.4553  0.9667  0.3673
   70MOL    H2925007   6.697   4.714   2.278 -0.9168  1.5436 -0.5430
   70MOL    H3025008   6.756   4.796   2.408 -0.4557  0.6246  0.4852
   70MOL    H3125009   6.452   4.796   2.393  0.6752 -1.2846  0.6088
   70MOL    H3225010   6.662   5.012   2.457  0.0144  0.9228  0.5893
   70MOL    H3325011   6.557   4.907   2.563  0.1093  1.0769  1.0092
   70MOL    H3425012   6.492   5.029   2.459 -2.0748 -2.8981 -0.4872
   70MOL    H3525013   6.453   4.960   2.223  0.6767  0.5988  0.0527
   70MOL    H3625014   6.618   4.964   2.206 -0.1794 -0.4077 -1.6680
   70MOL    H3725015   6.542   4.818   2.150  0.5741  0.2494 -1.0899
   70MOL    C3825016   6.652   4.657   2.630  0.5243 -0.2289 -0.4636
   70MOL    C3925017   6.774   4.732   2.685  0.0213 -0.1639  0.1155
   70MOL    C4025018   6.900   4.669   2.634 -0.8274  0.1097  0.4862
   70MOL    C4125019   6.935   4.520   2.671  0.3405 -0.3531  0.0783
   70MOL    C4225020   7.034   4.520   2.794  0.4314 -0.2958 -0.3255
   70MOL    C4325021   6.983   4.426   2.563  0.1376  0.0481 -0.0610
   70MOL    H4425022   6.635   4.563   2.682 -1.0689 -0.5151 -1.4816
   70MOL    H4525023   6.562   4.709   2.661  0.6059  0.3163 -1.1361
   70MOL    H4625024   6.769   4.836   2.653  0.4632  0.5793  2.3433
   70MOL    H4725025   6.977   4.734   2.676  0.3713 -1.5524  0.9265
   70MOL    H4825026   6.915   4.683   2.526  1.1089 -0.4255  0.6581
   70MOL    H4925027   6.842   4.468   2.692  1.1097 -2.3984 -1.3654
   70MOL    H5025028   7.126   4.569   2.764  0.0162  1.3624  1.0189
   70MOL    H5125029   7.003   4.566   2.888 -1.7279 -2.8110  0.2791
   70MOL    H5225030   7.066   4.419   2.821  2.4066  0.1776 -0.8695
   70MOL    H5325031   6.954   4.324   2.584  1.0163 -0.0096  0.9378
   70MOL    H5425032   7.092   4.423   2.553  0.0100 -1.3816 -1.0732
   70MOL    H5525033   6.946   4.446   2.462 -1.5898 -2.9064 -0.0413
   70MOL    C5625034   6.783   4.729   2.837 -0.0725 -0.2821 -0.1945
   70MOL    C5725035   6.668   4.805   2.915  0.0590 -0.1444  0.5522
   70MOL    C5825036   6.672   4.963   2.901 -0.1761 -0.1973 -0.5048
   70MOL    C5925037   6.536   5.021   2.880 -0.3592 -0.2054  0.4155
   70MOL    C6025038   6.538   5.153   2.802 -0.1651  0.1032 -0.2135
   70MOL    C6125039   6.456   5.033   3.009 -0.1310 -0.0504 -0.9759
   70MOL    H6225040   6.879   4.772   2.865 -1.0111  1.0907  0.9758
   70MOL    H6325041   6.774   4.622   2.855  0.2619 -0.5061 -1.2732
   70MOL    H6425042   6.572   4.779   2.870  1.2856 -0.3626 -2.0032
   70MOL    H6525043   6.731   5.014   2.977  0.5028  0.2223 -1.2954
   70MOL    H6625044   6.721   4.988   2.806 -2.1585  2.2556 -0.9435
   70MOL    H6725045   6.477   4.959   2.813  1.2793 -0.0430 -1.2215
   70MOL    H6825046   6.446   5.190   2.756  0.8028  1.9722 -0.6927
   70MOL    H6925047   6.611   5.157   2.722 -0.7530  3.5593 -0.6419
   70MOL    H7025048   6.576   5.232   2.866  2.6849  0.9856 -2.8840
   70MOL    H7125049   6.528   5.055   3.088 -0.3483 -0.1039 -0.7622
   70MOL    H7225050   6.425   4.931   3.033 -1.1036  0.3264 -0.6254
   70MOL    H7325051   6.381   5.112   3.003 -0.3982 -0.1798  0.4394
   70MOL    C7425052   6.655   4.772   3.063  0.4426  0.4986 -0.0756
   70MOL    C7525053   6.618   4.625   3.103 -0.5994 -0.0169 -0.3013
   70MOL    C7625054   6.469   4.598   3.096  0.2235 -0.2749 -0.3121
   70MOL    C7725055   6.413   4.544   2.965 -0.8970 -0.1629 -0.4565
   70MOL    C7825056   6.261   4.556   2.969  0.5291  0.1060 -0.9146
   70MOL    C7925057   6.449   4.397   2.956  0.6990  0.1168  0.6160
   70MOL    H8025058   6.590   4.832   3.127  0.6147 -0.8887  1.4525
   70MOL    H8125059   6.749   4.803   3.107  0.7491  0.7933 -0.9341
   70MOL    H8225060   6.671   4.546   3.050  1.8893  1.3711  0.0072
   70MOL    H8325061   6.446   4.526   3.174  0.1974 -0.6771 -0.6877
   70MOL    H8425062   6.406   4.684   3.116  0.2273 -0.1891 -0.6601
   70MOL    H8525063   6.444   4.600   2.877 -0.7905 -1.1864 -1.0731
   70MOL    H8625064   6.227   4.659   2.958 -0.8964 -0.0235  1.8083
   70MOL    H8725065   6.233   4.525   3.070 -1.3503  2.5033 -0.6586
   70MOL    H8825066   6.211   4.499   2.890 -2.3412 -0.5842  1.2873
   70MOL    H8925067   6.425   4.349   2.861 -1.3833  0.7469  0.7938
   70MOL    H9025068   6.558   4.389   2.958  0.7105  0.2916  0.6922
   70MOL    H9125069   6.401   4.355   3.044  0.4633  0.4773  0.6600
   70MOL    C9225070   6.662   4.615   3.247 -0.2153 -0.0073  0.6372
   70MOL    C9325071   6.766   4.513   3.288 -0.1650  0.3291  0.0763
   70MOL    C9425072   6.703   4.367   3.271 -0.9106 -0.4125  1.1567
   70MOL    C9525073   6.612   4.323   3.385 -0.1488 -0.8160  0.5422
   70MOL    C9625074   6.511   4.215   3.340 -0.5534 -0.5818 -0.0231
   70MOL    C9725075   6.696   4.265   3.506  0.3069 -0.4255  0.5461
   70MOL    H9825076   6.701   4.711   3.284  1.5368 -1.2485  2.1242
   70MOL    H9925077   6.577   4.604   3.314 -0.1339 -2.3427  0.3959
   70MOL   H10025078   6.789   4.529   3.393 -0.9356 -0.3169  0.3569
   70MOL   H10125079   6.775   4.288   3.247 -2.1754 -0.3906 -3.0060
   70MOL   H10225080   6.642   4.356   3.182 -1.0168  2.4611  0.8349
   70MOL   H10325081   6.553   4.405   3.426  1.2410 -0.4971  1.9624
   70MOL   H10425082   6.443   4.263   3.270  1.9130  0.1077 -2.0361
   70MOL   H10525083   6.455   4.191   3.430  1.2963  0.3742  1.4240
   70MOL   H10625084   6.550   4.122   3.297  0.7891  1.5197 -3.5345
   70MOL   H10725085   6.618   4.235   3.576 -1.8514 -2.3476 -2.5517
   70MOL   H10825086   6.760   4.341   3.550 -0.6314  1.3085 -0.9966
   70MOL   H10925087   6.751   4.175   3.477  1.1894  0.4036 -0.3935
   70MOL   C11025088   6.900   4.524   3.207  0.2386  0.0932  0.0350
   70MOL   C11125089   7.033   4.507   3.282 -0.1991 -0.3754  0.2569
   70MOL   C11225090   7.069   4.362   3.304  0.3631  0.5510  0.0223
   70MOL   C11325091   7.146   4.337   3.435  0.0686  1.0816  0.6614
   70MOL   C11425092   7.195   4.186   3.432 -0.0012 -0.5540 -0.2679
   70MOL   C11525093   7.070   4.352   3.569 -0.1791  0.0693 -0.1325
   70MOL   H11625094   6.903   4.622   3.160 -1.3871 -0.0572 -0.4079
   70MOL   H11725095   6.906   4.463   3.117 -0.2749 -1.8604  1.2807
   70MOL   H11825096   7.019   4.552   3.380 -0.7263  0.2515 -0.1030
   70MOL   H11925097   7.117   4.317   3.217 -0.3544 -0.7635  0.2954
   70MOL   H12025098   6.977   4.303   3.302 -0.1559  1.3832 -1.6266
   70MOL   H12125099   7.233   4.402   3.430  1.4235 -0.7683 -0.0113
   70MOL   H12225100   7.264   4.179   3.348  0.0262  1.4484 -0.4363
   70MOL   H12325101   7.119   4.113   3.407  1.4717 -2.1761 -0.1528
   70MOL   H12425102   7.242   4.159   3.527 -0.7071  1.3991  0.6559
   70MOL   H12525103   7.007   4.266   3.591  2.1417 -1.3825  1.0207
   70MOL   H12625104   6.997   4.433   3.566 -1.4474 -1.0192  0.8904
   70MOL   H12725105   7.130   4.374   3.657 -1.5320  4.1159 -0.1317
   70MOL   C12825106   7.157   4.572   3.220 -0.3555 -0.3923 -0.0053
   70MOL   C12925107   7.187   4.716   3.277 -0.0654 -0.2991 -0.2449
   70MOL   C13025108   7.264   4.792   3.162 -0.8215 -0.7626  0.3920
   70MOL   C13125109   7.168   4.833   3.052  0.3622 -0.3242  0.5517
   70MOL   C13225110   7.124   4.974   3.060 -0.2424 -0.6776  0.6108
   70MOL   C13325111   7.221   4.791   2.909  0.2951 -0.1223  0.0777
   70MOL   H13425112   7.162   4.569   3.111  2.1820 -1.5124  0.1022
   70MOL   H13525113   7.243   4.513   3.251  1.4668  1.8293 -0.7222
   70MOL   H13625114   7.095   4.769   3.302 -0.4889 -0.9246 -0.4809
   70MOL   H13725115   7.321   4.878   3.197  1.8312 -2.3460  0.1881
   70MOL   H13825116   7.344   4.731   3.118  0.1421  1.2302 -0.7011
   70MOL   H13925117   7.075   4.776   3.062  1.0119 -2.2673 -3.3183
   70MOL   H14025118   7.031   4.977   3.004 -1.5067 -1.8503  2.6075
   70MOL   H14125119   7.186   5.050   3.012 -0.7305 -0.7944 -0.1983
   70MOL   H14225120   7.100   5.012   3.160 -2.5377  2.1919 -0.9618
   70MOL   H14325121   7.135   4.779   2.843  0.5173  1.8689 -0.5969
   70MOL   H14425122   7.280   4.869   2.861 -2.4540  1.1939 -1.2679
   70MOL   H14525123   7.278   4.698   2.920  3.3792  1.4007 -2.2475
   70MOL   C14625124   7.266   4.714   3.413  0.3020 -0.3619 -0.0538
   70MOL   C14725125   7.270   4.846   3.494  0.5447  0.4289 -0.4112
   70MOL   C14825126   7.396   4.847   3.587 -0.0890 -0.2806 -0.3055
   70MOL   C14925127   7.391   4.784   3.723 -0.3196 -0.3978  0.1855
   70MOL   C15025128   7.364   4.628   3.718 -0.6047  0.4118 -0.3579
   70MOL   C15125129   7.516   4.822   3.806 -0.8558 -0.3596 -0.4497
   70MOL   H15225130   7.371   4.684   3.409 -0.2707 -2.9038  2.3314
   70MOL   H15325131   7.203   4.652   3.477 -0.8605  3.7630  2.9605
   70MOL   H15425132   7.290   4.927   3.424  0.7544 -0.1723 -1.0558
   70MOL   H15525133   7.486   4.812   3.534  0.2259  0.6613 -0.3995
   70MOL   H15625134   7.414   4.954   3.600 -1.5914 -0.1241  0.6048
   70MOL   H15725135   7.299   4.813   3.774 -1.5288 -1.5345 -1.3308
   70MOL   H15825136   7.258   4.601   3.710 -0.6571  0.6868 -0.5846
   70MOL   H15925137   7.408   4.579   3.805  0.5211  1.0246 -0.5844
   70MOL   H16025138   7.407   4.581   3.630  1.5857 -1.3188  1.5795
   70MOL   H16125139   7.608   4.802   3.751  0.0351  3.9545 -0.7026
   70MOL   H16225140   7.523   4.766   3.900  1.2606  0.1090 -0.3078
   70MOL   H16325141   7.509   4.926   3.838 -0.6998 -0.8698  1.3524
   70MOL   C16425142   7.136   4.871   3.567 -0.2998 -0.6653 -0.5756
   70MOL   C16525143   7.108   5.018   3.614  0.7408 -0.8773 -0.2237
   70MOL   C16625144   6.974   5.064   3.560  0.0560  0.0973  1.1351
   70MOL   C16725145   6.964   5.100   3.410 -0.1570  0.1794  0.1134
   70MOL   C16825146   6.823   5.099   3.368  0.3689  0.5859 -0.4322
   70MOL   C16925147   7.023   5.236   3.364 -0.6847  0.4762  0.2927
   70MOL   H17025148   7.056   4.844   3.498  0.1604 -0.0793 -1.3548
   70MOL   H17125149   7.131   4.803   3.652  1.2305 -0.1273 -0.0484
   70MOL   H17225150   7.183   5.088   3.576 -1.2801  1.1560 -0.6299
   70MOL   H17325151   6.897   4.989   3.581  1.3722 -1.9727 -1.1176
   70MOL   H17425152   6.937   5.147   3.619 -0.2907 -0.3299  1.5291
   70MOL   H17525153   7.016   5.019   3.360 -0.8765  0.1395 -0.5726
   70MOL   H17625154   6.819   5.116   3.260  0.2477  1.4894 -0.2924
   70MOL   H17725155   6.767   5.174   3.423  0.7162  0.5459 -0.0211
   70MOL   H17825156   6.787   4.999   3.392  2.2004  0.1998  0.7604
   70MOL   H17925157   7.025   5.239   3.255 -0.2603  1.1224  0.3193
   70MOL   H18025158   7.122   5.252   3.406  0.8037  0.4397 -3.0764
   70MOL   H18125159   6.956   5.311   3.404 -2.8686 -0.3173 -1.7653
   70MOL   C18225160   7.097   5.031   3.764  0.2457  0.1625 -0.6945
   70MOL   C18325161   7.096   5.175   3.821 -0.1471  0.4145  0.7213
   70MOL   C18425162   7.077   5.153   3.974  0.4363 -0.2131 -0.0455
   70MOL   C18525163   6.932   5.151   4.014 -0.7488  0.2316 -0.2677
   70MOL   C18625164   6.914   5.128   4.161 -0.5845  0.4168 -0.1671
   70MOL   C18725165   6.861   5.278   3.978 -0.5843 -0.2693  0.0837
   70MOL   H18825166   7.181   4.975   3.804  1.3414  0.2917 -2.7687
   70MOL   H18925167   7.002   4.988   3.797  0.1771  0.5233 -0.4135
   70MOL   H19025168   7.022   5.239   3.773 -0.5113 -0.7839 -0.3614
   70MOL   H19125169   7.123   5.236   4.029  1.6479 -1.3674  0.7291
   70MOL   H19225170   7.141   5.070   4.006  1.2614  0.5213  0.2378
   70MOL   H19325171   6.893   5.062   3.964  1.4644 -1.8807  1.6258
   70MOL   H19425172   6.984   5.051   4.192  1.6095  2.0406 -0.9491
   70MOL   H19525173   6.814   5.094   4.188  0.3421 -1.2544  1.2347
   70MOL   H19625174   6.933   5.221   4.216  0.6564  1.0803 -1.6701
   70MOL   H19725175   6.770   5.299   4.035 -0.6788  0.6492 -0.3949
   70MOL   H19825176   6.827   5.278   3.874 -1.1090  1.9051  0.2408
   70MOL   H19925177   6.934   5.359   3.981  0.0959 -0.9251  1.8538
   70MOL   C20025178   7.231   5.249   3.797 -0.7332 -0.1666 -0.2486
   70MOL   C20125179   7.219   5.399   3.805 -0.5910  0.1435  0.3925
   70MOL   C20225180   7.155   5.460   3.681 -0.0738  0.1122 -0.0953
   70MOL   C20325181   7.070   5.582   3.716  0.0092  0.0154  0.4269
   70MOL   C20425182   7.145   5.706   3.765  0.4566 -0.3155  0.1739
   70MOL   C20525183   6.977   5.614   3.596  0.0349 -0.4173  0.0705
   70MOL   H20625184   7.287   5.222   3.707 -2.0958  0.2636 -1.2351
   70MOL   H20725185   7.308   5.211   3.865  2.1916  1.5720 -2.4706
   70MOL   H20825186   7.152   5.419   3.888  1.0895  0.0363  1.8014
   70MOL   H20925187   7.233   5.486   3.609  0.2640 -0.1706  0.1688
   70MOL   H21025188   7.099   5.385   3.625 -1.4511  0.6320  0.5539
   70MOL   H21125189   7.003   5.561   3.800  1.1704 -0.2722  1.3034
   70MOL   H21225190   7.083   5.791   3.793  0.1215 -1.1245  1.9171
   70MOL   H21325191   7.205   5.752   3.686 -1.3280 -0.7127 -1.4524
   70MOL   H21425192   7.215   5.701   3.848  0.8547  1.9882  0.0256
   70MOL   H21525193   6.884   5.558   3.584  0.3484 -1.0762  0.6611
   70MOL   H21625194   7.036   5.598   3.505  2.0757  1.7535  0.9707
   70MOL   H21725195   6.948   5.719   3.598  1.3010  0.0421 -2.5551
   70MOL   C21825196   7.357   5.460   3.833 -0.0112  0.6149  0.7800
   70MOL   C21925197   7.418   5.453   3.975 -0.4852 -0.3149  0.2209
   70MOL   C22025198   7.331   5.526   4.085  0.2941 -0.0254  0.3416
   70MOL   C22125199   7.373   5.521   4.228  0.2836  0.4998 -0.1434
   70MOL   C22225200   7.269   5.606   4.305  0.5577  1.1148 -0.0498
   70MOL   C22325201   7.393   5.373   4.274  0.0797 -0.1504  0.6805
   70MOL   H22425202   7.426   5.418   3.759 -0.3377 -0.3280  0.9973
   70MOL   H22525203   7.371   5.565   3.807  3.1303  0.3736  1.2734
   70MOL   H22625204   7.429   5.350   4.007  0.1410 -0.1787  0.4572
   70MOL   H22725205   7.331   5.634   4.067  0.7081 -0.1405 -0.3459
   70MOL   H22825206   7.226   5.498   4.076  0.3440  0.7155 -3.1025
   70MOL   H22925207   7.467   5.576   4.228  1.1312 -0.9212  0.1549
   70MOL   H23025208   7.171   5.558   4.312  0.9531  0.2209 -0.5531
   70MOL   H23125209   7.288   5.622   4.411 -0.7080  2.1117  0.0461
   70MOL   H23225210   7.264   5.708   4.268 -2.0102  0.3940 -1.8348
   70MOL   H23325211   7.313   5.305   4.245 -0.5916  1.4718 -1.3701
   70MOL   H23425212   7.485   5.318   4.252 -1.1286 -1.7554 -0.5286
   70MOL   H23525213   7.402   5.363   4.382  0.4633  0.4739  0.7048
   70MOL   C23625214   7.557   5.526   3.966  0.0246  0.1803 -0.2021
   70MOL   C23725215   7.678   5.443   4.024  0.0344 -0.3055  0.0304
   70MOL   C23825216   0.056   5.530   4.046  0.9598  0.3249 -0.7471
   70MOL   C23925217   0.063   5.603   4.182 -0.4134  0.2091  0.0073
   70MOL   C24025218   0.086   5.505   4.300 -0.2682 -0.1767  0.2965
   70MOL   C24125219   0.181   5.708   4.178 -0.2153 -0.5712 -0.1848
   70MOL   H24225220   7.557   5.617   4.026 -1.3809  1.0897 -1.5712
   70MOL   H24325221   7.588   5.569   3.870  1.2547  0.8684  0.4774
   70MOL   H24425222   7.645   5.419   4.125  0.4041  0.3342  0.3086
   70MOL   H24525223   0.048   5.602   3.964  2.4652 -0.4301 -1.5874
   70MOL   H24625224   0.151   5.478   4.031  0.8023 -0.1226 -0.2221
   70MOL   H24725225   7.718   5.644   4.206 -2.3347 -2.8826 -2.1258
   70MOL   H24825226   0.141   5.417   4.267  1.0798 -0.4667  3.1495
   70MOL   H24925227   7.743   5.475   4.342  0.9600 -3.8034  0.6372
   70MOL   H25025228   0.142   5.547   4.384  1.0111 -0.8046 -0.2221
   70MOL   H25125229   0.186   5.758   4.275  1.1219 -2.8731  0.9652
   70MOL   H25225230   0.158   5.778   4.098 -0.7474 -2.1703 -1.4395
   70MOL   H25325231   0.278   5.663   4.160 -0.3525 -0.5460 -0.9725
   70MOL   C25425232   7.702   5.323   3.933 -0.2899 -0.3149  0.6281
   70MOL   C25525233   0.003   5.196   4.010 -0.7822 -0.9620 -0.2354
   70MOL   C25625234   7.635   5.124   4.069  0.4482  0.3953  0.0933
   70MOL   C25725235   7.651   5.032   4.191 -0.4031 -0.6448 -1.0327
   70MOL   C25825236   7.517   4.966   4.226  0.5756  0.4206  0.0480
   70MOL   C25925237   7.722   5.103   4.315  0.5073 -0.1521  0.3390
   70MOL   H26025238   7.611   5.300   3.876 -0.2828 -3.3934  1.7499
   70MOL   H26125239   0.019   5.368   3.862 -0.7471 -0.0905  0.3204
   70MOL   H26225240   0.067   5.226   4.093 -1.6257  0.7252 -0.1558
   70MOL   H26325241   7.583   5.072   3.988 -0.6436  0.2762  0.8648
   70MOL   H26425242   7.556   5.194   4.095 -0.8413 -1.5748  1.6561
   70MOL   H26525243   7.712   4.946   4.163  0.0131 -0.2416 -1.3756
   70MOL   H26625244   7.471   4.918   4.140 -3.2012 -1.4997  2.9731
   70MOL   H26725245   7.455   5.046   4.268  2.0055  1.0046  1.1221
   70MOL   H26825246   7.534   4.887   4.298  1.0475 -1.5874 -2.2078
   70MOL   H26925247   0.071   5.129   4.283  0.4240  1.7943  1.5799
   70MOL   H27025248   7.677   5.198   4.343 -0.2758 -1.1934  2.8084
   70MOL   H27125249   7.733   5.044   4.406  1.4441  0.1489  0.4288
   70MOL   C27225250   0.087   5.106   3.915  0.0447 -0.8839  0.2654
   70MOL   C27325251   0.227   5.156   3.873 -0.1374 -0.3725  0.0578
   70MOL   C27425252   0.324   5.126   3.992 -0.6365 -0.4871  0.1362
   70MOL   C27525253   0.465   5.191   3.981  0.3309  0.1171 -1.1455
   70MOL   C27625254   0.565   5.142   4.089 -0.7156  0.1033 -0.3333
   70MOL   C27725255   0.454   5.349   3.972  0.2363  0.3435  0.2225
   70MOL   H27825256   0.102   5.017   3.977  1.1367 -0.2555  0.9069
   70MOL   H27925257   0.020   5.090   3.830 -0.9482  1.4742  0.5777
   70MOL   H28025258   0.225   5.264   3.860 -2.4115 -0.3854  0.2272
   70MOL   H28125259   0.334   5.018   4.008  4.8489  0.0961  1.5694
   70MOL   H28225260   0.281   5.183   4.075  0.0873  0.8876 -0.4206
   70MOL   H28325261   0.508   5.158   3.887 -0.4649 -0.5415 -1.2851
   70MOL   H28425262   0.553   5.034   4.096  0.9490 -0.1672 -1.5289
   70MOL   H28525263   0.671   5.155   4.069 -0.8189  1.6053  0.0429
   70MOL   H28625264   0.551   5.184   4.189  0.4200 -1.1380  0.3582
   70MOL   H28725265   0.428   5.380   3.871 -0.2113  2.4399  0.9431
   70MOL   H28825266   0.378   5.384   4.042  0.9244  1.6742  0.3212
   70MOL   H28925267   0.548   5.392   4.009  0.0730  2.0059 -1.2179
   70MOL   C29025268   0.271   5.076   3.742  0.1558  0.1897  0.0408
   70MOL   C29125269   0.256   5.165   3.614  0.0214  0.0776  0.3106
   70MOL   C29225270   0.377   5.253   3.591  0.9369  0.4692 -0.1339
   70MOL   C29325271   0.359   5.377   3.496  0.0163  0.2504 -0.2755
   70MOL   C29425272   0.268   5.495   3.542  0.2616 -0.0006 -0.7850
   70MOL   C29525273   0.494   5.444   3.469 -0.4007 -0.6408 -0.3085
   70MOL   H29625274   0.376   5.051   3.758 -0.0128 -1.5380 -1.4284
   70MOL   H29725275   0.222   4.980   3.732  1.2226 -0.4179  0.5163
   70MOL   H29825276   0.163   5.219   3.629  0.1385  0.5080 -0.5439
   70MOL   H29925277   0.440   5.185   3.535 -0.1355 -0.7682  0.1118
   70MOL   H30025278   0.417   5.287   3.687  0.4118 -0.4621  0.4329
   70MOL   H30125279   0.327   5.337   3.400 -0.5956 -0.2318  0.1204
   70MOL   H30225280   0.269   5.576   3.469  3.1269  0.0169 -0.7755
   70MOL   H30325281   0.298   5.534   3.639  0.3400  2.1049 -1.6429
   70MOL   H30425282   0.165   5.467   3.566  1.4480 -2.5162  1.7051
   70MOL   H30525283   0.481   5.521   3.392 -4.1888  0.2258  1.0745
   70MOL   H30625284   0.562   5.372   3.425  1.6781 -0.2395  2.1554
   70MOL   H30725285   0.536   5.481   3.562 -2.7807 -0.1197  0.6053
   70MOL   C30825286   0.242   5.067   3.494 -0.5597 -0.9252 -0.1226
   70MOL   C30925287   0.106   5.006   3.491 -0.3724  0.5013 -1.1441
   70MOL   C31025288   0.011   5.108   3.431 -0.5160  0.1181 -0.0148
   70MOL   C31125289   7.619   5.105   3.490 -0.9165  0.3175  0.0423
   70MOL   C31225290   7.586   5.203   3.604 -0.2177 -0.1368  0.1926
   70MOL   C31325291   7.512   5.125   3.380  0.2222 -0.5473  0.4012
   70MOL   H31425292   0.259   5.116   3.398  2.6319  1.5532  1.5736
   70MOL   H31525293   0.317   4.988   3.498  0.5181  0.0293 -0.9154
   70MOL   H31625294   0.078   4.981   3.593  1.9539  1.0131 -0.3433
   70MOL   H31725295   0.008   5.097   3.323 -0.2337  0.0251 -0.0136
   70MOL   H31825296   0.048   5.210   3.439  0.4283 -0.2839  0.9037
   70MOL   H31925297   7.608   5.005   3.530  1.3842  0.1660  0.3274
   70MOL   H32025298   7.669   5.210   3.674  1.1426 -1.2806 -1.2704
   70MOL   H32125299   7.499   5.170   3.660  0.0955  0.5104  1.0752
   70MOL   H32225300   7.570   5.297   3.551 -0.1403 -1.3178 -1.9720
   70MOL   H32325301   7.412   5.120   3.423 -0.4766  1.3904 -0.9170
   70MOL   H32425302   7.508   5.229   3.348  0.8333  0.2481  2.8083
   70MOL   H32525303   7.511   5.048   3.303 -1.4754  1.1114 -1.3046
   70MOL   C32625304   0.105   4.872   3.413 -0.5634 -0.0247  0.2397
   70MOL   C32725305   0.098   4.740   3.503 -0.5744  0.5760  0.3991
   70MOL   C32825306   0.227   4.717   3.574  0.5628  0.0787  0.0759
   70MOL   C32925307   0.229   4.599   3.672 -0.3272 -0.8129  0.0007
   70MOL   C33025308   0.367   4.570   3.745  0.4281  0.5124  0.0233
   70MOL   C33125309   0.133   4.617   3.788 -0.2790 -1.0421 -0.0462
   70MOL   H33225310   0.191   4.867   3.346 -1.0041 -2.6256 -0.1795
   70MOL   H33325311   0.019   4.871   3.347 -1.5591 -3.3710  1.4811
   70MOL   H33425312   0.014   4.759   3.569 -1.4226 -1.3350 -0.0677
   70MOL   H33525313   0.303   4.713   3.496  0.6107  2.2052 -0.0288
   70MOL   H33625314   0.266   4.803   3.628  1.6249 -1.7483  2.2779
   70MOL   H33725315   0.198   4.508   3.620 -1.8788  0.6132 -1.6419
   70MOL   H33825316   0.389   4.635   3.830  1.1091 -0.6372  0.7319
   70MOL   H33925317   0.453   4.577   3.679  1.9507  0.6187  1.9552
   70MOL   H34025318   0.360   4.471   3.789 -1.4060  0.6073  0.0075
   70MOL   H34125319   0.029   4.602   3.758 -0.5760 -1.4181  1.1222
   70MOL   H34225320   0.155   4.543   3.866  0.0810 -0.4402  0.4265
   70MOL   H34325321   0.137   4.717   3.830 -0.4477 -1.1490  0.2290
   70MOL   C34425322   0.050   4.616   3.424  0.5346 -0.7406  0.0213
   70MOL   C34525323   7.670   4.625   3.336 -0.0890  0.3975 -0.1069
   70MOL   C34625324   7.639   4.501   3.258 -0.2396  0.0515  0.6010
   70MOL   C34725325   7.548   4.393   3.315 -0.0934 -0.0009 -0.3200
   70MOL   C34825326   7.599   4.343   3.454 -0.0803  0.5663  0.6301
   70MOL   C34925327   7.541   4.277   3.218 -0.1430  0.2356  0.3683
   70MOL   H35025328   0.037   4.533   3.493  1.7823 -0.7981  0.1844
   70MOL   H35125329   0.129   4.581   3.357  1.2780  0.3640  0.3132
   70MOL   H35225330   7.679   4.703   3.261 -0.6441 -0.6369 -1.2699
   70MOL   H35325331   7.586   4.530   3.167  2.4929 -0.3744 -1.1594
   70MOL   H35425332   7.736   4.469   3.221 -0.8827  0.6364 -1.6608
   70MOL   H35525333   7.447   4.433   3.321  1.0763  3.3058 -1.5111
   70MOL   H35625334   7.546   4.254   3.487  0.6061 -0.3368 -0.6653
   70MOL   H35725335   7.707   4.325   3.449  0.2171  2.0937  1.2446
   70MOL   H35825336   7.586   4.421   3.528 -0.6808  0.4278  0.6669
   70MOL   H35925337   7.480   4.199   3.263  0.4095 -0.8060 -0.6518
   70MOL   H36025338   7.645   4.248   3.200 -0.4250 -0.5236 -0.0607
   70MOL   H36125339   7.499   4.301   3.120 -2.0305 -1.3638  0.7598
   70MOL   H36225340   7.593   4.661   3.404  0.3859 -0.8083  1.1040
   71MOL     C125341   1.862   0.364   7.040 -0.4648 -1.0367 -0.0337
   71MOL     C225342   1.914   0.234   7.091 -0.1038  0.8062  0.4866
   71MOL     C325343   1.927   0.254   7.245  0.1272  0.5018 -0.2779
   71MOL     C425344   1.970   0.129   7.325  0.8002 -1.1077 -0.3363
   71MOL     C525345   1.870   0.012   7.308  0.3828  0.0610  0.3820
   71MOL     C625346   1.996   0.171   7.470 -0.1004  0.4568 -0.1884
   71MOL     H725347   1.922   0.451   7.067 -1.8217  0.3574 -1.4384
   71MOL     H825348   1.847   0.371   6.932 -4.5199 -1.5364  0.4243
   71MOL     H925349   1.832   0.162   7.084 -1.5440  2.3911  0.6048
   71MOL    H1025350   1.998   0.330   7.277 -1.6213  2.6796 -1.4291
   71MOL    H1125351   1.830   0.279   7.288  1.0532 -1.0273  2.7657
   71MOL    H1225352   2.070   0.101   7.292  0.1951 -1.7014 -1.7231
   71MOL    H1325353   1.898   7.675   7.364 -0.1964  0.0714  0.6823
   71MOL    H1425354   1.774   0.043   7.347  0.9512  2.6713 -0.1730
   71MOL    H1525355   1.862   7.740   7.202 -0.3958 -0.1304  0.4833
   71MOL    H1625356   2.089   0.226   7.484 -0.4110  1.1266 -0.7090
   71MOL    H1725357   2.005   0.086   7.536  1.8241 -0.7082 -1.8783
   71MOL    H1825358   1.930   0.246   7.512 -0.8452  0.1915 -0.8729
   71MOL    H1925359   1.765   0.391   7.081 -0.9680 -1.6844 -0.7780
   71MOL    C2025360   2.047   0.190   7.014 -0.6430 -0.0379  0.1145
   71MOL    C2125361   2.020   0.134   6.876  0.5581 -0.2882  0.1901
   71MOL    C2225362   2.146   0.149   6.781 -0.5112 -0.2346  0.9187
   71MOL    C2325363   2.214   0.288   6.758 -0.2176  0.6671  0.6649
   71MOL    C2425364   2.361   0.273   6.708 -0.7752  0.6518 -0.3612
   71MOL    C2525365   2.142   0.393   6.667  0.0336  0.0888  0.1968
   71MOL    H2625366   2.127   0.265   7.013  0.1773 -0.8691 -2.6723
   71MOL    H2725367   2.089   0.104   7.065 -0.5495  0.6492  1.2089
   71MOL    H2825368   1.942   0.193   6.827 -2.2925 -3.2725  0.9895
   71MOL    H2925369   2.121   0.104   6.685  0.0610  0.3537  0.4994
   71MOL    H3025370   2.228   0.086   6.817  0.2106  0.4190  0.4249
   71MOL    H3125371   2.235   0.341   6.850  0.0445 -1.6518  1.9874
   71MOL    H3225372   2.360   0.231   6.607  1.6114 -0.2321 -0.0392
   71MOL    H3325373   2.400   0.197   6.776 -2.0201 -2.7098 -3.2574
   71MOL    H3425374   2.414   0.368   6.708  1.3027 -0.4701  0.6248
   71MOL    H3525375   2.138   0.374   6.560 -2.9087 -1.0289  0.4553
   71MOL    H3625376   2.037   0.407   6.694  0.8348  1.9824  2.4741
   71MOL    H3725377   2.199   0.485   6.662  1.1895 -0.6324 -0.1088
   71MOL    C3825378   1.968   7.745   6.886 -0.2981 -1.0667 -0.1044
   71MOL    C3925379   1.908   7.683   6.759 -0.6838  0.2470 -0.1769
   71MOL    C4025380   1.774   7.605   6.779  0.1022 -0.1452 -0.7104
   71MOL    C4125381   1.658   7.676   6.858  0.5594  0.2576 -0.1062
   71MOL    C4225382   1.519   7.608   6.840 -0.7478  0.2612  1.1668
   71MOL    C4325383   1.648   0.068   6.818 -0.5881  0.4308 -0.1761
   71MOL    H4425384   1.893   7.744   6.965 -1.3301 -1.4153 -1.0754
   71MOL    H4525385   2.049   7.678   6.914  1.2524  1.4347  1.5176
   71MOL    H4625386   1.879   0.013   6.693 -0.3624  0.7002  0.2403
   71MOL    H4725387   1.803   7.513   6.828 -0.9182  0.1154  0.4205
   71MOL    H4825388   1.737   7.580   6.680 -0.1373 -1.6150 -0.2612
   71MOL    H4925389   1.681   7.672   6.964 -0.6616 -1.7696  0.1202
   71MOL    H5025390   1.503   7.596   6.732 -0.4770  0.8651  1.0557
   71MOL    H5125391   1.512   7.501   6.856  1.5050 -0.2159 -0.7505
   71MOL    H5225392   1.429   7.654   6.880 -2.6417 -2.2692 -0.0189
   71MOL    H5325393   1.581   0.123   6.884 -0.3961 -0.3637  0.6920
   71MOL    H5425394   1.620   0.090   6.715 -1.1564  0.7183  0.0361
   71MOL    H5525395   1.743   0.116   6.842 -0.1341  0.2902 -1.6680
   71MOL    C5625396   2.017   7.589   6.693 -0.1364 -0.0955  0.2697
   71MOL    C5725397   2.002   7.551   6.540  0.1689 -0.0969  0.9185
   71MOL    C5825398   2.100   7.435   6.503 -0.1529  0.3417 -0.3036
   71MOL    C5925399   2.111   7.313   6.597  0.8404 -0.1943  0.0949
   71MOL    C6025400   2.212   7.213   6.532 -0.0066 -0.0824 -0.8924
   71MOL    C6125401   1.976   7.243   6.610  0.3384  0.1854 -0.5489
   71MOL    H6225402   2.041   7.502   6.754  1.4414  0.2836  0.1980
   71MOL    H6325403   2.109   7.645   6.705 -1.2347  1.9709 -0.6530
   71MOL    H6425404   1.904   7.506   6.522  0.2051 -0.3916  1.4464
   71MOL    H6525405   2.076   7.399   6.403  1.9390 -1.7635 -0.1009
   71MOL    H6625406   2.200   7.476   6.486  0.9479 -1.3546  1.7949
   71MOL    H6725407   2.148   7.354   6.691  2.5729 -1.7406  0.1094
   71MOL    H6825408   2.186   7.187   6.430 -1.5691  0.0339 -0.5390
   71MOL    H6925409   2.217   7.122   6.591  1.4923  0.1055 -0.7032
   71MOL    H7025410   2.312   7.256   6.529  0.1803 -0.4835 -0.4837
   71MOL    H7125411   1.886   7.303   6.619  0.3945  0.4760 -1.8102
   71MOL    H7225412   1.982   7.191   6.706 -2.1203  0.7531 -0.0607
   71MOL    H7325413   1.959   7.166   6.535 -0.2574  0.1216 -0.3498
   71MOL    C7425414   2.012   7.685   6.450 -0.5609  0.2495 -0.8906
   71MOL    C7525415   2.046   7.655   6.301 -0.5161  0.5718 -0.0938
   71MOL    C7625416   2.090   0.041   6.240 -0.1955  0.0120 -0.1784
   71MOL    C7725417   2.219   0.115   6.285  0.0273  0.1426  0.0542
   71MOL    C7825418   2.258   0.230   6.192 -0.1308  0.0172  0.2460
   71MOL    C7925419   2.334   0.009   6.273  0.5602  0.0607  0.0535
   71MOL    H8025420   2.086   0.002   6.490 -1.6486  0.9417 -0.0444
   71MOL    H8125421   1.915   7.734   6.450 -1.6353 -1.8146  0.6875
   71MOL    H8225422   2.136   7.593   6.301 -1.2040 -0.4236 -0.0509
   71MOL    H8325423   2.097   0.027   6.132  0.4074 -1.2816  0.0098
   71MOL    H8425424   2.010   0.113   6.250 -0.1854  0.4152 -2.6519
   71MOL    H8525425   2.210   0.151   6.388  0.9442 -0.9034  0.5154
   71MOL    H8625426   2.182   0.307   6.200 -0.4686 -0.4633  1.7727
   71MOL    H8725427   2.257   0.195   6.089 -0.5413  2.0876 -0.4792
   71MOL    H8825428   2.354   0.274   6.219  0.9121 -1.3793 -1.0853
   71MOL    H8925429   2.336   7.705   6.179  0.9690 -1.3150  0.8768
   71MOL    H9025430   2.432   0.049   6.299 -0.0289  2.4402 -1.1544
   71MOL    H9125431   2.316   7.683   6.346  0.7254  0.3665  0.4218
   71MOL    C9225432   1.926   7.585   6.234 -0.1780  0.1802  0.0581
   71MOL    C9325433   1.952   7.550   6.077  0.1844  0.5276 -0.0969
   71MOL    C9425434   2.077   7.460   6.050  0.0502 -0.0226  0.4994
   71MOL    C9525435   2.145   7.472   5.906  0.6517 -0.4813  0.5969
   71MOL    C9625436   2.197   7.612   5.875  1.3438  0.2162  0.4850
   71MOL    C9725437   2.265   7.376   5.903  0.7229  0.1931 -0.3759
   71MOL    H9825438   1.893   7.489   6.274  1.7805 -1.3802 -1.9419
   71MOL    H9925439   1.839   7.650   6.238 -2.3518 -2.6386  1.0001
   71MOL   H10025440   1.960   7.643   6.020 -1.3026  1.2699  0.8795
   71MOL   H10125441   2.053   7.356   6.073  0.4330 -0.0787  0.6520
   71MOL   H10225442   2.157   7.488   6.120  0.8201 -1.8158  0.3861
   71MOL   H10325443   2.079   7.433   5.829  0.5612  0.6899  0.0734
   71MOL   H10425444   2.242   7.608   5.776  0.1032  1.5020 -0.1484
   71MOL   H10525445   2.267   7.644   5.952  1.1309 -0.2101  0.8617
   71MOL   H10625446   2.129   7.696   5.866  0.8061 -0.4494 -2.1819
   71MOL   H10725447   2.249   7.269   5.918 -3.8383  0.9628  1.0410
   71MOL   H10825448   2.344   7.412   5.968  1.2746 -1.6222 -0.0190
   71MOL   H10925449   2.297   7.377   5.799 -2.6008 -3.0452 -1.5387
   71MOL   C11025450   1.823   7.496   6.015 -0.1085 -0.2775  0.3294
   71MOL   C11125451   1.697   7.590   5.992 -0.1838  0.9370 -0.1899
   71MOL   C11225452   1.737   7.717   5.907 -0.2043  0.1610 -0.0072
   71MOL   C11325453   1.629   0.068   5.855  0.7004  1.0241 -0.1698
   71MOL   C11425454   1.669   0.171   5.745 -0.6907  0.4679 -0.4900
   71MOL   C11525455   1.573   0.140   5.978  0.1483 -0.1391  0.3369
   71MOL   H11625456   1.788   7.424   6.088  1.3074 -1.4315 -0.1040
   71MOL   H11725457   1.849   7.457   5.917 -1.1952  1.9730 -0.9054
   71MOL   H11825458   1.653   7.629   6.084 -0.7700  0.5832 -0.3144
   71MOL   H11925459   1.799   7.693   5.821  1.4412  0.4231  1.0784
   71MOL   H12025460   1.803   0.023   5.972 -0.6168  1.6982 -0.9398
   71MOL   H12125461   1.543   0.012   5.817  0.7396  1.5769 -1.0870
   71MOL   H12225462   1.721   0.131   5.658  1.2838  3.5177 -0.7760
   71MOL   H12325463   1.727   0.260   5.772  1.1841 -0.7144 -0.5107
   71MOL   H12425464   1.571   0.210   5.716 -0.5451  0.0183 -1.6366
   71MOL   H12525465   1.662   0.173   6.033 -1.7464  1.5195  2.4994
   71MOL   H12625466   1.530   0.060   6.039  1.2099 -1.7734 -0.9967
   71MOL   H12725467   1.497   0.216   5.962  1.6497  1.3599  0.2475
   71MOL   C12825468   1.584   7.511   5.922 -0.0269  0.0492 -0.6065
   71MOL   C12925469   1.546   7.363   5.951  0.3287 -0.2298  0.4234
   71MOL   C13025470   1.517   7.285   5.816  0.2411 -0.7382 -0.5427
   71MOL   C13125471   1.468   7.141   5.830 -0.8000 -0.0995 -0.3955
   71MOL   C13225472   1.443   7.070   5.701 -0.6093 -0.1735  0.1032
   71MOL   C13325473   1.557   7.053   5.918  0.3155 -0.4831 -0.3604
   71MOL   H13425474   1.619   7.499   5.819  1.1935  1.6503 -0.3933
   71MOL   H13525475   1.494   7.569   5.899 -1.0060 -1.2788 -0.1747
   71MOL   H13625476   1.626   7.305   5.997  0.1794 -1.8382 -1.2736
   71MOL   H13725477   1.443   7.341   5.759  1.0645 -0.7232 -1.5926
   71MOL   H13825478   1.609   7.291   5.758  1.7773 -2.8441  1.5755
   71MOL   H13925479   1.374   7.142   5.886  0.4695  1.2325  1.7730
   71MOL   H14025480   1.354   7.112   5.655 -0.5675  0.1483  0.3186
   71MOL   H14125481   1.427   6.964   5.722  0.0724 -0.0901  1.0733
   71MOL   H14225482   1.530   7.091   5.640 -1.0405  2.2756  0.2944
   71MOL   H14325483   1.542   7.083   6.021  2.3155  1.2892 -0.5533
   71MOL   H14425484   1.535   6.947   5.900  1.8939 -0.3545 -3.4971
   71MOL   H14525485   1.661   7.063   5.886 -0.0180  0.0642 -1.3157
   71MOL   C14625486   1.409   7.357   6.028  0.3214 -0.0392 -0.6958
   71MOL   C14725487   1.388   7.448   6.154  0.5540  0.5452 -0.3929
   71MOL   C14825488   1.480   7.379   6.266  0.1651  0.6414 -0.2527
   71MOL   C14925489   1.486   7.452   6.399 -0.5147 -0.0798  0.0359
   71MOL   C15025490   1.529   7.367   6.517 -0.3967 -0.1419 -1.0751
   71MOL   C15125491   1.565   7.580   6.397  0.0286 -0.2080  0.0438
   71MOL   H15225492   1.392   7.255   6.061 -0.5804  0.6318  1.0063
   71MOL   H15325493   1.329   7.368   5.953  0.3431  0.7800 -0.6082
   71MOL   H15425494   1.432   7.545   6.132 -1.5465  1.1917 -1.8278
   71MOL   H15525495   1.440   7.280   6.291 -1.4427  1.3120 -0.0762
   71MOL   H15625496   1.574   7.366   6.212  0.6323  0.2107  0.6466
   71MOL   H15725497   1.391   7.490   6.436  0.8646  1.8584  1.7253
   71MOL   H15825498   1.469   7.276   6.521 -1.0153  0.2155 -1.9572
   71MOL   H15925499   1.521   7.416   6.614 -1.9106 -0.2484 -1.1297
   71MOL   H16025500   1.635   7.347   6.529 -0.5637  0.5400  1.9149
   71MOL   H16125501   1.674   7.579   6.399  0.0490  1.2238 -0.1791
   71MOL   H16225502   1.533   7.644   6.479  0.3957  0.4969 -0.3505
   71MOL   H16325503   1.539   7.636   6.307 -0.3931 -2.4670 -1.2786
   71MOL   C16425504   1.235   7.460   6.194 -0.1845  0.1484  0.1523
   71MOL   C16525505   1.142   7.531   6.096  0.4489 -0.5542  0.0138
   71MOL   C16625506   0.998   7.536   6.153  0.2594 -0.5365 -0.6265
   71MOL   C16725507   0.928   7.406   6.181  0.5159  0.6863 -0.2855
   71MOL   C16825508   0.796   7.438   6.249 -0.1273  0.0887  0.7609
   71MOL   C16925509   0.913   7.309   6.060  0.0345  0.4706  0.4533
   71MOL   H17025510   1.200   7.357   6.203  0.2368  0.0991  1.2693
   71MOL   H17125511   1.221   7.502   6.293  1.3319 -0.6025  0.7108
   71MOL   H17225512   1.130   7.477   6.002  0.2002  1.0099 -0.8594
   71MOL   H17325513   1.010   7.592   6.245  2.4421 -1.9046 -0.0354
   71MOL   H17425514   0.942   7.598   6.083  2.7046  1.3175 -0.9983
   71MOL   H17525515   0.980   7.358   6.264 -0.9157  0.4857  0.5106
   71MOL   H17625516   0.734   7.511   6.196  1.4308 -0.0114 -1.2530
   71MOL   H17725517   0.805   7.481   6.349  1.8522  1.2536  0.0897
   71MOL   H17825518   0.729   7.353   6.262 -0.4947  0.4097  1.0166
   71MOL   H17925519   1.015   7.297   6.024  0.3000  1.9710  0.6556
   71MOL   H18025520   0.836   7.342   5.989  0.6232  2.2017  0.5890
   71MOL   H18125521   0.884   7.212   6.101  3.4035 -0.5731  0.4639
   71MOL   C18225522   1.188   7.676   6.070  0.2520  0.4646 -0.3330
   71MOL   C18325523   1.134   7.741   5.940 -0.1621 -0.3610  1.0202
   71MOL   C18425524   1.131   0.152   5.937 -0.2135 -0.2340 -0.0140
   71MOL   C18525525   1.068   0.210   6.068 -0.2171  0.0951  0.1647
   71MOL   C18625526   1.072   0.365   6.057 -0.0568  0.2785  0.0973
   71MOL   C18725527   0.920   0.168   6.089  0.5869  0.4959 -0.2711
   71MOL   H18825528   1.296   7.688   6.069  0.3380 -0.2955 -0.4317
   71MOL   H18925529   1.156   7.728   6.161 -2.2992  0.2458 -1.0615
   71MOL   H19025530   1.029   7.712   5.928 -1.1479  3.5934 -0.9143
   71MOL   H19125531   1.075   0.171   5.846  1.3551  0.7907 -0.7902
   71MOL   H19225532   1.230   0.197   5.927 -0.1763 -0.6301 -1.4913
   71MOL   H19325533   1.132   0.180   6.152  1.1556 -1.3005 -1.3446
   71MOL   H19425534   1.171   0.408   6.039  0.3435 -0.2547  0.9747
   71MOL   H19525535   1.036   0.415   6.147  1.0339 -0.1666  0.7893
   71MOL   H19625536   1.012   0.404   5.975  0.4969 -0.2141 -0.5386
   71MOL   H19725537   0.864   0.221   6.165 -1.7219  0.8192 -2.1589
   71MOL   H19825538   0.902   0.067   6.125  0.3643  1.2678  1.8467
   71MOL   H19925539   0.863   0.170   5.996 -0.2343  0.0765  0.2204
   71MOL   C20025540   1.208   7.687   5.810  0.1191 -0.1710  0.2924
   71MOL   C20125541   1.123   7.700   5.675  0.2651  0.2509 -0.9316
   71MOL   C20225542   1.001   7.604   5.680 -0.0004  0.1466 -0.2220
   71MOL   C20325543   0.867   7.662   5.624 -0.4067 -0.2928 -0.4900
   71MOL   C20425544   0.776   7.542   5.588  0.7939  0.0885 -0.5849
   71MOL   C20525545   0.790   7.744   5.734  0.0159 -0.0129 -0.6307
   71MOL   H20625546   1.231   7.581   5.816  1.7198  0.1002 -0.9498
   71MOL   H20725547   1.307   7.729   5.794 -0.7069  2.0902  0.8462
   71MOL   H20825548   1.089   0.051   5.675 -0.3679  0.0582  0.7585
   71MOL   H20925549   1.032   7.518   5.621 -1.0559  0.2197 -0.9061
   71MOL   H21025550   0.988   7.564   5.780 -1.4676  1.2842  0.0629
   71MOL   H21125551   0.873   7.723   5.534 -1.1497  0.6075  0.0542
   71MOL   H21225552   0.677   7.573   5.554 -0.1856  1.6280  3.3330
   71MOL   H21325553   0.765   7.473   5.671 -1.1702  0.3862 -0.5741
   71MOL   H21425554   0.819   7.497   5.498  2.5623  1.8690 -0.6808
   71MOL   H21525555   0.784   7.691   5.829 -0.6823  1.2216  0.0229
   71MOL   H21625556   0.688   0.023   5.711 -0.2104  0.2487  0.6916
   71MOL   H21725557   0.852   0.078   5.753  1.3722 -1.2050  0.4603
   71MOL   C21825558   1.200   7.680   5.538 -0.4377 -0.1926  0.1203
   71MOL   C21925559   1.336   0.003   5.520 -0.4037 -0.3772  0.6367
   71MOL   C22025560   1.332   0.157   5.559 -0.0560  0.1097 -0.3718
   71MOL   C22125561   1.224   0.241   5.489 -0.6745  0.1388  0.1470
   71MOL   C22225562   1.205   0.374   5.565  0.1683  0.3200 -0.1858
   71MOL   C22325563   1.265   0.274   5.343  0.2660 -0.4048 -0.4491
   71MOL   H22425564   1.230   7.576   5.522  1.3553  0.4353 -0.8480
   71MOL   H22525565   1.139   7.703   5.451 -1.2856 -0.9894  0.4917
   71MOL   H22625566   1.397   7.713   5.600  0.4733 -0.3403 -0.0058
   71MOL   H22725567   1.318   0.156   5.667 -0.4193 -0.4989 -0.4274
   71MOL   H22825568   1.432   0.195   5.539  0.6535 -2.2571 -1.4213
   71MOL   H22925569   1.128   0.190   5.493 -0.1194 -0.8540  1.1425
   71MOL   H23025570   1.301   0.420   5.590  0.3238  0.5395 -1.1666
   71MOL   H23125571   1.154   0.445   5.501  2.2602  1.3470 -0.7847
   71MOL   H23225572   1.154   0.356   5.660  0.0221 -1.5168 -0.6124
   71MOL   H23325573   1.189   0.328   5.286  1.9064 -0.5238 -2.8470
   71MOL   H23425574   1.354   0.337   5.343 -1.0409  1.4761  0.1749
   71MOL   H23525575   1.288   0.186   5.283 -0.0014 -0.6655 -0.1684
   71MOL   C23625576   1.402   7.704   5.386  1.0665  0.0823  0.0256
   71MOL   C23725577   1.520   7.615   5.399  0.0095 -0.8251 -0.5516
   71MOL   C23825578   1.480   7.469   5.440 -0.1236 -0.5674  0.8511
   71MOL   C23925579   1.402   7.397   5.330  0.0081 -0.0434  0.0043
   71MOL   C24025580   1.462   7.404   5.184  0.2105 -0.6299 -1.0042
   71MOL   C24125581   1.398   7.247   5.372  0.8798 -0.3879 -0.3265
   71MOL   H24225582   1.436   0.040   5.331  0.1298  0.6967  0.4183
   71MOL   H24325583   1.329   7.651   5.325  0.2790  1.8721 -0.6343
   71MOL   H24425584   1.554   7.613   5.295 -1.0412  1.7722 -0.9891
   71MOL   H24525585   1.420   7.479   5.530  1.7480  0.7253  2.0166
   71MOL   H24625586   1.568   7.410   5.466  0.3595  0.0508  0.6387
   71MOL   H24725587   1.302   7.440   5.320  0.1776  0.4532  0.4667
   71MOL   H24825588   1.571   7.412   5.182  0.1037  1.9082  1.4507
   71MOL   H24925589   1.423   7.492   5.133 -0.0113 -1.3861 -2.1714
   71MOL   H25025590   1.432   7.314   5.129 -0.2159 -2.2199  1.7436
   71MOL   H25125591   1.320   7.197   5.315 -0.9949  0.3861  1.5100
   71MOL   H25225592   1.372   7.253   5.477  0.5850  0.6145 -0.4503
   71MOL   H25325593   1.486   7.184   5.357  2.6160  1.8953  0.0296
   71MOL   C25425594   1.640   7.673   5.485  0.1108 -0.4334 -0.6320
   71MOL   C25525595   1.784   7.647   5.449  0.3892 -0.0807  0.6216
   71MOL   C25625596   1.826   7.499   5.487 -0.4032 -0.5378 -0.3001
   71MOL   C25725597   1.977   7.471   5.461 -0.1887 -0.3134  0.4535
   71MOL   C25825598   1.999   7.324   5.493 -0.0577 -0.1578  0.2045
   71MOL   C25925599   2.077   7.558   5.535  0.0683  0.6503  0.4856
   71MOL   H26025600   1.622   0.028   5.493  1.2594 -0.3585  0.9551
   71MOL   H26125601   1.621   7.646   5.589 -0.2840  0.9745 -0.3333
   71MOL   H26225602   1.847   7.713   5.510 -0.4564  2.0680 -0.7638
   71MOL   H26325603   1.763   7.441   5.420 -2.1365  1.3354 -0.3669
   71MOL   H26425604   1.802   7.477   5.591 -0.6455  1.7818  0.1640
   71MOL   H26525605   1.997   7.483   5.355 -0.5727  1.1983  0.5496
   71MOL   H26625606   2.021   7.301   5.597  0.9248  1.5127  0.3829
   71MOL   H26725607   2.083   7.300   5.428  0.0766  1.1411 -0.1303
   71MOL   H26825608   1.911   7.265   5.468 -1.9863  1.8934  1.9443
   71MOL   H26925609   2.181   7.526   5.527  0.0444  0.2201  1.7297
   71MOL   H27025610   2.071   7.661   5.501 -1.1312  0.1561 -0.8414
   71MOL   H27125611   2.050   7.550   5.640  2.2565 -1.4604  0.9328
   71MOL   C27225612   1.823   7.686   5.304 -1.0273  0.3317 -0.0448
   71MOL   C27325613   1.786   0.078   5.259 -0.0605 -0.6748  0.5846
   71MOL   C27425614   1.871   0.189   5.337  0.5794  0.5754 -0.3517
   71MOL   C27525615   1.805   0.329   5.326 -0.5410 -0.4117  0.2668
   71MOL   C27625616   1.920   0.432   5.358 -0.4206 -1.0290  0.5746
   71MOL   C27725617   1.679   0.349   5.414  0.1634  0.2531 -0.3226
   71MOL   H27825618   1.932   7.692   5.298 -1.1654  0.8981 -2.8946
   71MOL   H27925619   1.802   7.612   5.226 -0.6424  0.1501  0.0201
   71MOL   H28025620   1.681   0.095   5.282 -0.5385 -1.5772 -0.8470
   71MOL   H28125621   1.974   0.205   5.306  1.3511  1.2771  2.4298
   71MOL   H28225622   1.881   0.150   5.438  2.1492 -1.6829 -1.3343
   71MOL   H28325623   1.788   0.350   5.220 -0.3343  0.8588  0.4757
   71MOL   H28425624   1.938   0.416   5.465 -3.5694  3.9079  1.9996
   71MOL   H28525625   2.007   0.413   5.296 -0.5748 -1.9424  0.6370
   71MOL   H28625626   1.881   0.534   5.364 -1.3246 -1.3576  0.2439
   71MOL   H28725627   1.697   0.297   5.507 -0.8884  1.1171  0.3807
   71MOL   H28825628   1.647   0.451   5.436 -0.1653  0.1769 -0.4492
   71MOL   H28925629   1.592   0.293   5.381  0.4386 -0.8760  0.8305
   71MOL   C29025630   1.817   0.094   5.104  0.1870  0.3832 -0.7871
   71MOL   C29125631   1.707   0.036   5.015 -0.4193 -0.3382  0.2793
   71MOL   C29225632   1.603   0.153   5.002  0.4948  0.0751  0.0494
   71MOL   C29325633   1.464   0.120   4.933  0.3520  0.1915 -0.0577
   71MOL   C29425634   1.404   7.746   4.994 -1.0708  0.3258 -0.1801
   71MOL   C29525635   1.372   0.239   4.932 -0.9341 -0.4089 -0.4036
   71MOL   H29625636   1.844   0.194   5.072 -0.3348  0.5112 -0.8141
   71MOL   H29725637   1.910   0.038   5.089 -0.7497 -1.0793 -1.2845
   71MOL   H29825638   1.663   7.700   5.061 -0.5458  0.9078  2.6084
   71MOL   H29925639   1.635   0.231   4.933 -0.5636 -0.7322 -1.3752
   71MOL   H30025640   1.578   0.207   5.093  1.3693  1.1967 -0.3588
   71MOL   H30125641   1.473   0.102   4.826  1.9471 -2.8396  0.5335
   71MOL   H30225642   1.304   7.721   4.959 -0.9976 -0.5945  0.2594
   71MOL   H30325643   1.410   7.751   5.103  0.2326 -0.9370 -0.1820
   71MOL   H30425644   1.461   7.657   4.967 -0.3183  0.2955  1.4790
   71MOL   H30525645   1.407   0.323   4.873  2.4075 -0.3631  1.5194
   71MOL   H30625646   1.365   0.275   5.035 -3.6523 -0.1315 -0.6524
   71MOL   H30725647   1.276   0.202   4.897 -1.7054 -0.5247  1.7102
   71MOL   C30825648   1.760   7.741   4.874 -0.9224  0.2033 -0.0859
   71MOL   C30925649   1.844   7.613   4.876  0.1714  0.9440  0.3104
   71MOL   C31025650   1.753   7.488   4.909  0.1185  0.0012 -0.4909
   71MOL   C31125651   1.845   7.362   4.926  0.0058  0.0246  0.2878
   71MOL   C31225652   1.945   7.389   5.032 -0.5544 -0.4609 -0.6260
   71MOL   C31325653   1.768   7.232   4.976 -0.3646 -0.2923  0.3944
   71MOL   H31425654   1.685   7.733   4.796  0.2147  1.1890 -1.3143
   71MOL   H31525655   1.822   0.071   4.836  0.1087 -0.7046 -0.3934
   71MOL   H31625656   1.924   7.628   4.948  1.2827 -0.0676 -0.6855
   71MOL   H31725657   1.697   7.466   4.818  2.8419 -1.9575 -1.7865
   71MOL   H31825658   1.692   7.499   4.998  1.0477  1.0969  0.0309
   71MOL   H31925659   1.884   7.332   4.828 -1.7065  0.7915 -0.6470
   71MOL   H32025660   2.019   7.452   4.983 -0.5488  0.0047 -0.0188
   71MOL   H32125661   2.006   7.305   5.065 -0.6870 -1.0861 -1.9182
   71MOL   H32225662   1.915   7.445   5.120 -0.4049 -0.0624 -0.8297
   71MOL   H32325663   1.684   7.203   4.913  0.3328 -0.7720 -0.3459
   71MOL   H32425664   1.835   7.148   4.998 -1.2913 -1.1937 -0.1646
   71MOL   H32525665   1.721   7.259   5.070 -0.5027 -1.1966  0.5913
   71MOL   C32625666   1.901   7.603   4.730 -0.3505  0.0385 -0.2816
   71MOL   C32725667   2.052   7.600   4.732 -0.3968  0.8716  0.0889
   71MOL   C32825668   2.117   7.722   4.809 -0.3022  0.1333 -0.4290
   71MOL   C32925669   2.191   7.691   4.946  0.4186 -0.1108  0.8615
   71MOL   C33025670   2.314   7.599   4.929 -1.0250  0.4654  0.2520
   71MOL   C33125671   2.240   0.072   5.005 -0.6231  0.5451  0.6130
   71MOL   H33225672   1.876   7.693   4.673  1.2905  0.5325 -0.2525
   71MOL   H33325673   1.858   7.520   4.675 -0.6633  1.1176 -1.7122
   71MOL   H33425674   2.085   7.510   4.784 -0.6843  0.5833 -0.2184
   71MOL   H33525675   2.197   0.011   4.749  0.1656 -1.3556 -0.8577
   71MOL   H33625676   2.042   0.048   4.818 -0.5531 -0.2464  0.9307
   71MOL   H33725677   2.122   7.646   5.018 -1.1061  0.3919 -0.2535
   71MOL   H33825678   2.400   7.662   4.905 -1.0424  0.8743  1.2319
   71MOL   H33925679   2.306   7.509   4.869 -0.2808  1.6844 -1.7420
   71MOL   H34025680   2.328   7.551   5.025 -2.0070 -2.0071 -0.7996
   71MOL   H34125681   2.149   0.131   4.999 -2.0535 -1.8054 -2.8222
   71MOL   H34225682   2.265   0.064   5.111 -0.2276 -2.1284  0.3541
   71MOL   H34325683   2.316   0.121   4.944 -0.0030 -1.8285 -0.5746
   71MOL   C34425684   2.128   7.586   4.590  0.1245  0.0771 -0.2412
   71MOL   C34525685   2.113   7.440   4.541 -0.3027  0.3974 -0.2552
   71MOL   C34625686   2.196   7.408   4.412  0.1779 -0.1839  0.1006
   71MOL   C34725687   2.217   7.249   4.387  0.2985  0.1527 -0.6485
   71MOL   C34825688   2.357   7.212   4.445  0.1331 -0.4271 -0.3114
   71MOL   C34925689   2.212   7.201   4.242 -0.0054  0.0370  0.9774
   71MOL   H35025690   2.233   7.614   4.588 -0.2592  1.9848  2.7321
   71MOL   H35125691   2.075   7.641   4.511 -1.4029 -0.3542  0.4533
   71MOL   H35225692   2.009   7.412   4.524 -0.9446  2.3800  0.2781
   71MOL   H35325693   2.134   7.439   4.328  2.1391 -0.7257 -1.6162
   71MOL   H35425694   2.290   7.462   4.398 -0.8691  0.9921 -3.0547
   71MOL   H35525695   2.131   7.203   4.437 -2.0503  0.8823 -3.8841
   71MOL   H35625696   2.434   7.271   4.396  0.9089 -1.5221 -0.4223
   71MOL   H35725697   2.365   7.231   4.552 -0.7061 -3.5084  0.3601
   71MOL   H35825698   2.388   7.109   4.427  1.9779  0.1452 -0.4885
   71MOL   H35925699   2.109   7.192   4.209 -0.1418 -0.9709  1.6790
   71MOL   H36025700   2.248   7.100   4.226 -2.6465 -0.7359 -0.3650
   71MOL   H36125701   2.266   7.269   4.175  1.7944 -3.4184 -1.2271
   71MOL   H36225702   2.161   7.380   4.618  0.4047  0.6953 -0.4538
   72MOL     C125703   5.200   5.534   6.344 -0.5583 -0.2211 -0.0112
   72MOL     C225704   5.238   5.672   6.300 -0.2642 -0.0128 -0.1030
   72MOL     C325705   5.253   5.774   6.421 -0.4991  0.1488  0.0494
   72MOL     C425706   5.358   5.726   6.528  0.3255  0.3818  0.3460
   72MOL     C525707   5.353   5.825   6.640  0.0175  0.3064  0.6060
   72MOL     C625708   5.502   5.720   6.470  0.4405 -0.9489  0.1317
   72MOL     H725709   5.102   5.543   6.391  0.7542  2.4104  2.3768
   72MOL     H825710   5.198   5.458   6.266 -0.2186 -2.2228  1.8935
   72MOL     H925711   5.332   5.664   6.245 -0.0590  2.2862 -0.1144
   72MOL    H1025712   5.292   5.867   6.381 -0.3335  0.3671  0.7222
   72MOL    H1125713   5.158   5.784   6.473  0.1272 -0.2747  1.2919
   72MOL    H1225714   5.338   5.626   6.566  2.3652 -0.0627  0.3437
   72MOL    H1325715   5.269   5.817   6.708 -0.5532  1.3519  0.0413
   72MOL    H1425716   5.442   5.811   6.700 -0.6126  0.3196  1.5509
   72MOL    H1525717   5.352   5.926   6.598 -0.3811 -0.1151 -0.4064
   72MOL    H1625718   5.522   5.797   6.394  0.0640 -1.7111 -0.7483
   72MOL    H1725719   5.517   5.632   6.407  1.8610 -0.9833  0.5105
   72MOL    H1825720   5.582   5.714   6.544  0.6790 -1.0580 -0.1326
   72MOL    H1925721   5.272   5.498   6.418  2.3997  1.0203 -2.1620
   72MOL    C2025722   5.135   5.721   6.201 -0.4587  0.4639  1.0308
   72MOL    C2125723   5.186   5.820   6.093 -0.4286 -0.0965  0.8081
   72MOL    C2225724   5.265   5.748   5.977 -0.2681  0.2008  0.0906
   72MOL    C2325725   5.354   5.835   5.893  0.0475 -0.0208  0.4836
   72MOL    C2425726   5.500   5.783   5.900 -0.5720  0.0407 -0.2295
   72MOL    C2525727   5.319   5.862   5.750  0.2414 -0.0091  0.5133
   72MOL    H2625728   5.087   5.632   6.158 -0.1827  1.6026 -1.7269
   72MOL    H2725729   5.049   5.762   6.254 -0.0073  3.0880 -0.1817
   72MOL    H2825730   5.258   5.883   6.145 -0.1424 -1.2870  1.8688
   72MOL    H2925731   5.191   5.702   5.911  0.2259  1.3695 -1.3073
   72MOL    H3025732   5.319   5.658   6.007  1.0204  1.3614  1.3072
   72MOL    H3125733   5.369   5.926   5.951 -3.3366 -1.0918  3.2132
   72MOL    H3225734   5.510   5.698   5.833  1.1570  0.9005 -1.0834
   72MOL    H3325735   5.544   5.763   5.998  1.0599  2.5120 -0.4057
   72MOL    H3425736   5.567   5.854   5.851 -0.9202  1.1856  0.9138
   72MOL    H3525737   5.272   5.767   5.724 -0.9243  0.1844  1.8318
   72MOL    H3625738   5.243   5.940   5.748  2.1670  1.8939  0.0143
   72MOL    H3725739   5.406   5.886   5.689  1.4463 -0.6886  1.9349
   72MOL    C3825740   5.073   5.914   6.047 -0.8632  0.4580 -0.4885
   72MOL    C3925741   5.035   6.037   6.130  0.2777  0.0402  0.1739
   72MOL    C4025742   4.893   6.016   6.201 -0.2525 -0.3682 -0.5286
   72MOL    C4125743   4.874   6.108   6.324 -0.5523  0.2734  0.2278
   72MOL    C4225744   4.962   6.062   6.437 -0.0399  0.5699  0.3949
   72MOL    C4325745   4.725   6.122   6.343 -0.2252  0.4278 -0.9800
   72MOL    H4425746   4.984   5.851   6.042 -1.4139  0.9581  2.0447
   72MOL    H4525747   5.091   5.938   5.942  0.9675  1.8105  0.1075
   72MOL    H4625748   5.109   6.041   6.210 -0.4865 -1.8176  0.9974
   72MOL    H4725749   4.879   5.911   6.230 -1.0664 -0.0066  0.4315
   72MOL    H4825750   4.812   6.036   6.131 -0.7621 -2.1912 -0.5037
   72MOL    H4925751   4.891   6.208   6.284 -0.2256  0.5757  1.1168
   72MOL    H5025752   4.920   5.972   6.484 -0.1609  0.6431  0.4247
   72MOL    H5125753   5.069   6.058   6.415 -0.6067 -2.7489 -2.2010
   72MOL    H5225754   4.955   6.132   6.520  2.2192  0.2502  0.8985
   72MOL    H5325755   4.699   6.194   6.421  1.1260 -1.7487  1.5792
   72MOL    H5425756   4.689   6.029   6.386  1.5939 -0.3718 -1.1307
   72MOL    H5525757   4.669   6.146   6.253  0.2531 -3.3366 -2.3574
   72MOL    C5625758   5.035   6.157   6.028 -0.4669  0.8178 -0.6732
   72MOL    C5725759   5.172   6.200   5.955  0.5089 -0.5353  0.0883
   72MOL    C5825760   5.261   6.254   6.071 -0.0682 -0.3161 -0.4728
   72MOL    C5925761   5.388   6.170   6.101  0.0922 -0.3347 -0.0429
   72MOL    C6025762   5.455   6.217   6.237  0.4233  0.0365 -0.3289
   72MOL    C6125763   5.490   6.168   5.989  0.6880 -0.1931  0.6298
   72MOL    H6225764   4.996   6.240   6.086 -0.7676 -2.0178  3.3600
   72MOL    H6325765   4.957   6.129   5.957 -0.6659  1.9882 -0.9278
   72MOL    H6425766   5.218   6.112   5.910  0.5120 -1.0244  1.0166
   72MOL    H6525767   5.292   6.357   6.050 -0.3822 -0.3260 -0.9951
   72MOL    H6625768   5.204   6.253   6.163 -0.4709 -0.8442 -0.7285
   72MOL    H6725769   5.367   6.063   6.105 -0.8644 -0.1732 -0.5652
   72MOL    H6825770   5.482   6.322   6.241 -0.3947  0.2064  0.7523
   72MOL    H6925771   5.551   6.164   6.241 -1.6079 -3.7132  1.7514
   72MOL    H7025772   5.400   6.185   6.325 -1.1691 -0.2387 -1.4093
   72MOL    H7125773   5.456   6.123   5.896  1.0164  0.2597  0.2836
   72MOL    H7225774   5.589   6.125   6.005  0.6400 -1.5694 -2.5297
   72MOL    H7325775   5.508   6.271   5.957 -0.6318 -0.7229 -1.9887
   72MOL    C7425776   5.133   6.307   5.850  0.2024 -0.4600 -0.7036
   72MOL    C7525777   5.112   6.250   5.710 -0.5249 -0.8209  0.1782
   72MOL    C7625778   5.009   6.129   5.698 -0.5743 -1.0034 -0.0377
   72MOL    C7725779   4.972   6.074   5.561  0.3908 -0.3384  0.0234
   72MOL    C7825780   4.931   6.191   5.462 -0.5445  0.1843  0.1145
   72MOL    C7925781   4.864   5.965   5.582 -0.5100 -1.2521  0.2700
   72MOL    H8025782   5.217   6.376   5.842  0.8495 -1.2102 -0.3855
   72MOL    H8125783   5.053   6.371   5.886  1.4177  1.2019 -0.8678
   72MOL    H8225784   5.048   6.326   5.666 -0.3400 -1.2091 -0.7772
   72MOL    H8325785   5.048   6.050   5.761  2.8391  0.3632 -0.3476
   72MOL    H8425786   4.914   6.144   5.750  1.2588  0.4813  2.9690
   72MOL    H8525787   5.057   6.020   5.520 -0.5268 -1.9300  0.1829
   72MOL    H8625788   5.004   6.270   5.449 -0.0558 -0.0627  1.2580
   72MOL    H8725789   4.836   6.239   5.485 -0.8872  0.0704 -1.0442
   72MOL    H8825790   4.911   6.141   5.367 -2.5177  1.2418 -0.0510
   72MOL    H8925791   4.899   5.879   5.639 -1.0559 -2.9010 -1.7929
   72MOL    H9025792   4.773   5.993   5.634 -1.1913 -0.2005 -1.4456
   72MOL    H9125793   4.839   5.932   5.481 -1.4315 -1.0392  0.4278
   72MOL    C9225794   5.234   6.222   5.611 -0.4390 -0.0142  0.5712
   72MOL    C9325795   5.346   6.333   5.619 -0.7508 -0.0607 -0.5426
   72MOL    C9425796   5.458   6.308   5.509  0.5417 -0.2832 -0.5288
   72MOL    C9525797   5.506   6.167   5.476 -0.2707  0.6862 -0.3515
   72MOL    C9625798   5.575   6.172   5.342  0.2940  0.0947  0.1518
   72MOL    C9725799   5.593   6.104   5.590 -0.3770  0.9900  0.2646
   72MOL    H9825800   5.284   6.127   5.628 -0.2298  0.0220  0.1727
   72MOL    H9925801   5.203   6.215   5.506 -1.9064  2.6084  0.7900
   72MOL   H10025802   5.388   6.317   5.718  2.5602  0.8057 -1.7530
   72MOL   H10125803   5.546   6.367   5.536  1.3509 -1.8267  0.2653
   72MOL   H10225804   5.420   6.353   5.417  0.4335 -0.4206 -0.5502
   72MOL   H10325805   5.420   6.103   5.461 -0.4177 -0.0479  3.2161
   72MOL   H10425806   5.642   6.256   5.326 -1.7829  1.4892 -1.5658
   72MOL   H10525807   5.515   6.182   5.251 -0.6036  0.4820  0.7750
   72MOL   H10625808   5.629   6.077   5.340  0.1755  0.0322 -0.3759
   72MOL   H10725809   5.684   6.159   5.613  0.6173 -0.6963  0.4378
   72MOL   H10825810   5.639   6.009   5.564 -0.1073  1.3572 -0.6468
   72MOL   H10925811   5.538   6.088   5.683 -0.4720  0.1663  0.0671
   72MOL   C11025812   5.294   6.477   5.611 -0.1415  0.1287  0.2092
   72MOL   C11125813   5.383   6.586   5.659 -0.3574  0.4061 -0.5828
   72MOL   C11225814   5.341   6.721   5.596  0.0538 -0.4035 -0.3361
   72MOL   C11325815   5.428   6.755   5.473 -0.7750 -0.2213 -0.1788
   72MOL   C11425816   5.380   6.890   5.416 -0.8368  0.3359  0.0899
   72MOL   C11525817   5.432   6.651   5.370  0.4997  0.6029 -0.4986
   72MOL   H11625818   5.202   6.486   5.669 -0.9477  0.6754 -1.1236
   72MOL   H11725819   5.258   6.486   5.509 -1.3864 -0.1576  0.6103
   72MOL   H11825820   5.484   6.573   5.620 -1.0048 -1.0445 -1.8268
   72MOL   H11925821   5.360   6.803   5.665  0.3276 -0.5076 -0.2854
   72MOL   H12025822   5.236   6.734   5.570  0.5788  2.2866 -1.3275
   72MOL   H12125823   5.526   6.770   5.518 -0.6977 -1.2000 -0.0213
   72MOL   H12225824   5.274   6.916   5.417 -0.0122  4.0959  3.0246
   72MOL   H12325825   5.404   6.903   5.311  0.4619  2.5733  0.6212
   72MOL   H12425826   5.426   6.975   5.467 -0.4083  1.1640 -1.6297
   72MOL   H12525827   5.496   6.689   5.290  0.5927 -0.3965 -0.8956
   72MOL   H12625828   5.328   6.633   5.346  0.6262 -3.0782  1.3437
   72MOL   H12725829   5.482   6.559   5.400  0.2244  0.4612 -0.4768
   72MOL   C12825830   5.398   6.591   5.820 -0.2541  0.0641  0.1190
   72MOL   C12925831   5.524   6.660   5.880 -0.2047 -0.0765 -0.1830
   72MOL   C13025832   5.640   6.566   5.911 -0.2213 -0.4373  0.4084
   72MOL   C13125833   5.707   6.474   5.805  0.5042  0.0550 -0.1437
   72MOL   C13225834   5.769   6.570   5.700  0.1792  0.0747  0.6294
   72MOL   C13325835   5.811   6.371   5.856 -0.0410 -0.5909  0.1590
   72MOL   H13425836   5.403   6.490   5.861  1.3065  0.1024  0.0497
   72MOL   H13525837   5.308   6.630   5.868 -0.6157  0.9691 -1.2674
   72MOL   H13625838   5.559   6.730   5.804 -1.5305 -0.2167 -0.9307
   72MOL   H13725839   5.716   6.637   5.945  1.1930 -1.5518 -0.4060
   72MOL   H13825840   5.612   6.505   5.997  0.4198 -3.0782 -1.2082
   72MOL   H13925841   5.636   6.414   5.749  0.6891  0.9330 -1.3572
   72MOL   H14025842   5.690   6.618   5.643  0.1819 -1.0574 -0.3412
   72MOL   H14125843   5.825   6.514   5.626  0.8917  2.3598 -0.6125
   72MOL   H14225844   5.836   6.647   5.740  0.4953  0.5179 -0.7213
   72MOL   H14325845   5.906   6.424   5.865  1.1938 -2.9419  1.3752
   72MOL   H14425846   5.782   6.334   5.954  1.3624  0.1853  0.8835
   72MOL   H14525847   5.815   6.292   5.781 -0.1279 -1.2075  0.7997
   72MOL   C14625848   5.475   6.739   5.995  0.3482 -0.7120  0.4095
   72MOL   C14725849   5.405   6.874   5.948 -0.8636 -0.2995 -0.1037
   72MOL   C14825850   5.523   6.969   5.933 -0.1330 -0.0675  0.2199
   72MOL   C14925851   5.495   7.107   5.863 -0.3167 -0.0570 -0.9335
   72MOL   C15025852   5.614   7.205   5.891  0.0849 -0.3561  0.0120
   72MOL   C15125853   5.465   7.108   5.711  0.0671  0.6381  0.1010
   72MOL   H15225854   5.558   6.763   6.062  0.3905 -2.1160  0.8623
   72MOL   H15325855   5.404   6.673   6.044 -1.3179  0.7842  0.0455
   72MOL   H15425856   5.360   6.865   5.849  0.5784 -0.6024 -0.7541
   72MOL   H15525857   5.560   6.995   6.033 -2.6553  2.4234  0.5627
   72MOL   H15625858   5.608   6.924   5.881  0.0954 -0.6743  1.0968
   72MOL   H15725859   5.414   7.156   5.916  1.8172  0.7345  1.7024
   72MOL   H15825860   5.613   7.297   5.834  1.7722  0.5383  1.3833
   72MOL   H15925861   5.704   7.146   5.877 -1.3403 -2.8409  0.8961
   72MOL   H16025862   5.625   7.239   5.994  1.0914  2.9936 -1.1481
   72MOL   H16125863   5.534   7.037   5.664 -0.5118 -0.0757  0.3162
   72MOL   H16225864   5.486   7.210   5.679  0.3005  0.2994 -0.8370
   72MOL   H16325865   5.362   7.075   5.699  0.7857 -2.3507  1.4032
   72MOL   C16425866   5.302   6.932   6.048 -0.0836  0.2641 -0.4570
   72MOL   C16525867   5.163   6.853   6.047  0.2845  0.0573 -0.0731
   72MOL   C16625868   5.129   6.791   6.190  0.4404 -0.6662 -0.0531
   72MOL   C16725869   5.017   6.681   6.192 -0.4823  0.4385 -0.1291
   72MOL   C16825870   5.069   6.545   6.140 -0.8567  0.4393 -0.1645
   72MOL   C16925871   4.964   6.657   6.331 -0.4303 -0.1020  0.5140
   72MOL   H17025872   5.343   6.930   6.149 -0.8902  0.3486 -0.1225
   72MOL   H17125873   5.284   7.038   6.031 -1.6869 -0.0786 -1.0575
   72MOL   H17225874   5.162   6.775   5.972 -1.1781 -0.1005  0.1051
   72MOL   H17325875   5.218   6.749   6.236  0.0683  0.3710  1.6833
   72MOL   H17425876   5.096   6.870   6.258 -0.7014 -0.1317 -1.2167
   72MOL   H17525877   4.928   6.711   6.137 -0.5731 -0.2291 -0.3545
   72MOL   H17625878   5.005   6.462   6.167  0.4720  0.0211  1.8284
   72MOL   H17725879   5.164   6.516   6.186 -1.3320 -0.7761  0.0519
   72MOL   H17825880   5.082   6.550   6.032  2.2797 -2.0800  0.0242
   72MOL   H17925881   5.048   6.652   6.401 -0.6873  1.2679  0.9504
   72MOL   H18025882   4.898   6.570   6.331 -3.7760  2.3097 -0.7148
   72MOL   H18125883   4.905   6.745   6.360 -1.4495  0.0428 -1.8860
   72MOL   C18225884   5.052   6.945   6.017  0.7755  0.1688  0.3023
   72MOL   C18325885   5.038   6.990   5.871  0.1116 -0.6627  0.8031
   72MOL   C18425886   5.017   6.874   5.769  0.7870 -0.1905 -0.2723
   72MOL   C18525887   4.904   6.773   5.804  0.5956 -0.4453  0.1754
   72MOL   C18625888   4.760   6.827   5.790  0.1199  0.5439 -0.2106
   72MOL   C18725889   4.928   6.648   5.719 -0.3498 -0.2761 -0.3779
   72MOL   H18825890   5.062   7.037   6.074 -2.4417  0.5821  0.3180
   72MOL   H18925891   4.953   6.920   6.055  0.3464  0.5043 -0.5530
   72MOL   H19025892   5.136   7.024   5.837 -0.0183 -0.0084  1.0706
   72MOL   H19125893   5.104   6.808   5.766  1.0272  0.1332 -0.4391
   72MOL   H19225894   5.018   6.916   5.668 -0.9292  1.5645  0.4151
   72MOL   H19325895   4.913   6.723   5.900  1.9463 -0.3633  0.1098
   72MOL   H19425896   4.751   6.884   5.698  1.4076 -0.7660 -1.1717
   72MOL   H19525897   4.741   6.895   5.873 -0.7546  0.4086 -0.3012
   72MOL   H19625898   4.684   6.750   5.787  0.4474  0.0241  3.0956
   72MOL   H19725899   4.844   6.580   5.730 -0.8429  0.3790 -0.0306
   72MOL   H19825900   5.014   6.597   5.761 -2.1051 -0.8700  2.6823
   72MOL   H19925901   4.944   6.657   5.611 -1.6478  2.8381 -0.3748
   72MOL   C20025902   4.948   7.112   5.848  0.5017 -0.1269  0.0127
   72MOL   C20125903   5.012   7.250   5.806 -0.0506 -0.5030 -0.2029
   72MOL   C20225904   5.066   7.235   5.658  0.1641 -0.3515 -0.9236
   72MOL   C20325905   4.968   7.215   5.536 -0.3256  0.4798  1.0800
   72MOL   C20425906   4.878   7.336   5.518  0.0253  0.6249  0.3408
   72MOL   C20525907   5.050   7.200   5.401  0.3353 -0.2615 -0.5575
   72MOL   H20625908   4.876   7.135   5.926  0.2822 -1.5543  0.2522
   72MOL   H20725909   4.878   7.087   5.768  1.5482 -1.4219 -0.5171
   72MOL   H20825910   4.928   7.318   5.812  0.0025 -0.3006 -1.4642
   72MOL   H20925911   5.114   7.330   5.636 -0.5303 -0.0828 -1.3043
   72MOL   H21025912   5.150   7.166   5.652  1.1778  0.7871  0.1808
   72MOL   H21125913   4.903   7.130   5.557 -1.7470  0.9517 -1.1967
   72MOL   H21225914   4.803   7.352   5.596 -0.7072 -1.4224  0.0798
   72MOL   H21325915   4.818   7.317   5.429  0.0544  0.1195  0.4242
   72MOL   H21425916   4.939   7.426   5.512  1.5489 -0.5114 -1.7109
   72MOL   H21525917   5.132   7.128   5.404 -0.4421 -1.1411 -0.1722
   72MOL   H21625918   5.094   7.292   5.363  1.3364 -0.3338  0.4224
   72MOL   H21725919   4.971   7.161   5.337 -1.4400  0.8814  0.8864
   72MOL   C21825920   5.110   7.302   5.917 -0.4296 -0.0820 -0.7702
   72MOL   C21925921   5.120   7.457   5.908 -0.0160 -0.6684 -0.5568
   72MOL   C22025922   5.264   7.500   5.960  0.1482 -0.5992 -0.2009
   72MOL   C22125923   5.380   7.507   5.865  0.4327 -0.0283  0.0909
   72MOL   C22225924   5.357   7.624   5.769  0.3002 -0.1368 -0.0629
   72MOL   C22325925   5.508   7.520   5.949  0.3213 -0.0388  0.1634
   72MOL   H22425926   5.062   7.267   6.008  0.4520 -0.1667 -0.3331
   72MOL   H22525927   5.211   7.262   5.925  0.9066  3.4214  0.7583
   72MOL   H22625928   5.101   7.487   5.805 -0.2241 -0.1718 -0.3731
   72MOL   H22725929   5.250   7.604   5.989 -0.1492 -0.6398 -0.1943
   72MOL   H22825930   5.297   7.438   6.044  0.7841 -1.0122 -0.7522
   72MOL   H22925931   5.384   7.416   5.806 -0.4543  1.1503 -1.8349
   72MOL   H23025932   5.424   7.630   5.684 -0.7518  1.9264 -0.7766
   72MOL   H23125933   5.259   7.626   5.721  0.1321  2.3092  0.3101
   72MOL   H23225934   5.354   7.717   5.827 -0.2775 -0.7374  0.8991
   72MOL   H23325935   5.588   7.536   5.877 -0.0341 -1.4733 -0.5590
   72MOL   H23425936   5.507   7.606   6.016  0.5178  0.2709 -0.2269
   72MOL   H23525937   5.523   7.430   6.007 -0.9182 -1.7231 -2.0367
   72MOL   C23625938   5.013   7.530   5.985 -0.5790 -1.1055 -0.4254
   72MOL   C23725939   4.975   7.677   5.967 -0.7092  0.2104 -0.1619
   72MOL   C23825940   4.868   7.716   6.072 -0.6378  0.1371 -0.4094
   72MOL   C23925941   4.928   0.017   6.206 -0.2076 -0.6052 -0.0744
   72MOL   C24025942   4.941   0.166   6.211 -0.0881  0.2301  0.1463
   72MOL   C24125943   4.847   7.719   6.327 -0.1787  0.2566  0.5373
   72MOL   H24225944   5.018   7.502   6.091 -0.0979 -2.5644 -0.8163
   72MOL   H24325945   4.923   7.480   5.949 -0.6025 -1.3961  0.0253
   72MOL   H24425946   5.059   7.739   5.999 -0.0350 -1.3413  1.1345
   72MOL   H24525947   4.813   7.623   6.086  1.4161 -0.8727  1.2785
   72MOL   H24625948   4.789   0.029   6.036  0.0198  0.7050 -0.8378
   72MOL   H24725949   5.032   7.736   6.205  0.1513  0.4602 -2.3157
   72MOL   H24825950   4.993   0.217   6.129 -0.0338 -0.6151 -0.3468
   72MOL   H24925951   4.995   0.202   6.299  1.1487  1.3970 -1.0391
   72MOL   H25025952   4.840   0.207   6.205 -0.3185 -0.4547 -0.8281
   72MOL   H25125953   4.873   0.026   6.415  1.8339  0.8007 -0.3728
   72MOL   H25225954   4.855   7.611   6.341 -2.4258 -0.0218 -0.2533
   72MOL   H25325955   4.743   7.747   6.312 -0.0451  0.4239 -0.0995
   72MOL   C25425956   4.939   7.718   5.822 -0.1488 -0.4895 -0.5217
   72MOL   C25525957   4.941   0.112   5.785 -0.2418  0.6149  0.1544
   72MOL   C25625958   5.082   0.164   5.759  0.1843 -0.0844  0.2976
   72MOL   C25725959   5.092   0.316   5.743 -0.4618  1.0114  0.2655
   72MOL   C25825960   5.238   0.352   5.706 -0.2223 -0.3881 -0.5208
   72MOL   C25925961   5.065   0.393   5.874  0.1339  0.4443 -0.9009
   72MOL   H26025962   5.005   7.669   5.751 -0.7737  1.9844 -2.8734
   72MOL   H26125963   4.838   7.681   5.801 -0.5750 -0.5286  1.4527
   72MOL   H26225964   4.902   0.164   5.873  0.2410 -0.2082  0.8707
   72MOL   H26325965   5.119   0.114   5.669 -0.5764  0.2652 -0.2084
   72MOL   H26425966   5.151   0.125   5.835  1.4527 -0.4781 -1.0263
   72MOL   H26525967   5.040   0.349   5.653  3.9026 -0.7200 -3.0770
   72MOL   H26625968   5.247   0.460   5.695 -3.3610  0.3067  2.8146
   72MOL   H26725969   5.267   0.318   5.606 -1.1672 -2.0989 -0.2311
   72MOL   H26825970   5.316   0.311   5.770 -1.1207  0.5404  1.2010
   72MOL   H26925971   4.992   0.342   5.937  0.5845  0.7383 -0.1301
   72MOL   H27025972   5.156   0.399   5.935 -0.2661  0.6954 -0.3231
   72MOL   H27125973   5.010   0.486   5.864 -2.5370 -0.6822  2.3110
   72MOL   C27225974   4.841   0.137   5.671  0.9207 -0.4403  0.8233
   72MOL   C27325975   4.686   0.111   5.691 -0.1523  0.8105 -0.1504
   72MOL   C27425976   4.623   0.188   5.811 -0.1739 -0.0959  0.2498
   72MOL   C27525977   4.475   0.157   5.842 -0.3175 -1.2207  0.6172
   72MOL   C27625978   4.431   0.232   5.970  0.4568 -0.0902 -0.1692
   72MOL   C27725979   4.454   0.007   5.864  0.4195  0.0619 -0.3153
   72MOL   H27825980   4.862   0.234   5.625  2.0266 -0.7782  0.6090
   72MOL   H27925981   4.865   0.064   5.594  1.2306  2.0952 -1.5749
   72MOL   H28025982   4.662   0.009   5.721  0.4905  1.2395  1.8761
   72MOL   H28125983   4.642   0.293   5.786  0.3978 -0.4029 -0.6078
   72MOL   H28225984   4.672   0.170   5.907  0.8048 -0.6313 -0.3378
   72MOL   H28325985   4.411   0.201   5.765 -1.1758 -0.2273  1.8666
   72MOL   H28425986   4.462   0.179   6.060  0.0306 -0.2147 -0.0942
   72MOL   H28525987   4.489   0.324   5.970 -0.6600  0.6331  0.3927
   72MOL   H28625988   4.326   0.262   5.968  1.0056  1.9189 -0.3210
   72MOL   H28725989   4.491   7.697   5.782  3.5247 -1.0279  1.8157
   72MOL   H28825990   4.508   7.727   5.952 -1.7812  1.1327  1.4712
   72MOL   H28925991   4.352   7.733   5.893  0.1984  0.1152 -1.0266
   72MOL   C29025992   4.609   0.148   5.557  0.0557 -0.2399 -0.1443
   72MOL   C29125993   4.649   0.065   5.432  0.8119  0.4365  0.4467
   72MOL   C29225994   4.641   7.660   5.447  0.6730  0.5240 -0.4266
   72MOL   C29325995   4.504   7.592   5.420  0.4937 -0.5809  0.5342
   72MOL   C29425996   4.523   7.440   5.412  0.6993 -0.4614 -0.2572
   72MOL   C29525997   4.403   7.618   5.532 -0.4969  0.0337 -0.0066
   72MOL   H29625998   4.504   0.127   5.575  0.1337  0.6821  1.4577
   72MOL   H29725999   4.615   0.256   5.543  0.0796 -0.2498 -0.2123
   72MOL   H29826000   4.752   0.086   5.403  0.7471 -0.3708 -0.4098
   72MOL   H29926001   4.689   7.621   5.536 -0.0957 -0.1469 -0.3036
   72MOL   H30026002   4.716   7.634   5.373 -0.5121  0.0240 -1.4814
   72MOL   H30126003   4.457   7.644   5.336 -1.9514 -1.9085  1.0179
   72MOL   H30226004   4.586   7.401   5.332 -0.1705 -0.9308 -0.7234
   72MOL   H30326005   4.431   7.389   5.382 -1.1607  0.9338  2.8531
   72MOL   H30426006   4.558   7.400   5.507  2.4775 -1.6400 -1.3870
   72MOL   H30526007   4.306   7.588   5.493 -0.4207 -3.6276  2.2968
   72MOL   H30626008   4.408   7.726   5.543  2.0789  0.0593 -0.9701
   72MOL   H30726009   4.429   7.556   5.618  1.1171  1.2143  0.3661
   72MOL   C30826010   4.578   0.123   5.309  0.0604 -0.1013 -0.6241
   72MOL   C30926011   4.642   0.245   5.243 -1.1685 -0.4145  0.2214
   72MOL   C31026012   4.784   0.212   5.172 -0.0479  0.2277 -0.6526
   72MOL   C31126013   4.903   0.309   5.172 -0.2499  0.3157 -0.2408
   72MOL   C31226014   4.945   0.351   5.314 -1.2089 -0.5739 -0.7875
   72MOL   C31326015   5.024   0.254   5.100 -0.0007 -0.3107 -0.1504
   72MOL   H31426016   4.569   0.046   5.232  1.1991 -1.5405  0.6346
   72MOL   H31526017   4.475   0.134   5.342 -0.0976 -1.6178 -0.5868
   72MOL   H31626018   4.670   0.317   5.320  1.9834 -2.6578  1.2729
   72MOL   H31726019   4.763   0.174   5.072 -0.5049  1.2924 -0.9714
   72MOL   H31826020   4.834   0.122   5.208 -0.0418  0.4326 -0.1333
   72MOL   H31926021   4.867   0.391   5.110  0.2625 -0.3022 -1.3750
   72MOL   H32026022   4.860   0.404   5.357 -0.9987 -2.2085  1.7916
   72MOL   H32126023   5.029   0.419   5.304 -0.4221 -1.4999 -0.5504
   72MOL   H32226024   4.973   0.262   5.371  0.8248  0.1644 -0.5989
   72MOL   H32326025   5.103   0.327   5.083  1.7878 -2.4114 -0.9842
   72MOL   H32426026   5.056   0.172   5.164 -2.4936  1.0888  3.0138
   72MOL   H32526027   4.988   0.212   5.006 -1.8428  1.7851 -0.4305
   72MOL   C32626028   4.560   0.326   5.150  0.5420 -0.7016  0.2052
   72MOL   C32726029   4.439   0.391   5.221 -0.3723 -0.2916  0.0329
   72MOL   C32826030   4.336   0.444   5.121 -0.3024  0.1654 -0.8449
   72MOL   C32926031   4.287   0.363   4.992  0.9958  0.5371 -0.1367
   72MOL   C33026032   4.207   0.236   5.039  0.3054  0.8564 -0.6359
   72MOL   C33126033   4.196   0.450   4.909 -0.2901  0.1177  0.8872
   72MOL   H33226034   4.518   0.272   5.065 -0.6715 -1.0004  0.9812
   72MOL   H33326035   4.611   0.411   5.104 -1.0318 -0.5267 -1.2868
   72MOL   H33426036   4.382   0.312   5.271 -0.9435 -0.3287 -0.6671
   72MOL   H33526037   4.251   0.476   5.181  1.7461 -0.9923  2.8230
   72MOL   H33626038   4.383   0.537   5.087 -2.8764  1.5431 -0.7612
   72MOL   H33726039   4.364   0.329   4.922  0.4584  0.6043 -0.7602
   72MOL   H33826040   4.274   0.167   5.091 -1.3951  1.4200  2.4110
   72MOL   H33926041   4.171   0.173   4.957 -0.7897 -0.9906  1.2221
   72MOL   H34026042   4.125   0.248   5.109  1.1990  0.0648  0.5707
   72MOL   H34126043   4.134   0.400   4.835 -0.2503 -1.0625  1.6357
   72MOL   H34226044   4.138   0.513   4.977 -1.9558 -1.6418  1.1494
   72MOL   H34326045   4.255   0.515   4.845 -0.0595 -0.7539  0.1997
   72MOL   C34426046   4.490   0.511   5.307  0.0375  0.4183  0.2808
   72MOL   C34526047   4.398   0.538   5.424 -0.3813 -0.4659 -0.6954
   72MOL   C34626048   4.454   0.641   5.522 -0.0578 -0.2841 -0.4258
   72MOL   C34726049   4.572   0.604   5.619  0.3914 -0.0518  0.4451
   72MOL   C34826050   4.529   0.553   5.756  0.4035  0.9981  0.7756
   72MOL   C34926051   4.651   0.733   5.640 -0.5173  0.3050 -0.0523
   72MOL   H35026052   4.505   0.595   5.239 -0.6689 -0.6908 -1.2682
   72MOL   H35126053   4.591   0.501   5.347  0.3564 -2.6006 -1.1312
   72MOL   H35226054   4.370   0.447   5.477  0.7041 -0.0178  0.7027
   72MOL   H35326055   4.484   0.725   5.459 -0.7934  2.8205  3.2051
   72MOL   H35426056   4.374   0.675   5.587 -0.8855  2.6627 -2.8350
   72MOL   H35526057   4.634   0.523   5.579 -0.2033 -0.4907  0.4152
   72MOL   H35626058   4.474   0.459   5.747  0.8995  0.7172  0.6175
   72MOL   H35726059   4.618   0.523   5.811 -0.2063 -0.7528  0.8538
   72MOL   H35826060   4.474   0.632   5.806  0.7617  1.3251  0.6553
   72MOL   H35926061   4.687   0.754   5.539 -3.2112  2.0386 -0.7129
   72MOL   H36026062   4.731   0.713   5.711 -1.2500  0.1701  0.7511
   72MOL   H36126063   4.595   0.822   5.670 -1.4889  0.0578 -1.0843
   72MOL   H36226064   4.314   0.582   5.371 -0.8197  1.2190  1.3114
   73MOL     C126065   4.907   5.965   4.154 -0.2535  0.7540 -0.1768
   73MOL     C226066   4.797   5.958   4.265 -0.4983 -0.5575 -0.9233
   73MOL     C326067   4.753   6.108   4.285  0.2983 -0.2078 -0.1235
   73MOL     C426068   4.680   6.182   4.176  0.0269 -0.1402 -0.0953
   73MOL     C526069   4.623   6.315   4.239  0.3524 -0.2068  0.6083
   73MOL     C626070   4.581   6.104   4.093  0.3458 -0.1746  0.2301
   73MOL     H726071   4.990   6.034   4.175 -0.5348  1.3692 -1.0356
   73MOL     H826072   4.952   5.866   4.143 -0.0356  0.6614  1.3770
   73MOL     H926073   4.715   5.903   4.219  0.1035 -0.7704 -1.7681
   73MOL    H1026074   4.702   6.119   4.380  1.0653  0.1364  0.2543
   73MOL    H1126075   4.846   6.157   4.313  0.0736 -0.4944  1.1171
   73MOL    H1226076   4.751   6.215   4.099 -0.5071  0.5799 -0.2882
   73MOL    H1326077   4.704   6.385   4.258 -1.8276  2.3812  0.6313
   73MOL    H1426078   4.577   6.364   4.154 -0.1024 -0.3354  0.7749
   73MOL    H1526079   4.558   6.310   4.327  1.0876  0.0701  1.1676
   73MOL    H1626080   4.512   6.060   4.164  0.3527 -0.0510  0.3134
   73MOL    H1726081   4.630   6.030   4.030 -0.4668 -0.2743 -0.2952
   73MOL    H1826082   4.519   6.156   4.019  0.1577 -1.3364 -0.4422
   73MOL    H1926083   4.871   5.988   4.054 -1.4880 -1.2176 -0.1995
   73MOL    C2026084   4.857   5.899   4.396  0.4607 -0.5265  0.1669
   73MOL    C2126085   4.900   5.748   4.390  0.1099  0.2921 -0.1684
   73MOL    C2226086   4.986   5.706   4.513 -0.3715  0.2696 -0.2404
   73MOL    C2326087   5.122   5.783   4.539 -0.1526 -0.0548 -0.4638
   73MOL    C2426088   5.200   5.736   4.666 -0.0165  0.2389 -0.7431
   73MOL    C2526089   5.222   5.768   4.417  0.6635 -0.2087  0.3679
   73MOL    H2626090   4.944   5.960   4.419  1.4999 -2.0661  0.3804
   73MOL    H2726091   4.788   5.915   4.478 -1.5007 -0.1757 -1.4984
   73MOL    H2826092   4.971   5.733   4.308 -1.0162 -2.6974 -0.6527
   73MOL    H2926093   5.017   5.603   4.494  1.6906  0.6167  1.0829
   73MOL    H3026094   4.916   5.709   4.597 -0.4510 -2.0885 -0.1879
   73MOL    H3126095   5.088   5.886   4.547  0.6571  0.2307 -0.6816
   73MOL    H3226096   5.170   5.760   4.768 -0.9291 -2.3458 -0.3720
   73MOL    H3326097   5.306   5.762   4.660  0.0280  0.5159  0.9256
   73MOL    H3426098   5.194   5.627   4.670 -2.4344  0.1868 -4.1491
   73MOL    H3526099   5.167   5.796   4.327 -2.7601  0.0510  2.4468
   73MOL    H3626100   5.305   5.838   4.409  0.1789  0.3784  0.3597
   73MOL    H3726101   5.245   5.664   4.399 -0.2821  0.0667 -2.9519
   73MOL    C3826102   4.778   5.659   4.371  0.0737  0.6029  0.3145
   73MOL    C3926103   4.789   5.507   4.355 -0.5000  0.4042 -0.0602
   73MOL    C4026104   4.865   5.468   4.224 -0.3754 -0.2200  0.3819
   73MOL    C4126105   4.924   5.334   4.233 -0.4818 -0.0906 -0.2941
   73MOL    C4226106   5.028   5.318   4.342 -0.3550 -0.2233 -0.0834
   73MOL    C4326107   4.960   5.283   4.095  0.6238  0.0858 -0.1487
   73MOL    H4426108   4.714   5.700   4.293 -1.3550  0.1667  1.2313
   73MOL    H4526109   4.705   5.670   4.452 -1.1874 -4.1593  0.0270
   73MOL    H4626110   4.837   5.474   4.447 -4.2328  0.9287  2.1637
   73MOL    H4726111   4.929   5.546   4.185 -1.4844 -0.2865 -1.6134
   73MOL    H4826112   4.793   5.461   4.143 -2.0899 -1.7418  1.9746
   73MOL    H4926113   4.849   5.266   4.273 -1.9727  1.3319 -0.6342
   73MOL    H5026114   5.079   5.222   4.331 -0.2053 -0.1580  0.0302
   73MOL    H5126115   5.106   5.393   4.344 -0.1528 -0.3847 -1.5909
   73MOL    H5226116   4.984   5.309   4.442 -1.6346 -1.7184 -0.7507
   73MOL    H5326117   5.043   5.345   4.064  0.5801  0.3854  0.3274
   73MOL    H5426118   4.879   5.294   4.022 -0.4650 -0.8247  0.9048
   73MOL    H5526119   4.995   5.180   4.100  1.2618  0.4154  2.7137
   73MOL    C5626120   4.650   5.444   4.374 -0.4101  0.4601  0.4552
   73MOL    C5726121   4.618   5.352   4.500 -0.1478  0.1780 -0.4221
   73MOL    C5826122   4.495   5.257   4.483 -0.1499 -0.2058 -0.2069
   73MOL    C5926123   4.516   5.152   4.370 -0.5515  0.2571 -0.7643
   73MOL    C6026124   4.380   5.105   4.322  0.0576 -0.3932  0.0231
   73MOL    C6126125   4.601   5.028   4.413 -0.0897  0.5235 -0.0383
   73MOL    H6226126   4.622   5.390   4.283  0.2093  0.6708  0.1386
   73MOL    H6326127   4.578   5.525   4.360  1.5743  2.0509 -0.8173
   73MOL    H6426128   4.699   5.280   4.516  0.5524  1.5186  2.4883
   73MOL    H6526129   4.457   5.201   4.569 -0.2978  1.6436  0.9702
   73MOL    H6626130   4.407   5.318   4.461 -1.8901 -1.5227  2.8733
   73MOL    H6726131   4.577   5.181   4.284 -0.7105 -2.6741 -1.9125
   73MOL    H6826132   4.318   5.067   4.403  0.1378  1.7561  1.1305
   73MOL    H6926133   4.393   5.028   4.246  1.0669 -1.9113  1.7181
   73MOL    H7026134   4.318   5.189   4.289  2.5005  2.1285  1.6604
   73MOL    H7126135   4.632   4.971   4.325 -2.0067 -0.8159  0.1162
   73MOL    H7226136   4.538   4.972   4.482  0.0935 -1.3499 -1.3546
   73MOL    H7326137   4.684   5.065   4.473 -0.3863 -1.0209  1.3661
   73MOL    C7426138   4.591   5.436   4.621  0.9873 -0.0070  0.2340
   73MOL    C7526139   4.712   5.484   4.702  0.6403 -0.3496  0.0877
   73MOL    C7626140   4.755   5.367   4.782 -1.2414 -0.5659 -0.9449
   73MOL    C7726141   4.891   5.390   4.849 -0.0512  0.5980 -0.4960
   73MOL    C7826142   5.008   5.407   4.744  0.1381 -0.5437 -0.2108
   73MOL    C7926143   4.909   5.273   4.947 -0.1788  0.3833 -0.0259
   73MOL    H8026144   4.540   5.371   4.692  0.5761 -0.9197 -0.8968
   73MOL    H8126145   4.518   5.512   4.593 -0.1920 -1.0239  0.5093
   73MOL    H8226146   4.796   5.513   4.640  0.7222  1.6391  1.0570
   73MOL    H8326147   4.675   5.354   4.854 -0.4219  4.1633  0.9578
   73MOL    H8426148   4.761   5.267   4.737 -1.0604 -1.3526  0.7670
   73MOL    H8526149   4.873   5.480   4.907 -0.6630 -0.2524  0.6512
   73MOL    H8626150   5.009   5.509   4.705  0.7424  0.5912  2.6520
   73MOL    H8726151   4.996   5.344   4.655  0.6349 -2.0109  0.7383
   73MOL    H8826152   5.108   5.384   4.781 -0.2290  0.4247  1.4057
   73MOL    H8926153   4.877   5.178   4.904 -1.1128  1.3699 -1.5846
   73MOL    H9026154   5.013   5.263   4.978 -0.9577 -0.6909  2.3303
   73MOL    H9126155   4.856   5.280   5.042  0.3321  1.7605  0.1640
   73MOL    C9226156   4.682   5.607   4.788  0.6354 -0.4285 -0.3315
   73MOL    C9326157   4.585   5.606   4.916 -0.2864  0.0284 -0.0444
   73MOL    C9426158   4.625   5.731   5.007  0.4041  0.4495 -0.3140
   73MOL    C9526159   4.757   5.710   5.088  0.6621  0.5231  0.2368
   73MOL    C9626160   4.826   5.844   5.107  0.7018 -0.6481 -0.5145
   73MOL    C9726161   4.737   5.639   5.216  0.0586  0.4283 -0.5135
   73MOL    H9826162   4.779   5.648   4.817  1.7325 -0.6072 -3.5767
   73MOL    H9926163   4.644   5.682   4.718 -1.1864 -0.6992  0.3465
   73MOL   H10026164   4.606   5.513   4.968  0.0110  0.3668  0.4536
   73MOL   H10126165   4.545   5.774   5.069  1.1331  1.5968 -0.1600
   73MOL   H10226166   4.643   5.813   4.937 -0.4466  0.5275 -0.4539
   73MOL   H10326167   4.832   5.653   5.032 -1.1534  1.1155 -2.9438
   73MOL   H10426168   4.908   5.835   5.179 -0.2859  2.1681  1.0561
   73MOL   H10526169   4.758   5.922   5.141  1.1344 -0.8422  0.8550
   73MOL   H10626170   4.874   5.879   5.015  0.2071  0.2323 -0.4450
   73MOL   H10726171   4.822   5.585   5.255 -0.8911  0.2809  1.4059
   73MOL   H10826172   4.655   5.573   5.188  0.8200 -0.3793 -0.8496
   73MOL   H10926173   4.691   5.706   5.289  1.2800 -0.3258  0.9496
   73MOL   C11026174   4.434   5.602   4.879  0.5059  0.3190 -0.2584
   73MOL   C11126175   4.346   5.564   5.009  0.1162 -0.2252  0.3078
   73MOL   C11226176   4.200   5.607   4.995  0.1159  0.6033 -0.1918
   73MOL   C11326177   4.174   5.749   4.947 -0.8895  0.4222 -0.0206
   73MOL   C11426178   4.248   5.860   5.024  0.4254  0.8855  0.5312
   73MOL   C11526179   4.028   5.788   4.958  0.3439 -0.1168 -0.0990
   73MOL   H11626180   4.413   5.520   4.811  1.1604  0.2564 -0.3878
   73MOL   H11726181   4.400   5.691   4.826  0.9797  0.4822 -0.2889
   73MOL   H11826182   4.379   5.615   5.100  4.5673 -1.9346 -0.1904
   73MOL   H11926183   4.175   5.612   5.101 -0.1297  0.0415 -0.2234
   73MOL   H12026184   4.132   5.538   4.944  0.3079  0.8597 -0.7996
   73MOL   H12126185   4.191   5.747   4.839 -1.0046 -0.9466 -0.0217
   73MOL   H12226186   4.239   5.843   5.131 -0.9307  0.2945  0.3294
   73MOL   H12326187   4.214   5.962   5.009 -1.0157  0.3890  0.3473
   73MOL   H12426188   4.355   5.867   5.003 -0.2486  0.5752 -3.3861
   73MOL   H12526189   3.975   5.765   5.050 -0.0500  0.6880 -0.1171
   73MOL   H12626190   3.964   5.744   4.881  0.4624 -2.0311  0.8985
   73MOL   H12726191   4.015   5.897   4.961 -1.2331 -0.3324  1.7415
   73MOL   C12826192   4.342   5.406   5.028 -0.3082  0.4899 -0.4219
   73MOL   C12926193   4.295   5.365   5.175 -0.0382  0.2567  0.4478
   73MOL   C13026194   4.400   5.397   5.289 -0.1901  0.4676  0.1808
   73MOL   C13126195   4.344   5.420   5.431 -0.1038  0.3217 -0.0403
   73MOL   C13226196   4.456   5.404   5.537 -0.5340  0.1271 -0.0159
   73MOL   C13326197   4.283   5.558   5.438 -0.0507 -0.3360 -1.0902
   73MOL   H13426198   4.445   5.375   5.012 -0.8666 -0.2897 -2.7466
   73MOL   H13526199   4.286   5.352   4.951 -1.4544  1.9257 -0.6054
   73MOL   H13626200   4.206   5.423   5.202  0.9113  1.9768 -0.0501
   73MOL   H13726201   4.470   5.314   5.297 -1.6020 -0.5534  2.3451
   73MOL   H13826202   4.448   5.491   5.260 -1.7588  0.5374 -2.2804
   73MOL   H13926203   4.255   5.358   5.447 -0.1428 -0.1714 -2.0691
   73MOL   H14026204   4.515   5.495   5.546 -2.3041  1.3582 -0.6617
   73MOL   H14126205   4.512   5.310   5.528  0.1849  0.3110  2.1987
   73MOL   H14226206   4.413   5.389   5.636  1.4644  0.0342  0.8658
   73MOL   H14326207   4.361   5.632   5.452  0.6458 -0.7526 -2.6903
   73MOL   H14426208   4.227   5.597   5.353  0.2868 -0.8940 -1.5676
   73MOL   H14526209   4.217   5.572   5.524  3.3021  1.4687  1.2905
   73MOL   C14626210   4.254   5.218   5.190 -0.6054 -0.2620  0.2307
   73MOL   C14726211   4.105   5.196   5.199  0.7460  0.5404 -0.3163
   73MOL   C14826212   4.074   5.040   5.211  0.0241  0.0775  0.1797
   73MOL   C14926213   4.131   4.974   5.341 -0.3874  0.0987  0.0329
   73MOL   C15026214   4.090   5.049   5.469 -0.2815 -0.7897 -0.9691
   73MOL   C15126215   4.082   4.831   5.360  0.0243 -0.2408 -0.0291
   73MOL   H15226216   4.297   5.176   5.280  1.3522  2.8180  0.7837
   73MOL   H15326217   4.297   5.169   5.102 -0.1922 -1.4300  1.0701
   73MOL   H15426218   4.070   5.252   5.286  1.1443  0.3174 -0.0123
   73MOL   H15526219   3.967   5.025   5.205 -0.6222  4.5409 -0.9448
   73MOL   H15626220   4.117   4.985   5.127 -0.7910 -0.0369 -0.1601
   73MOL   H15726221   4.238   4.960   5.322 -0.5877 -1.4946 -0.0276
   73MOL   H15826222   4.097   4.985   5.557  2.2124 -0.2093 -0.7084
   73MOL   H15926223   3.986   5.082   5.466  0.4623  2.1445  2.4194
   73MOL   H16026224   4.143   5.145   5.472 -0.1887 -0.8194 -1.5231
   73MOL   H16126225   3.974   4.821   5.368 -0.0971 -0.6634 -2.0354
   73MOL   H16226226   4.119   4.773   5.445 -2.1711 -2.2031 -0.3538
   73MOL   H16326227   4.100   4.775   5.268  0.9591 -1.1711  0.6956
   73MOL   C16426228   4.034   5.262   5.083  0.4702 -0.2007 -0.2563
   73MOL   C16526229   3.881   5.264   5.069 -0.4060 -0.7436  0.6257
   73MOL   C16626230   3.811   5.284   5.203 -0.3373  0.3049 -0.2846
   73MOL   C16726231   3.795   5.426   5.253 -0.1316  0.6212  0.8928
   73MOL   C16826232   3.677   5.435   5.348  0.0790  0.4765 -0.0200
   73MOL   C16926233   3.924   5.478   5.319  0.6089 -0.1140  0.3122
   73MOL   H17026234   4.078   5.360   5.063  0.3156 -0.5266 -2.2789
   73MOL   H17126235   4.059   5.190   5.004  0.7461  0.0380 -0.3895
   73MOL   H17226236   3.858   5.165   5.031  0.2582 -1.3690  1.7995
   73MOL   H17326237   3.715   5.232   5.200 -1.7921  2.7978  1.0930
   73MOL   H17426238   3.846   5.220   5.284  0.5101  1.8885  0.6285
   73MOL   H17526239   3.778   5.484   5.162 -0.5481 -0.1984  0.4402
   73MOL   H17626240   3.695   5.368   5.433 -0.6542 -0.5289 -0.6392
   73MOL   H17726241   3.581   5.405   5.305  0.2374  0.7867 -0.5922
   73MOL   H17826242   3.664   5.535   5.389 -1.2429  0.3525 -0.0969
   73MOL   H17926243   3.907   5.581   5.350  1.0054 -0.2534  1.0043
   73MOL   H18026244   3.994   5.475   5.235  0.7576 -1.5948  0.4632
   73MOL   H18126245   3.945   5.410   5.401 -2.8786 -0.3982  1.0259
   73MOL   C18226246   3.842   5.350   4.948 -0.3641 -0.8552 -0.1598
   73MOL   C18326247   3.691   5.343   4.901 -0.3528 -0.1384 -0.1940
   73MOL   C18426248   3.660   5.453   4.796 -0.0443 -0.2350 -0.5406
   73MOL   C18526249   3.658   5.598   4.859 -0.0987 -0.5764  0.6853
   73MOL   C18626250   3.633   5.698   4.745  0.1624  0.5809  1.1566
   73MOL   C18726251   3.566   5.617   4.980 -0.1270  0.4900 -0.2951
   73MOL   H18826252   3.901   5.310   4.866 -1.6837 -0.3017 -1.4008
   73MOL   H18926253   3.879   5.452   4.961  0.1347 -0.7143 -2.4413
   73MOL   H19026254   3.630   5.362   4.990 -3.1943 -2.1370 -1.6378
   73MOL   H19126255   3.560   5.433   4.759 -0.1394 -1.4078  0.3059
   73MOL   H19226256   3.728   5.458   4.711  0.0967 -1.6796 -0.5345
   73MOL   H19326257   3.755   5.617   4.904 -0.5167  0.0548  1.3291
   73MOL   H19426258   3.632   5.799   4.787  0.4549  1.2211 -0.3491
   73MOL   H19526259   3.541   5.693   4.687  1.0239 -0.9483 -0.0961
   73MOL   H19626260   3.723   5.693   4.683 -1.6003  0.7276 -1.4941
   73MOL   H19726261   3.555   5.722   5.007 -1.0323  0.5843 -1.0193
   73MOL   H19826262   3.590   5.571   5.076 -1.4397  2.7294  1.1295
   73MOL   H19926263   3.469   5.583   4.944  0.0768 -2.4089  1.7232
   73MOL   C20026264   3.659   5.201   4.846 -0.2763  0.2282  0.1895
   73MOL   C20126265   3.550   5.117   4.927 -1.2160 -0.5595  0.1970
   73MOL   C20226266   3.554   4.968   4.877  0.8691 -0.0385 -0.1336
   73MOL   C20326267   3.674   4.882   4.919 -0.4658  0.6761  0.3219
   73MOL   C20426268   3.675   4.855   5.070  0.1614  0.0874  1.0449
   73MOL   C20526269   3.697   4.747   4.844 -0.2266 -0.3798  0.8808
   73MOL   H20626270   3.749   5.141   4.836 -1.5478 -1.9588  1.6858
   73MOL   H20726271   3.620   5.207   4.744  0.9322  0.9325 -0.2482
   73MOL   H20826272   3.578   5.120   5.032  0.8292 -0.1440 -0.3332
   73MOL   H20926273   3.464   4.916   4.908  0.7062  1.4148  1.8932
   73MOL   H21026274   3.548   4.968   4.768  2.9035  0.8132 -0.2623
   73MOL   H21126275   3.762   4.944   4.899  0.9922 -1.3890  0.1140
   73MOL   H21226276   3.689   4.940   5.136  0.6553 -1.7333  3.3575
   73MOL   H21326277   3.751   4.783   5.101  1.9042  2.0479  1.4011
   73MOL   H21426278   3.580   4.808   5.095  0.0797 -0.3479 -0.0483
   73MOL   H21526279   3.713   4.762   4.737  2.0132 -0.0327  1.2423
   73MOL   H21626280   3.612   4.681   4.864 -0.6032 -0.3111 -0.4587
   73MOL   H21726281   3.789   4.706   4.885 -0.1165 -0.8935  0.1358
   73MOL   C21826282   3.414   5.184   4.902  0.3514  0.2303 -0.2025
   73MOL   C21926283   3.281   5.139   4.970 -0.1514 -0.4445 -0.3318
   73MOL   C22026284   3.154   5.208   4.911 -0.2958 -0.0365  0.1957
   73MOL   C22126285   3.116   5.179   4.759 -0.7653  0.2464 -0.2285
   73MOL   C22226286   3.102   5.033   4.736  0.0527 -0.2561  0.9171
   73MOL   C22326287   2.996   5.261   4.715 -0.2105  0.2909  0.3524
   73MOL   H22426288   3.416   5.290   4.924 -0.6161  0.3412 -0.6348
   73MOL   H22526289   3.397   5.193   4.794 -0.9931  1.1676  0.0784
   73MOL   H22626290   3.262   5.035   4.944 -1.5403 -1.0487  2.8639
   73MOL   H22726291   3.063   5.183   4.967  0.0338 -0.2077  0.6596
   73MOL   H22826292   3.162   5.316   4.919  3.7349 -0.1945 -1.0132
   73MOL   H22926293   3.198   5.211   4.696 -0.9334 -0.1096 -0.6274
   73MOL   H23026294   3.057   5.004   4.641  0.4454 -0.2745  0.7323
   73MOL   H23126295   3.196   4.977   4.744  1.2705  1.8459  1.6164
   73MOL   H23226296   3.038   4.989   4.813 -2.7379 -1.2075 -1.8310
   73MOL   H23326297   3.021   5.363   4.745  1.1852 -0.2195  0.9702
   73MOL   H23426298   2.978   5.264   4.608  0.1826 -2.4469  0.1700
   73MOL   H23526299   2.900   5.229   4.756 -0.5597 -0.0511 -0.7164
   73MOL   C23626300   3.273   5.177   5.123  0.1889  1.7739 -0.8723
   73MOL   C23726301   3.185   5.074   5.207 -0.0916  0.6688  0.3188
   73MOL   C23826302   3.161   5.130   5.355 -0.1740  0.0697 -0.1743
   73MOL   C23926303   3.046   5.237   5.364  0.0256 -0.4248  0.6651
   73MOL   C24026304   2.909   5.162   5.381  0.0236  0.7801 -0.1641
   73MOL   C24126305   3.071   5.327   5.495  0.4811  0.3270 -0.4588
   73MOL   H24226306   3.235   5.279   5.125 -0.5611  1.4897 -0.8223
   73MOL   H24326307   3.370   5.178   5.173 -1.2633  2.1494  2.0135
   73MOL   H24426308   3.085   5.060   5.167 -0.7639  0.9841  1.8485
   73MOL   H24526309   3.250   5.160   5.411 -0.2471  0.1677 -0.1114
   73MOL   H24626310   3.133   5.051   5.424  2.7015 -0.5638  0.3484
   73MOL   H24726311   3.043   5.299   5.275  1.1415  1.5484  1.9612
   73MOL   H24826312   2.907   5.110   5.477  2.4024  1.0235  0.0455
   73MOL   H24926313   2.882   5.093   5.301 -0.3931 -0.3354  0.9180
   73MOL   H25026314   2.824   5.228   5.400 -0.6638  0.3128 -1.5503
   73MOL   H25126315   3.164   5.383   5.490  0.7412 -0.1950 -1.9924
   73MOL   H25226316   3.067   5.274   5.590 -2.4622  0.6824 -0.3261
   73MOL   H25326317   2.990   5.399   5.508  0.8305  0.3938  1.4401
   73MOL   C25426318   3.251   4.929   5.222  0.9307 -0.1330  0.3410
   73MOL   C25526319   3.144   4.827   5.279  0.2472  0.0547  0.7223
   73MOL   C25626320   3.064   4.766   5.156 -0.2017  0.1658 -0.1104
   73MOL   C25726321   2.962   4.651   5.191 -0.0184 -0.2663  0.3000
   73MOL   C25826322   2.857   4.622   5.072 -0.5025 -0.0097 -0.1295
   73MOL   C25926323   2.883   4.681   5.319 -0.3058 -0.0429 -0.6405
   73MOL   H26026324   3.289   4.896   5.125 -0.3254  0.4176 -0.3580
   73MOL   H26126325   3.336   4.933   5.290  1.3595 -1.5011 -0.0985
   73MOL   H26226326   3.074   4.875   5.347  1.5772  1.1628  1.3407
   73MOL   H26326327   3.128   4.718   5.082 -2.3750 -0.3555 -1.6802
   73MOL   H26426328   3.012   4.841   5.096 -0.1361  1.4149  1.3633
   73MOL   H26526329   3.018   4.558   5.199  1.1058  0.3293 -0.4037
   73MOL   H26626330   2.904   4.606   4.975 -0.5423  0.5447 -0.2407
   73MOL   H26726331   2.792   4.708   5.054 -0.7058 -0.1613 -0.1137
   73MOL   H26826332   2.801   4.531   5.093  1.9313 -2.1145 -2.2777
   73MOL   H26926333   2.928   4.646   5.412 -1.2073  1.6001  0.4461
   73MOL   H27026334   2.861   4.787   5.335 -0.6697  0.0107 -1.4597
   73MOL   H27126335   2.779   4.648   5.324 -0.0981 -0.6209 -0.0991
   73MOL   C27226336   3.211   4.723   5.369  0.2745 -0.0937  0.1981
   73MOL   C27326337   3.230   4.771   5.519  0.1477  0.2663 -0.8527
   73MOL   C27426338   3.101   4.769   5.608  0.4455  0.7229  0.0492
   73MOL   C27526339   3.109   4.805   5.761 -0.1413 -0.1591 -0.1805
   73MOL   C27626340   2.975   4.810   5.828  0.7855 -0.7774  0.5600
   73MOL   C27726341   3.169   4.946   5.789  0.3705  0.2986 -0.8052
   73MOL   H27826342   3.153   4.631   5.374  1.8984 -1.0241  2.4665
   73MOL   H27926343   3.300   4.688   5.317  0.4416  0.0151  0.4113
   73MOL   H28026344   3.268   4.873   5.526 -1.6466  0.9443 -0.9717
   73MOL   H28126345   3.063   4.667   5.618  1.3902  0.4339  0.6557
   73MOL   H28226346   3.025   4.827   5.555  0.1135 -0.1244 -0.4110
   73MOL   H28326347   3.158   4.720   5.807 -0.5954 -0.2343  0.1770
   73MOL   H28426348   2.924   4.716   5.845  0.3221 -0.1937  2.5564
   73MOL   H28526349   2.952   4.867   5.918 -1.2888 -0.5146 -0.1151
   73MOL   H28626350   2.917   4.872   5.760  1.1452 -0.2514  0.7213
   73MOL   H28726351   3.204   4.965   5.891 -0.7516 -1.2050 -0.1193
   73MOL   H28826352   3.254   4.960   5.722 -0.3062 -0.1891 -1.7754
   73MOL   H28926353   3.106   5.028   5.755 -1.4872 -0.3787  0.9317
   73MOL   C29026354   3.346   4.686   5.574  0.9258  0.2890  0.1727
   73MOL   C29126355   3.492   4.721   5.519  0.8111 -0.0843  0.0104
   73MOL   C29226356   3.553   4.838   5.605  0.1829  0.7414 -1.0621
   73MOL   C29326357   3.537   4.979   5.551 -0.0481 -0.3242 -1.1717
   73MOL   C29426358   3.571   5.102   5.644 -0.4686  0.1207  0.0166
   73MOL   C29526359   3.605   4.990   5.412  0.1107 -0.6681 -0.2219
   73MOL   H29626360   3.344   4.689   5.683 -1.1466  0.4737  0.1501
   73MOL   H29726361   3.315   4.584   5.553 -0.8707  0.8587 -0.0325
   73MOL   H29826362   3.474   4.773   5.425  1.3975 -0.6453 -0.4137
   73MOL   H29926363   3.660   4.821   5.619  0.1156  0.5911 -0.6999
   73MOL   H30026364   3.509   4.830   5.705  1.7838  0.0972 -0.3949
   73MOL   H30126365   3.432   5.002   5.535  0.0907  2.0097  0.9332
   73MOL   H30226366   3.509   5.107   5.733  2.9465 -0.6794  2.5659
   73MOL   H30326367   3.574   5.196   5.589  0.1518  0.6283  0.9077
   73MOL   H30426368   3.671   5.087   5.686 -0.6101 -1.0035 -0.0171
   73MOL   H30526369   3.545   4.974   5.323 -0.4351  0.6436 -0.0990
   73MOL   H30626370   3.678   4.910   5.401 -0.2617 -1.1161  0.5628
   73MOL   H30726371   3.654   5.087   5.400 -0.5435 -0.3351 -0.2276
   73MOL   C30826372   3.587   4.602   5.515  0.2033  0.4770  0.3404
   73MOL   C30926373   3.551   4.471   5.429 -0.3461 -0.3109  0.3214
   73MOL   C31026374   3.566   4.512   5.278 -0.2991 -0.2478  0.0167
   73MOL   C31126375   3.509   4.420   5.170  0.7974  0.8031 -0.1748
   73MOL   C31226376   3.352   4.441   5.155 -0.6069 -0.0230 -0.6521
   73MOL   C31326377   3.586   4.436   5.041 -0.1502 -0.3864  0.6726
   73MOL   H31426378   3.687   4.631   5.485 -0.6618 -0.8420 -4.2553
   73MOL   H31526379   3.597   4.563   5.616  1.0759  0.6786  0.3353
   73MOL   H31626380   3.444   4.457   5.445 -1.0642  1.5865 -2.6112
   73MOL   H31726381   3.671   4.524   5.252 -0.9148  0.5329 -2.1619
   73MOL   H31826382   3.541   4.617   5.266  1.1880  0.1357  0.1228
   73MOL   H31926383   3.518   4.316   5.200  0.4654  1.0025  0.6489
   73MOL   H32026384   3.309   4.442   5.255  2.3752 -1.3088  0.7307
   73MOL   H32126385   3.299   4.362   5.102  1.0039 -0.7815 -1.1788
   73MOL   H32226386   3.322   4.536   5.112  1.1719  1.4055  1.1592
   73MOL   H32326387   3.533   4.367   4.977 -0.4482 -0.6373  1.1837
   73MOL   H32426388   3.603   4.540   5.013 -1.5005 -0.4765 -0.5245
   73MOL   H32526389   3.686   4.395   5.055 -0.6675 -1.4056  1.4412
   73MOL   C32626390   3.649   4.344   5.459  0.3005  0.2939  0.3848
   73MOL   C32726391   3.596   4.261   5.581  0.2178 -0.5836  0.1943
   73MOL   C32826392   3.703   4.166   5.641  0.4403  0.5318  0.2604
   73MOL   C32926393   3.819   4.241   5.709  0.3544 -0.1170 -0.2649
   73MOL   C33026394   3.796   4.238   5.853  0.1147 -0.2936  0.0296
   73MOL   C33126395   3.949   4.181   5.671  0.0079 -0.7091 -0.1425
   73MOL   H33226396   3.750   4.379   5.479  0.4698 -0.6022  1.1759
   73MOL   H33326397   3.658   4.269   5.380 -0.3820  1.2482 -0.6092
   73MOL   H33426398   3.574   4.339   5.653  0.1088 -1.1311  0.7584
   73MOL   H33526399   3.669   4.085   5.705  1.9524 -0.8872 -0.6899
   73MOL   H33626400   3.747   4.103   5.563 -2.6720 -1.2361 -0.1648
   73MOL   H33726401   3.835   4.345   5.684  0.1916  0.1962  0.9192
   73MOL   H33826402   3.812   4.136   5.889  0.8255 -0.4589 -0.7594
   73MOL   H33926403   3.692   4.259   5.876  0.5871 -1.1454  3.1943
   73MOL   H34026404   3.852   4.305   5.918  1.2834 -1.9104  0.7419
   73MOL   H34126405   3.973   4.184   5.565  0.7932 -2.0696 -0.0111
   73MOL   H34226406   4.026   4.236   5.725 -0.0609 -0.4993 -0.2572
   73MOL   H34326407   3.950   4.076   5.702  0.1651 -0.1462  1.8679
   73MOL   C34426408   3.476   4.174   5.541  0.6170 -0.1110 -0.7393
   73MOL   C34526409   3.377   4.142   5.657  0.5147 -0.2552  0.1540
   73MOL   C34626410   3.284   4.271   5.677  0.1864  0.9541  0.8197
   73MOL   C34726411   3.159   4.248   5.769  0.0807  0.0472 -0.2095
   73MOL   C34826412   3.049   4.165   5.691 -0.0654  0.1620  0.1496
   73MOL   C34926413   3.111   4.378   5.826  0.6434 -0.1848  0.5862
   73MOL   H35026414   3.515   4.077   5.509  1.1560  0.0573 -0.5975
   73MOL   H35126415   3.422   4.203   5.451  1.2133 -0.1697 -1.1182
   73MOL   H35226416   3.437   4.111   5.743  0.1111 -0.2902  0.4235
   73MOL   H35326417   3.353   4.342   5.722  0.3134  1.2690  0.1406
   73MOL   H35426418   3.265   4.313   5.578  0.6866  1.6413  1.0133
   73MOL   H35526419   3.181   4.187   5.857 -1.9135  1.4545  1.3186
   73MOL   H35626420   2.972   4.131   5.761  0.4893 -2.3643 -0.4388
   73MOL   H35726421   3.006   4.217   5.606 -1.3855  0.6712  1.1020
   73MOL   H35826422   3.093   4.076   5.647  1.3939  1.4051 -0.9576
   73MOL   H35926423   3.034   4.376   5.903 -1.6893  0.4095 -1.6425
   73MOL   H36026424   3.069   4.444   5.751 -0.4253  0.0997  1.4176
   73MOL   H36126425   3.206   4.425   5.852  0.7183  0.4755 -0.8209
   73MOL   H36226426   3.313   4.055   5.639  1.1406 -0.7577  0.3243
   74MOL     C126427   6.351   3.347   2.420  0.2800 -0.0682  0.0058
   74MOL     C226428   6.400   3.257   2.527  0.1620  0.4430  0.4226
   74MOL     C326429   6.401   3.340   2.655  0.4532 -0.4142 -0.5813
   74MOL     C426430   6.441   3.259   2.782 -0.1887  0.6580 -0.0107
   74MOL     C526431   6.348   3.152   2.823 -0.0274 -0.8689  0.5627
   74MOL     C626432   6.482   3.348   2.898  0.6674  0.3096 -0.3877
   74MOL     H726433   6.307   3.303   2.330 -2.5174  0.6848  0.9614
   74MOL     H826434   6.264   3.403   2.453  0.8512  0.1515  1.1744
   74MOL     H926435   6.323   3.182   2.544  0.4123  0.0758 -0.0296
   74MOL    H1026436   6.472   3.422   2.646 -1.1855  1.1815  0.6845
   74MOL    H1126437   6.297   3.369   2.669  0.4379  0.2745 -2.0207
   74MOL    H1226438   6.534   3.205   2.760 -0.1851 -0.2695  2.1817
   74MOL    H1326439   6.247   3.190   2.840  1.1152  2.1353  0.9593
   74MOL    H1426440   6.352   3.064   2.758 -0.0365 -0.0119 -0.6101
   74MOL    H1526441   6.375   3.113   2.921 -0.6839 -1.4031  0.5383
   74MOL    H1626442   6.549   3.308   2.973  1.0568  0.1330 -0.8230
   74MOL    H1726443   6.389   3.394   2.933  1.1173 -0.1637  1.4611
   74MOL    H1826444   6.546   3.424   2.853 -0.3794  2.1334  1.1001
   74MOL    H1926445   6.428   3.421   2.397 -0.0791  0.3933  0.2836
   74MOL    C2026446   6.525   3.181   2.489 -0.5568 -0.0187 -0.6222
   74MOL    C2126447   6.514   3.108   2.358 -0.6563 -0.1427 -0.1786
   74MOL    C2226448   6.649   3.056   2.316 -0.3427  0.5350  0.0027
   74MOL    C2326449   6.743   3.148   2.229 -0.1724  0.2547  0.4985
   74MOL    C2426450   6.899   3.116   2.256 -0.3214 -0.3254  0.0056
   74MOL    C2526451   6.702   3.139   2.085 -0.1672 -0.2834 -0.3831
   74MOL    H2626452   6.609   3.250   2.483 -1.5243  1.4368  1.4728
   74MOL    H2726453   6.557   3.115   2.570 -1.1180  1.1141  0.5442
   74MOL    H2826454   6.476   3.165   2.273 -0.0677 -0.7415 -0.8578
   74MOL    H2926455   6.647   2.960   2.264  1.8206  1.1941 -1.3474
   74MOL    H3026456   6.698   3.022   2.407 -0.0791 -0.8806 -0.6482
   74MOL    H3126457   6.734   3.254   2.252  1.0443  0.4783 -0.0437
   74MOL    H3226458   6.932   3.019   2.219 -1.1295 -0.0288 -1.5509
   74MOL    H3326459   6.929   3.111   2.361  1.1921  0.9293 -0.3570
   74MOL    H3426460   6.951   3.188   2.193  0.5435 -0.5222  0.4884
   74MOL    H3526461   6.707   3.237   2.037  3.2055 -0.5470 -0.6883
   74MOL    H3626462   6.760   3.068   2.027  1.9294 -0.6522  2.1102
   74MOL    H3726463   6.597   3.112   2.071  0.2732 -1.8678 -0.7187
   74MOL    C3826464   6.418   2.982   2.371  0.0423 -0.0718  0.3961
   74MOL    C3926465   6.376   2.930   2.234  0.1614 -0.5306  0.1274
   74MOL    C4026466   6.268   3.018   2.174  0.3360 -0.0360 -0.4725
   74MOL    C4126467   6.234   2.994   2.023 -0.6452  0.5302 -0.3665
   74MOL    C4226468   6.359   3.032   1.936 -0.2274 -0.5430 -0.1297
   74MOL    C4326469   6.112   3.063   1.972  0.7655  0.4768  0.0649
   74MOL    H4426470   6.324   3.000   2.424  1.3512  0.4025  2.6219
   74MOL    H4526471   6.468   2.901   2.422  1.0864  0.2934 -0.0412
   74MOL    H4626472   6.457   2.938   2.161  0.3845 -2.2603  0.1661
   74MOL    H4726473   6.285   3.125   2.173 -3.8492  0.7143 -1.0464
   74MOL    H4826474   6.174   2.996   2.225  2.1952 -0.8411  2.7411
   74MOL    H4926475   6.212   2.887   2.015 -0.8775  0.3355  2.3838
   74MOL    H5026476   6.443   2.965   1.951  0.5146  0.1900 -0.9271
   74MOL    H5126477   6.335   3.012   1.832 -0.6728  0.0164 -0.1348
   74MOL    H5226478   6.383   3.137   1.951  0.3235 -0.5022 -1.2538
   74MOL    H5326479   6.119   3.171   1.986  0.6058  0.2789  1.6934
   74MOL    H5426480   6.033   3.020   2.033 -0.4888  2.6538  0.0050
   74MOL    H5526481   6.097   3.036   1.867  0.1708 -1.7178  0.6893
   74MOL    C5626482   6.331   2.784   2.238  0.3829  0.4043 -0.0964
   74MOL    C5726483   6.419   2.676   2.162  0.2443 -0.5991 -0.3965
   74MOL    C5826484   6.343   2.544   2.145 -0.4319  0.1154 -0.2653
   74MOL    C5926485   6.248   2.542   2.016  0.0985  0.1864 -0.8127
   74MOL    C6026486   6.160   2.421   2.021 -0.0880  0.7070  0.0363
   74MOL    C6126487   6.335   2.539   1.889  0.3117 -0.1101  0.7331
   74MOL    H6226488   6.228   2.771   2.205  1.1622  0.2649 -2.5607
   74MOL    H6326489   6.322   2.752   2.342  0.1285 -0.8507 -0.5004
   74MOL    H6426490   6.434   2.712   2.060 -0.5125  2.9231  0.6473
   74MOL    H6526491   6.414   2.461   2.144 -1.5419 -0.9468  2.7236
   74MOL    H6626492   6.278   2.525   2.230 -1.7491  1.1436 -1.0325
   74MOL    H6726493   6.174   2.622   2.017 -1.0029 -0.8029 -1.3342
   74MOL    H6826494   6.214   2.327   2.017 -1.2114  0.0560 -0.2602
   74MOL    H6926495   6.077   2.409   1.951 -0.4223 -4.1074  1.1450
   74MOL    H7026496   6.111   2.425   2.118 -0.9388  0.1224 -0.3569
   74MOL    H7126497   6.270   2.524   1.803  0.1736  0.6919  0.6945
   74MOL    H7226498   6.422   2.473   1.887  0.3499 -0.0429 -0.1329
   74MOL    H7326499   6.388   2.629   1.858  2.4575 -1.9876 -1.2661
   74MOL    C7426500   6.550   2.657   2.243  0.4192 -0.2474  0.2997
   74MOL    C7526501   6.674   2.618   2.149 -0.5820 -0.3998 -0.6003
   74MOL    C7626502   6.778   2.543   2.233 -0.3127 -0.0358 -0.1172
   74MOL    C7726503   6.740   2.396   2.258 -0.2786 -0.4243 -0.0379
   74MOL    C7826504   6.843   2.333   2.355  0.4044  0.7324  0.8658
   74MOL    C7926505   6.727   2.302   2.134 -0.5023  0.8714  0.3464
   74MOL    H8026506   6.531   2.574   2.311  1.7774 -0.5928  0.2813
   74MOL    H8126507   6.589   2.741   2.301 -0.4388  1.0572 -0.9780
   74MOL    H8226508   6.641   2.548   2.071  0.3828 -0.3757 -1.0329
   74MOL    H8326509   6.875   2.533   2.186 -0.4657 -3.5869  0.1535
   74MOL    H8426510   6.786   2.594   2.329  1.3300 -1.3800  0.4925
   74MOL    H8526511   6.646   2.391   2.313  0.1551  0.8135  0.8336
   74MOL    H8626512   6.818   2.235   2.396  0.6587  0.0246 -0.6466
   74MOL    H8726513   6.851   2.395   2.445  0.1184 -0.0396  1.4271
   74MOL    H8826514   6.944   2.324   2.315 -0.1551 -2.7343  0.0903
   74MOL    H8926515   6.708   2.201   2.169 -2.1866  1.8799  2.3868
   74MOL    H9026516   6.640   2.323   2.071 -0.0332  0.2765 -0.5144
   74MOL    H9126517   6.806   2.303   2.058  0.3393 -3.3926  1.0587
   74MOL    C9226518   6.731   2.742   2.082 -0.2156  0.3352 -0.4129
   74MOL    C9326519   6.828   2.706   1.970 -0.9357  0.4492  0.3178
   74MOL    C9426520   6.744   2.662   1.845  0.2360 -0.1868  0.3794
   74MOL    C9526521   6.827   2.609   1.722  0.9193  0.1454 -0.1261
   74MOL    C9626522   6.883   2.468   1.760  0.5846  0.1202  0.2649
   74MOL    C9726523   6.740   2.587   1.598 -0.7620 -0.2870 -0.0761
   74MOL    H9826524   6.645   2.799   2.049  0.5895  1.0954 -1.2092
   74MOL    H9926525   6.790   2.810   2.143  1.6289 -1.6768  0.1431
   74MOL   H10026526   6.890   2.622   2.000  0.0175  1.6464  1.8369
   74MOL   H10126527   6.683   2.746   1.811 -1.0447 -1.4335 -0.4276
   74MOL   H10226528   6.673   2.585   1.871 -0.9729  0.4844 -0.8550
   74MOL   H10326529   6.912   2.673   1.700  0.5617  0.8953  0.6123
   74MOL   H10426530   6.902   2.408   1.671 -1.0420 -0.8537  0.5424
   74MOL   H10526531   6.809   2.404   1.809  0.7072 -0.9055 -0.8754
   74MOL   H10626532   6.968   2.484   1.826  0.5262  2.2354 -0.1521
   74MOL   H10726533   6.667   2.507   1.610 -0.4759 -0.6241 -0.5645
   74MOL   H10826534   6.795   2.560   1.508 -1.6149 -0.8197 -0.4473
   74MOL   H10926535   6.678   2.673   1.573 -0.2718 -0.8603 -3.4149
   74MOL   C11026536   6.916   2.825   1.939  0.3758 -0.0992  0.4948
   74MOL   C11126537   7.067   2.790   1.927  0.0799  0.0866 -0.0102
   74MOL   C11226538   7.131   2.909   1.848 -0.5944  0.1798  0.4311
   74MOL   C11326539   7.134   2.896   1.695  0.8425  0.1721 -0.7078
   74MOL   C11426540   7.222   2.779   1.653 -0.0112  0.1519  0.2545
   74MOL   C11526541   7.178   3.028   1.626  0.1437  0.6439  0.2046
   74MOL   H11626542   6.903   2.907   2.010 -0.6655 -0.1097  0.3326
   74MOL   H11726543   6.886   2.889   1.855  1.6063  1.3141  1.1035
   74MOL   H11826544   7.084   2.698   1.872  1.9849  0.0386  0.6506
   74MOL   H11926545   7.235   2.925   1.874 -0.3933  0.5287 -0.5626
   74MOL   H12026546   7.079   3.004   1.861 -0.7884  0.8626 -4.4836
   74MOL   H12126547   7.032   2.878   1.660  0.0853  0.0857  1.4612
   74MOL   H12226548   7.175   2.682   1.666 -1.5214  0.9646  1.0004
   74MOL   H12326549   7.315   2.772   1.710 -0.0046 -1.5315  0.0683
   74MOL   H12426550   7.257   2.792   1.550 -0.2315  1.9311  0.3791
   74MOL   H12526551   7.283   3.041   1.651 -0.0593 -1.5832  2.4457
   74MOL   H12626552   7.138   3.128   1.644 -0.0456  0.5190  0.4885
   74MOL   H12726553   7.172   3.011   1.518  1.2608  0.3302  0.1879
   74MOL   C12826554   7.134   2.774   2.062  0.3214 -0.1653 -0.6222
   74MOL   C12926555   7.260   2.684   2.075  0.1389 -0.9032 -0.3536
   74MOL   C13026556   7.208   2.541   2.064 -0.0400  1.1851  0.4367
   74MOL   C13126557   7.318   2.444   2.014  0.4733  0.1857 -0.6605
   74MOL   C13226558   7.299   2.295   2.065 -1.4321  0.1824 -0.2414
   74MOL   C13326559   7.324   2.442   1.859 -0.6183 -0.4094  0.2576
   74MOL   H13426560   7.056   2.734   2.126  1.2711 -2.4369 -0.8230
   74MOL   H13526561   7.161   2.871   2.103  1.7228 -0.8725  0.1815
   74MOL   H13626562   7.303   2.694   1.975 -1.9447 -2.2415 -1.4258
   74MOL   H13726563   7.165   2.523   2.162  0.6066 -0.4623  0.4386
   74MOL   H13826564   7.115   2.538   2.008  1.9944 -1.1210 -2.9960
   74MOL   H13926565   7.417   2.478   2.043  0.0964 -1.1582  2.3733
   74MOL   H14026566   7.231   2.236   2.004 -1.9220  1.0564 -0.5465
   74MOL   H14126567   7.269   2.305   2.170 -1.9023 -0.7065 -0.2868
   74MOL   H14226568   7.397   2.248   2.058 -0.7880  1.6936 -1.7552
   74MOL   H14326569   7.407   2.379   1.827  0.0587 -1.2925  3.4965
   74MOL   H14426570   7.237   2.402   1.808 -0.1387 -2.9210  1.3135
   74MOL   H14526571   7.336   2.542   1.819  1.9371 -0.8367 -0.1342
   74MOL   C14626572   7.354   2.703   2.193 -0.3850 -0.1639 -0.0047
   74MOL   C14726573   7.486   2.776   2.168 -0.1697 -0.3769  0.7260
   74MOL   C14826574   7.612   2.734   2.256  0.2322 -0.2588 -0.1297
   74MOL   C14926575   7.672   2.594   2.217 -0.6141  0.4416  0.1999
   74MOL   C15026576   7.736   2.604   2.079 -0.6151 -0.5121 -0.1849
   74MOL   C15126577   0.024   2.557   2.322 -0.0881 -1.1428  0.4274
   74MOL   H15226578   7.367   2.605   2.239 -0.2675 -0.8794 -1.4981
   74MOL   H15326579   7.295   2.758   2.266  1.5250  1.2090  0.5024
   74MOL   H15426580   7.513   2.750   2.066  0.8613  2.0011  0.3674
   74MOL   H15526581   7.702   2.795   2.245  0.7697 -0.3796  3.3068
   74MOL   H15626582   7.589   2.740   2.362 -0.0125  1.5679 -0.2804
   74MOL   H15726583   7.591   2.521   2.215 -0.8692  0.7398 -0.7267
   74MOL   H15826584   0.054   2.687   2.068 -0.3099 -0.7212  0.1774
   74MOL   H15926585   7.660   2.633   2.006  0.7645  3.2497 -0.2811
   74MOL   H16026586   0.045   2.518   2.052  0.4777 -0.2381  1.3516
   74MOL   H16126587   0.106   2.629   2.317 -1.0029 -0.1806 -0.9012
   74MOL   H16226588   0.070   2.460   2.305  2.0993 -0.2381  1.0431
   74MOL   H16326589   7.744   2.552   2.426  0.9555 -1.5772  0.7381
   74MOL   C16426590   7.463   2.923   2.189 -0.2270  0.5718  0.2160
   74MOL   C16526591   7.568   3.009   2.117 -0.1702 -0.0668  0.0661
   74MOL   C16626592   7.521   3.050   1.971  0.0111  0.1884 -0.0891
   74MOL   C16726593   7.633   3.092   1.874 -0.4814 -0.2714  0.6555
   74MOL   C16826594   7.747   2.987   1.849  0.4248 -0.6189  0.0494
   74MOL   C16926595   7.575   3.144   1.740  0.2961 -0.4318 -0.3228
   74MOL   H17026596   7.366   2.959   2.154  0.4902  2.0818 -0.3010
   74MOL   H17126597   7.471   2.945   2.295 -0.2291 -0.2391  0.3817
   74MOL   H17226598   7.668   2.968   2.101 -0.7033 -0.8218 -1.3197
   74MOL   H17326599   7.469   2.965   1.926  2.3167 -1.6076  0.4954
   74MOL   H17426600   7.443   3.126   1.977 -1.1456 -1.1284  2.3020
   74MOL   H17526601   7.677   3.181   1.920  0.1058 -0.5703  0.6851
   74MOL   H17626602   7.698   2.900   1.804 -3.0267  0.5515  1.3775
   74MOL   H17726603   0.042   2.962   1.944 -0.1536  1.1594  0.8262
   74MOL   H17826604   0.078   3.018   1.785  1.7564 -1.3691  1.3775
   74MOL   H17926605   7.522   3.075   1.674  0.2309 -2.9375  2.2514
   74MOL   H18026606   7.659   3.179   1.681  1.2037 -0.5631  0.8751
   74MOL   H18126607   7.510   3.225   1.774  1.2181 -0.7501  2.3149
   74MOL   C18226608   7.611   3.135   2.200  0.4486  0.0589 -0.1365
   74MOL   C18326609   7.702   3.106   2.336 -0.4335  0.1015  0.3972
   74MOL   C18426610   0.096   3.105   2.283  0.7513  0.6358  0.9104
   74MOL   C18526611   0.190   2.988   2.309 -0.7416  0.5046 -0.2537
   74MOL   C18626612   0.323   3.003   2.236 -0.7516 -0.3640 -0.2138
   74MOL   C18726613   0.212   2.959   2.454 -0.0200  0.2012 -0.3892
   74MOL   H18826614   7.516   3.179   2.233 -0.9468 -1.6536 -1.7685
   74MOL   H18926615   7.663   3.205   2.135  0.5699  1.0485  1.0052
   74MOL   H19026616   7.689   3.006   2.376  0.0474 -0.2307 -0.2680
   74MOL   H19126617   0.141   3.201   2.312  0.4867  1.5520 -1.6012
   74MOL   H19226618   0.106   3.114   2.175  3.3200  2.3869  1.2346
   74MOL   H19326619   0.155   2.895   2.266  2.2087 -0.6501 -0.2583
   74MOL   H19426620   0.314   3.013   2.127  2.4176  0.5275 -0.4418
   74MOL   H19526621   0.365   2.903   2.241  2.1449  0.8074  0.0322
   74MOL   H19626622   0.391   3.079   2.274  1.6174 -1.3701 -2.3474
   74MOL   H19726623   0.277   3.037   2.494 -0.0392  0.1165 -0.1908
   74MOL   H19826624   0.255   2.859   2.455  0.9824  0.5925 -1.9747
   74MOL   H19926625   0.125   2.953   2.519  0.6236  0.1101  0.4668
   74MOL   C20026626   7.685   3.202   2.450 -0.2513  0.9122  0.2715
   74MOL   C20126627   7.555   3.180   2.541  0.1399  0.1914 -0.5713
   74MOL   C20226628   7.446   3.287   2.504 -0.9872  0.0598 -0.1135
   74MOL   C20326629   7.307   3.281   2.554  0.2545 -0.1619 -0.0956
   74MOL   C20426630   7.229   3.396   2.492  0.3242  0.4546 -0.4336
   74MOL   C20526631   7.230   3.150   2.519  0.2841  0.0589  0.1007
   74MOL   H20626632   7.690   3.309   2.433 -2.3764  0.8192 -1.0927
   74MOL   H20726633   0.014   3.185   2.520  0.5278  0.4367 -0.7433
   74MOL   H20826634   7.512   3.083   2.515  0.1937  0.5498 -2.0744
   74MOL   H20926635   7.490   3.383   2.532  0.7990 -0.7628 -0.0104
   74MOL   H21026636   7.424   3.289   2.397  0.9668 -0.9072 -0.5492
   74MOL   H21126637   7.299   3.300   2.661  0.3825  1.5854 -0.3657
   74MOL   H21226638   7.209   3.389   2.386  0.1720 -0.0066 -0.3747
   74MOL   H21326639   7.277   3.492   2.509 -0.1566  0.5084  0.6980
   74MOL   H21426640   7.129   3.397   2.536 -0.2043 -0.9434 -1.5879
   74MOL   H21526641   7.133   3.151   2.568 -0.6193  1.1851 -1.6462
   74MOL   H21626642   7.281   3.057   2.542 -0.3535 -0.7818 -1.8141
   74MOL   H21726643   7.214   3.132   2.412 -0.7108  1.9271 -0.0860
   74MOL   C21826644   7.593   3.195   2.694 -1.1503  0.5081 -0.6268
   74MOL   C21926645   7.653   3.062   2.763  0.7525 -0.9212 -0.0059
   74MOL   C22026646   7.551   2.944   2.769 -0.0640  0.0718 -0.4066
   74MOL   C22126647   7.585   2.844   2.661  0.3805  0.8763  0.0589
   74MOL   C22226648   7.703   2.749   2.708  0.1541  0.0058  0.7262
   74MOL   C22326649   7.454   2.774   2.620  0.1750 -0.0705  0.5152
   74MOL   H22426650   7.659   3.281   2.703 -0.5443  0.1157 -1.3459
   74MOL   H22526651   7.506   3.230   2.750  0.5931  1.8193  1.3524
   74MOL   H22626652   7.743   3.043   2.706  0.4577  0.7740 -1.1045
   74MOL   H22726653   7.556   2.900   2.869 -1.7371 -0.3258 -0.4926
   74MOL   H22826654   7.452   2.988   2.768  0.2699  0.8102 -1.1919
   74MOL   H22926655   7.630   2.894   2.576  1.5435  0.9297  0.7011
   74MOL   H23026656   7.711   2.658   2.648 -2.4822 -1.2964  2.3160
   74MOL   H23126657   0.045   2.804   2.706  0.6824 -0.9033 -0.7908
   74MOL   H23226658   7.685   2.714   2.809  0.4379  2.2247  1.5949
   74MOL   H23326659   7.385   2.823   2.552 -0.0489 -2.4016 -0.9843
   74MOL   H23426660   7.469   2.676   2.575  0.9223 -0.6687  2.0348
   74MOL   H23526661   7.395   2.751   2.709 -2.2578  2.4077 -0.3824
   74MOL   C23626662   7.698   3.107   2.908 -0.6655  0.0640 -0.8055
   74MOL   C23726663   0.059   3.030   2.965  0.3024 -0.6136 -0.4651
   74MOL   C23826664   0.047   3.014   3.121 -0.3725  0.5779  0.3845
   74MOL   C23926665   7.698   2.900   3.148  0.4776 -0.1707 -0.7551
   74MOL   C24026666   0.013   2.767   3.125  0.3882 -0.3372 -0.0776
   74MOL   C24126667   7.642   2.914   3.293  0.0795  0.4642 -0.0027
   74MOL   H24226668   7.613   3.102   2.975 -0.4739 -0.2300 -0.5850
   74MOL   H24326669   7.726   3.213   2.904  2.2789 -0.5968  0.9850
   74MOL   H24426670   0.057   2.929   2.925  0.1034 -0.5399 -0.6444
   74MOL   H24526671   0.008   3.107   3.162 -0.4512 -0.1659  2.0428
   74MOL   H24626672   0.146   3.000   3.163 -0.7717 -0.9652  0.8379
   74MOL   H24726673   7.617   2.923   3.079  1.5595 -1.1188 -2.3938
   74MOL   H24826674   0.104   2.765   3.184 -0.0366 -1.3973  0.5521
   74MOL   H24926675   0.036   2.749   3.020  1.8609  1.2095 -0.0498
   74MOL   H25026676   7.704   2.686   3.163 -0.9056  0.3178 -0.7148
   74MOL   H25126677   7.727   2.911   3.361 -1.3774 -3.0687  1.7804
   74MOL   H25226678   7.575   2.830   3.311 -0.7275  1.6247  2.6308
   74MOL   H25326679   7.587   3.007   3.312 -1.0422  0.6204 -3.4996
   74MOL   C25426680   0.190   3.100   2.924  0.3580 -0.6318  0.4092
   74MOL   C25526681   0.322   3.016   2.943 -0.3012  0.1716  0.6308
   74MOL   C25626682   0.330   2.905   2.827 -0.2410  0.0633 -0.2697
   74MOL   C25726683   0.456   2.814   2.843 -0.2773  0.4757 -0.4681
   74MOL   C25826684   0.440   2.706   2.727 -0.2573  0.3931 -0.4574
   74MOL   C25926685   0.485   2.744   2.974  0.6273  0.1471 -0.1855
   74MOL   H26026686   0.186   3.131   2.820  2.2290  0.6991  0.7190
   74MOL   H26126687   0.185   3.191   2.983  0.7758 -1.6679  2.0895
   74MOL   H26226688   0.322   2.966   3.039  0.6801  0.1555  0.6338
   74MOL   H26326689   0.319   2.948   2.727  0.2198  0.5464 -0.1149
   74MOL   H26426690   0.251   2.832   2.841  0.9570 -1.4529 -1.3218
   74MOL   H26526691   0.552   2.863   2.825 -0.9444  1.6724 -0.8950
   74MOL   H26626692   0.374   2.728   2.644 -0.9791  1.3629  0.3713
   74MOL   H26726693   0.398   2.614   2.767  0.9054  0.1394  0.2359
   74MOL   H26826694   0.535   2.686   2.677 -0.9894 -0.4918 -1.5174
   74MOL   H26926695   0.386   2.721   3.014  0.8643  2.9861  2.2330
   74MOL   H27026696   0.539   2.650   2.967  1.5688  0.6689 -0.0602
   74MOL   H27126697   0.543   2.808   3.041 -1.4018  2.8136 -0.8752
   74MOL   C27226698   0.454   3.108   2.942  0.1500 -0.9485 -0.3957
   74MOL   C27326699   0.480   3.196   3.064 -0.0678 -0.1622 -0.3160
   74MOL   C27426700   0.515   3.104   3.184  1.0972  0.5473  0.6418
   74MOL   C27526701   0.520   3.175   3.321  0.2053  0.3398  0.2917
   74MOL   C27626702   0.547   3.079   3.435 -0.2555  0.3294 -0.3792
   74MOL   C27726703   0.413   3.273   3.355 -0.0774  0.1713 -0.0210
   74MOL   H27826704   0.546   3.049   2.938 -0.0879 -1.2736 -1.2171
   74MOL   H27926705   0.449   3.168   2.852  0.7883  0.7007  0.6455
   74MOL   H28026706   0.388   3.250   3.088  1.4280  2.4187 -0.1665
   74MOL   H28126707   0.612   3.053   3.176 -0.2413 -1.9797 -0.1397
   74MOL   H28226708   0.444   3.023   3.199 -0.6612  1.9638  0.0913
   74MOL   H28326709   0.603   3.246   3.330 -0.5606  0.9985  2.6752
   74MOL   H28426710   0.547   3.129   3.532  0.9229  1.1268 -0.7846
   74MOL   H28526711   0.473   3.001   3.454  0.4758 -0.4428 -0.6991
   74MOL   H28626712   0.640   3.025   3.423 -0.9481 -0.6788 -1.3076
   74MOL   H28726713   0.428   3.364   3.296  2.5713 -1.3792 -1.8710
   74MOL   H28826714   0.310   3.238   3.360 -0.1191  0.2198 -0.4692
   74MOL   H28926715   0.433   3.320   3.451  2.8633 -1.4356  0.2175
   74MOL   C29026716   0.577   3.322   3.047 -0.1953 -0.5372 -0.0188
   74MOL   C29126717   0.555   3.411   2.921  0.0236  0.2604  0.7607
   74MOL   C29226718   0.416   3.485   2.934  0.3891 -0.5196  0.2945
   74MOL   C29326719   0.366   3.556   2.807 -0.1237  0.2040 -0.1118
   74MOL   C29426720   0.271   3.463   2.727 -0.3835  0.0591 -0.0286
   74MOL   C29526721   0.292   3.692   2.833 -0.0452  0.1201  0.3497
   74MOL   H29626722   0.559   3.391   3.129 -2.1825 -0.4693 -0.4901
   74MOL   H29726723   0.684   3.304   3.063 -0.0665  0.9060  0.8427
   74MOL   H29826724   0.550   3.342   2.836 -4.0853 -0.8675  1.8345
   74MOL   H29926725   0.426   3.557   3.016  1.4284 -0.8525  0.4624
   74MOL   H30026726   0.333   3.425   2.971  0.1552 -0.9991 -1.0115
   74MOL   H30126727   0.452   3.578   2.744 -0.6763  0.9382 -0.6130
   74MOL   H30226728   0.321   3.373   2.691  0.0593  0.3184 -0.0726
   74MOL   H30326729   0.237   3.516   2.638  0.4909  0.5615 -0.0773
   74MOL   H30426730   0.183   3.431   2.782 -0.5487  0.9275  0.2187
   74MOL   H30526731   0.331   3.755   2.912 -0.1173 -1.0965  1.3690
   74MOL   H30626732   0.185   3.680   2.845 -0.3463  2.8279  0.6503
   74MOL   H30726733   0.299   3.740   2.735 -0.2420 -1.7280 -0.5980
   74MOL   C30826734   0.682   3.505   2.894  0.6640 -0.2868 -0.3594
   74MOL   C30926735   0.817   3.450   2.844 -0.4351 -0.0423  0.2572
   74MOL   C31026736   0.818   3.415   2.694  0.6023  0.3483  0.2842
   74MOL   C31126737   0.903   3.291   2.670 -0.7151 -0.1664  0.4527
   74MOL   C31226738   0.841   3.166   2.720  0.0309 -0.3001 -0.5340
   74MOL   C31326739   0.945   3.281   2.530 -0.0167 -0.5117 -0.2749
   74MOL   H31426740   0.655   3.592   2.834 -1.6740  0.3103  1.5237
   74MOL   H31526741   0.692   3.556   2.989 -1.5496 -0.5499  0.0205
   74MOL   H31626742   0.832   3.359   2.902 -1.4149  0.6429  1.6375
   74MOL   H31726743   0.872   3.495   2.643 -0.9171  0.6434 -0.9162
   74MOL   H31826744   0.719   3.410   2.647  0.5087 -0.1528  0.5378
   74MOL   H31926745   0.998   3.290   2.722  0.1862 -0.0702 -1.1643
   74MOL   H32026746   0.733   3.176   2.706 -0.1656 -2.1124 -0.4655
   74MOL   H32126747   0.858   3.139   2.824  0.6738 -0.8787 -0.7837
   74MOL   H32226748   0.872   3.082   2.657 -0.2965 -1.2765  0.5886
   74MOL   H32326749   0.866   3.251   2.462 -0.1584 -3.1484  0.9673
   74MOL   H32426750   0.972   3.375   2.483  1.0762 -0.1158  1.0927
   74MOL   H32526751   1.028   3.212   2.515  0.1612 -0.2208 -0.6160
   74MOL   C32626752   0.936   3.548   2.881 -0.5844  0.4543  0.0691
   74MOL   C32726753   0.939   3.600   3.027  0.2590 -0.4565 -0.1062
   74MOL   C32826754   1.058   3.697   3.042  0.1418 -0.1637 -0.2913
   74MOL   C32926755   1.053   3.835   2.980 -0.3632 -0.4729 -0.1925
   74MOL   C33026756   0.953   3.930   3.044 -0.4936 -0.9384 -0.0946
   74MOL   C33126757   1.195   3.896   2.998  0.6836  0.5381 -0.1512
   74MOL   H33226758   0.921   3.633   2.814 -0.1386 -1.4426 -2.4846
   74MOL   H33326759   1.029   3.495   2.862 -0.4021  0.4467  0.9719
   74MOL   H33426760   0.853   3.666   3.044  0.2766 -0.7767  1.2811
   74MOL   H33526761   1.069   3.718   3.149  0.5464 -2.1767  0.0835
   74MOL   H33626762   1.151   3.651   3.010  0.2723 -0.3782  0.3737
   74MOL   H33726763   1.033   3.830   2.873 -1.4548  0.3936 -0.0472
   74MOL   H33826764   1.004   3.974   3.130 -4.1975  0.2278  1.6397
   74MOL   H33926765   0.870   3.876   3.090 -1.2587  0.4306  0.1767
   74MOL   H34026766   0.925   4.013   2.979 -1.9169 -0.7245  0.7659
   74MOL   H34126767   1.198   4.002   2.970  2.3813  0.1983 -1.3796
   74MOL   H34226768   1.230   3.900   3.101  0.5116 -0.7941 -0.0462
   74MOL   H34326769   1.259   3.832   2.937 -0.9734  0.6100 -2.0045
   74MOL   C34426770   0.917   3.494   3.153  0.1359  0.1286  0.0062
   74MOL   C34526771   1.001   3.364   3.147 -0.8429 -0.2740  0.2922
   74MOL   C34626772   0.969   3.265   3.257  0.6605 -0.5853  0.2085
   74MOL   C34726773   1.026   3.124   3.220 -0.0666  0.3758 -0.4498
   74MOL   C34826774   0.943   3.049   3.115 -0.6525  0.3364  0.0071
   74MOL   C34926775   1.050   3.042   3.343  0.4053 -0.2412 -0.0078
   74MOL   H35026776   0.812   3.463   3.160  0.6081 -1.5496 -0.0604
   74MOL   H35126777   0.952   3.552   3.238 -0.8594  0.0004  0.5110
   74MOL   H35226778   1.109   3.372   3.154 -1.0140  0.0718  2.7907
   74MOL   H35326779   1.009   3.280   3.357  0.0072  1.3874  0.1970
   74MOL   H35426780   0.861   3.267   3.271  0.7679  1.7483  1.0165
   74MOL   H35526781   1.127   3.138   3.181  1.0612 -0.5617  2.0236
   74MOL   H35626782   1.002   3.053   3.024  2.6075 -1.7944  1.9436
   74MOL   H35726783   0.922   2.944   3.136  1.0677  0.0604  0.3808
   74MOL   H35826784   0.844   3.088   3.092 -0.3182 -0.9088 -3.8407
   74MOL   H35926785   1.112   3.077   3.425  2.1604 -1.7744 -0.6471
   74MOL   H36026786   1.097   2.949   3.312  1.2098  0.0153  0.4252
   74MOL   H36126787   0.955   3.018   3.391 -2.1321  3.1612 -2.9356
   74MOL   H36226788   0.977   3.315   3.052  0.3867 -1.8488  0.7665
   75MOL     C126789   7.665   0.781   0.363 -0.4277 -0.9224  0.0017
   75MOL     C226790   7.705   0.815   0.507 -0.4899  0.4785 -0.1155
   75MOL     C326791   7.735   0.966   0.525  0.7086 -0.1740 -0.6149
   75MOL     C426792   7.645   1.076   0.455 -0.3026 -0.1507 -0.1083
   75MOL     C526793   7.697   1.221   0.487  0.1688  0.1020 -0.6791
   75MOL     C626794   7.498   1.072   0.498  0.0897  0.4206 -0.0415
   75MOL     H726795   7.578   0.837   0.328 -0.1769 -1.2429 -1.1773
   75MOL     H826796   0.004   0.791   0.304 -0.9112  1.0423 -0.4407
   75MOL     H926797   7.618   0.783   0.564 -1.3391  1.7167 -0.6922
   75MOL    H1026798   0.003   0.996   0.628  1.2494 -0.9163 -0.5017
   75MOL    H1126799   0.085   0.988   0.492  1.2757 -1.0631  0.5363
   75MOL    H1226800   7.646   1.059   0.348 -0.0859  1.6603 -0.3999
   75MOL    H1326801   0.003   1.256   0.401  1.5263 -1.3216 -0.3706
   75MOL    H1426802   7.610   1.281   0.511  0.5543  0.5123 -0.3127
   75MOL    H1526803   0.009   1.224   0.575 -1.7461 -0.6552  0.7830
   75MOL    H1626804   7.490   1.076   0.607 -0.6863  2.2272 -0.1429
   75MOL    H1726805   7.459   0.978   0.461 -0.6377 -0.1385  2.0785
   75MOL    H1826806   7.447   1.158   0.456  1.7666  1.8641  0.7841
   75MOL    H1926807   7.630   0.678   0.356 -0.0036 -0.9628 -2.0252
   75MOL    C2026808   0.066   0.727   0.559  0.1554  0.2890 -0.2854
   75MOL    C2126809   0.053   0.572   0.557  0.0922  0.2551  0.0231
   75MOL    C2226810   0.178   0.495   0.511 -0.2170 -0.3287 -0.4430
   75MOL    C2326811   0.154   0.374   0.421  0.0932  0.2614  0.0429
   75MOL    C2426812   0.116   0.416   0.277 -0.1619 -0.8818 -0.2188
   75MOL    C2526813   0.282   0.283   0.416 -0.3224 -0.3227 -0.2375
   75MOL    H2626814   0.161   0.766   0.524  0.2368  0.1877 -0.1769
   75MOL    H2726815   0.066   0.761   0.663 -1.8256 -0.3033 -0.0530
   75MOL    H2826816   7.729   0.543   0.486  1.6480 -0.5493 -1.3524
   75MOL    H2926817   0.245   0.471   0.594 -0.3137  1.6619  0.2205
   75MOL    H3026818   0.241   0.568   0.461 -0.6974  0.2978 -0.1413
   75MOL    H3126819   0.071   0.323   0.470  0.4718 -1.1720 -0.7723
   75MOL    H3226820   0.111   0.324   0.218 -2.3644  0.6219 -2.4830
   75MOL    H3326821   0.186   0.489   0.238  0.4631 -0.3272  1.8688
   75MOL    H3426822   0.012   0.446   0.289 -0.5122 -2.3558  0.5546
   75MOL    H3526823   0.266   0.189   0.362 -0.5679 -1.1873  1.2976
   75MOL    H3626824   0.372   0.324   0.369  0.7250 -0.6199  1.4693
   75MOL    H3726825   0.313   0.258   0.517 -0.8931 -0.9244 -0.2082
   75MOL    C3826826   0.014   0.509   0.695 -0.5305 -0.2045  0.1706
   75MOL    C3926827   7.624   0.546   0.754  0.0833  0.2909 -0.1520
   75MOL    C4026828   7.625   0.504   0.908 -0.0906 -1.4696  0.3634
   75MOL    C4126829   7.672   0.614   1.011 -0.0486 -0.0077 -0.1817
   75MOL    C4226830   7.740   0.553   1.133  0.7422 -0.1255 -0.4321
   75MOL    C4326831   7.562   0.708   1.061  0.1416 -0.0325  0.2865
   75MOL    H4426832   0.086   0.550   0.766  0.4152  0.6488 -1.2569
   75MOL    H4526833   0.031   0.402   0.704  0.3471 -0.0252  0.6996
   75MOL    H4626834   7.622   0.654   0.747 -2.5337  0.3366  0.6752
   75MOL    H4726835   7.679   0.410   0.919  0.0451 -1.6296 -1.4561
   75MOL    H4826836   7.528   0.476   0.950 -0.6059  0.6336  0.6367
   75MOL    H4926837   7.740   0.683   0.960 -0.9333 -0.9280 -2.7235
   75MOL    H5026838   0.036   0.624   1.201 -1.8544 -0.0017  1.3826
   75MOL    H5126839   7.665   0.507   1.197  0.4950 -0.7753 -1.1835
   75MOL    H5226840   0.068   0.485   1.103  0.4693 -0.7807  0.2949
   75MOL    H5326841   7.509   0.743   0.972 -0.0896  1.2519  0.9166
   75MOL    H5426842   7.603   0.802   1.097  1.4460 -1.4073  2.4623
   75MOL    H5526843   7.485   0.663   1.123 -1.7102  2.8845  0.1829
   75MOL    C5626844   7.509   0.484   0.674  0.0064 -0.1268  0.3295
   75MOL    C5726845   7.364   0.523   0.711 -0.0048 -0.4664 -0.5559
   75MOL    C5826846   7.262   0.426   0.648  0.0201  0.3981  0.1235
   75MOL    C5926847   7.244   0.287   0.714 -0.0793 -0.2846  0.7594
   75MOL    C6026848   7.146   0.210   0.625  0.1640  0.1062 -0.1614
   75MOL    C6126849   7.181   0.295   0.860 -0.3148  0.4497  0.6984
   75MOL    H6226850   7.511   0.377   0.694 -2.0785 -0.2428  0.0855
   75MOL    H6326851   7.532   0.493   0.568  0.4229 -2.1130  0.2320
   75MOL    H6426852   7.347   0.503   0.817 -0.3766 -1.6342 -0.8318
   75MOL    H6526853   7.164   0.472   0.635  0.1047  0.9939  1.5101
   75MOL    H6626854   7.295   0.394   0.549  2.1606 -0.3827  1.0691
   75MOL    H6726855   7.341   0.240   0.710  0.5594  1.1254 -1.2690
   75MOL    H6826856   7.060   0.275   0.610  0.1856  0.2249  0.2308
   75MOL    H6926857   7.120   0.118   0.678  1.3923 -1.1247 -1.6404
   75MOL    H7026858   7.181   0.184   0.525 -0.2263  1.5232 -0.6691
   75MOL    H7126859   7.090   0.353   0.870 -0.2731  0.6803 -0.1468
   75MOL    H7226860   7.252   0.341   0.929 -2.4707  2.4583  1.6370
   75MOL    H7326861   7.163   0.198   0.905 -0.2997  0.7564  1.3612
   75MOL    C7426862   7.345   0.674   0.682 -0.3903 -0.0847 -0.3191
   75MOL    C7526863   7.205   0.736   0.709  0.2224  0.1657  0.0363
   75MOL    C7626864   7.193   0.865   0.624 -0.2392 -0.4304  0.5930
   75MOL    C7726865   7.124   0.854   0.482 -0.7279 -1.4952  0.5262
   75MOL    C7826866   7.184   0.755   0.385 -0.7721 -0.2883  0.2230
   75MOL    C7926867   7.117   0.998   0.423  0.3814  0.1285 -0.1006
   75MOL    H8026868   7.366   0.673   0.575  1.3812  1.1139 -0.0071
   75MOL    H8126869   7.415   0.731   0.743 -1.3377 -0.2169  0.8998
   75MOL    H8226870   7.124   0.674   0.668  0.8477 -0.2667 -0.5572
   75MOL    H8326871   7.140   0.943   0.679 -2.4999 -0.9384 -0.7818
   75MOL    H8426872   7.292   0.907   0.608  0.0295 -1.9967 -2.1979
   75MOL    H8526873   7.017   0.835   0.492 -0.8874  0.1389  2.2463
   75MOL    H8626874   7.128   0.750   0.292 -1.4418  0.1372  0.5944
   75MOL    H8726875   7.186   0.654   0.424  1.4726 -0.5742 -0.5627
   75MOL    H8826876   7.286   0.786   0.364 -1.0295  0.9239  0.7007
   75MOL    H8926877   7.206   1.061   0.427  0.4441  0.0494 -0.2418
   75MOL    H9026878   7.079   1.005   0.322  0.4093  0.5057 -0.0836
   75MOL    H9126879   7.052   1.066   0.479  1.9191  0.5854  1.1890
   75MOL    C9226880   7.187   0.768   0.856  0.3175  0.1376 -0.0328
   75MOL    C9326881   7.056   0.811   0.905  0.6962  0.2047  0.7981
   75MOL    C9426882   6.952   0.695   0.913 -0.1909 -0.7550 -0.0715
   75MOL    C9526883   6.808   0.739   0.917  0.3767  0.1199  0.4931
   75MOL    C9626884   6.759   0.804   0.788  0.9121  0.2107  0.2341
   75MOL    C9726885   6.711   0.615   0.933  0.4195  0.3756 -0.1066
   75MOL    H9826886   7.213   0.681   0.917 -1.7255  0.0086  0.7048
   75MOL    H9926887   7.253   0.850   0.884 -2.6287  3.3011 -2.0653
   75MOL   H10026888   7.010   0.875   0.830  0.3195 -0.3241  0.5659
   75MOL   H10126889   6.981   0.642   1.004  0.3791 -2.4043 -1.1972
   75MOL   H10226890   6.975   0.622   0.836  1.1058 -0.6071  0.1582
   75MOL   H10326891   6.786   0.817   0.991 -1.4542 -0.3977  0.5117
   75MOL   H10426892   6.797   0.906   0.783 -0.4740  0.9043  2.9629
   75MOL   H10526893   6.650   0.803   0.784  0.9614  0.7805 -2.0373
   75MOL   H10626894   6.771   0.738   0.702  1.6684  0.4611  0.1440
   75MOL   H10726895   6.731   0.551   0.847  1.4825  3.1523 -1.9853
   75MOL   H10826896   6.608   0.651   0.927  0.1698 -0.6589 -2.4184
   75MOL   H10926897   6.723   0.554   1.023 -1.7894 -0.7811 -0.5516
   75MOL   C11026898   7.064   0.898   1.032 -0.5162 -0.3153 -0.1245
   75MOL   C11126899   7.102   1.043   0.998  0.9406 -0.0621 -0.8353
   75MOL   C11226900   6.974   1.110   0.931  0.1992 -0.2391 -0.3556
   75MOL   C11326901   6.993   1.248   0.870  0.0473  0.1072  0.2879
   75MOL   C11426902   6.851   1.313   0.855 -1.3438  0.0452  0.2393
   75MOL   C11526903   7.073   1.243   0.739 -0.3544  0.0603 -0.5759
   75MOL   H11626904   7.142   0.857   1.097  0.9448  1.4166 -0.7365
   75MOL   H11726905   6.971   0.899   1.089  0.0663  1.3750  0.8158
   75MOL   H11826906   7.181   1.051   0.924  1.3076 -0.3925 -0.4832
   75MOL   H11926907   6.901   1.121   1.011 -0.5223 -0.0298 -1.0425
   75MOL   H12026908   6.920   1.053   0.855  1.1616 -1.2263 -0.3267
   75MOL   H12126909   7.054   1.309   0.937 -0.3644  1.3647 -0.4690
   75MOL   H12226910   6.789   1.261   0.782  1.8334 -3.2992 -0.2449
   75MOL   H12326911   6.856   1.418   0.827  0.3936 -0.1401 -0.2275
   75MOL   H12426912   6.798   1.306   0.950 -3.2815  0.5578 -0.7795
   75MOL   H12526913   7.177   1.221   0.762 -0.8259 -1.2349  0.4210
   75MOL   H12626914   7.077   1.341   0.691 -0.1785  0.4974  0.3286
   75MOL   H12726915   7.035   1.163   0.674 -1.1566 -0.1228  0.1027
   75MOL   C12826916   7.137   1.116   1.126 -0.5972  0.1157  0.1395
   75MOL   C12926917   7.290   1.123   1.160  0.2193  0.2654 -0.4087
   75MOL   C13026918   7.313   1.160   1.307 -0.4367 -0.4494 -0.5294
   75MOL   C13126919   7.288   1.057   1.425  0.3846  0.8350  0.6498
   75MOL   C13226920   7.366   0.926   1.410 -0.1697 -0.7557  0.0130
   75MOL   C13326921   7.325   1.119   1.563  0.4369  0.2031  0.9846
   75MOL   H13426922   7.086   1.071   1.211  1.0155 -0.5382  0.7754
   75MOL   H13526923   7.104   1.220   1.122  1.6582  0.9007  1.2642
   75MOL   H13626924   7.328   1.021   1.147 -1.2080 -0.4778  0.9936
   75MOL   H13726925   7.412   1.197   1.332 -0.9939  2.1399 -1.9528
   75MOL   H13826926   7.264   1.256   1.324  1.9385  0.8477 -0.7553
   75MOL   H13926927   7.180   1.044   1.432  0.2175  2.7355  2.0526
   75MOL   H14026928   7.333   0.868   1.324  0.0469  0.8908 -1.1999
   75MOL   H14126929   7.355   0.859   1.496  0.3284  0.8472  1.3563
   75MOL   H14226930   7.468   0.943   1.375 -1.0656 -0.9182 -2.7834
   75MOL   H14326931   7.271   1.212   1.579  0.4214  0.2966  0.3940
   75MOL   H14426932   7.313   1.054   1.650 -0.0364 -0.7277  0.2429
   75MOL   H14526933   7.431   1.140   1.569  0.4943  0.8114 -1.6052
   75MOL   C14626934   7.351   1.228   1.066 -0.2375 -0.5302 -0.4112
   75MOL   C14726935   7.504   1.234   1.065 -0.2204 -0.9774  0.2432
   75MOL   C14826936   7.557   1.369   1.003 -0.6884  0.5331  0.5852
   75MOL   C14926937   7.589   1.377   0.853 -0.2624  0.6306 -0.4319
   75MOL   C15026938   7.455   1.372   0.773 -0.3565  0.1327 -0.2165
   75MOL   C15126939   7.678   1.492   0.814  0.3071 -0.0009 -0.5037
   75MOL   H15226940   7.318   1.329   1.090 -1.8018 -1.8156  3.0796
   75MOL   H15326941   7.323   1.201   0.964 -0.3314 -1.7530 -0.0654
   75MOL   H15426942   7.535   1.247   1.169  0.1695 -1.3029  0.1664
   75MOL   H15526943   7.478   1.443   1.013  1.9758  3.1642  2.6846
   75MOL   H15626944   7.643   1.410   1.055 -0.5747 -0.5490  1.2817
   75MOL   H15726945   7.646   1.289   0.823  1.2728  1.7551 -0.8885
   75MOL   H15826946   7.478   1.392   0.669  1.0399  4.6001  0.8372
   75MOL   H15926947   7.394   1.453   0.814 -0.7453 -0.2851  0.0348
   75MOL   H16026948   7.412   1.272   0.772 -1.5409  0.6359 -2.1834
   75MOL   H16126949   7.644   1.594   0.836  0.2420  0.2781 -1.8699
   75MOL   H16226950   7.689   1.492   0.706 -0.1362  2.0983 -0.5726
   75MOL   H16326951   0.028   1.483   0.850 -0.1097 -0.9221  0.4741
   75MOL   C16426952   7.565   1.096   1.007  0.1838 -0.5097 -0.1151
   75MOL   C16526953   7.718   1.106   1.033 -0.1640 -0.5701  0.1228
   75MOL   C16626954   7.746   1.054   1.176 -0.3713  0.6941 -0.8808
   75MOL   C16726955   0.088   1.126   1.268 -0.2030 -0.6284  0.4078
   75MOL   C16826956   0.066   1.280   1.268 -0.2988  0.0849 -0.5358
   75MOL   C16926957   0.090   1.086   1.419  0.3583  0.3852  0.1549
   75MOL   H17026958   7.515   1.014   1.058 -1.2720 -0.2434 -1.0674
   75MOL   H17126959   7.543   1.086   0.900 -1.7185  1.0735  0.0822
   75MOL   H17226960   0.001   1.209   1.019 -0.6551 -0.6320 -1.6901
   75MOL   H17326961   7.657   1.058   1.238  1.3748 -2.1659  1.9869
   75MOL   H17426962   0.027   0.950   1.171  1.6982  1.3904 -2.2625
   75MOL   H17526963   0.189   1.119   1.227 -1.1234 -2.6471 -1.5727
   75MOL   H17626964   7.719   1.295   1.310  0.7302  0.9530  1.6444
   75MOL   H17726965   0.068   1.336   1.174  0.9792  1.2173  0.1465
   75MOL   H17826966   0.142   1.334   1.325 -0.1189 -1.1633  0.4325
   75MOL   H17926967   0.179   1.130   1.465  0.8202 -0.9821  0.6043
   75MOL   H18026968   0.098   0.977   1.420 -1.2160  0.2576  1.7263
   75MOL   H18126969   0.011   1.112   1.489  0.9967  0.6588  0.7793
   75MOL   C18226970   0.039   1.012   0.930 -0.9327  0.3730  0.2212
   75MOL   C18326971   0.187   1.057   0.914 -0.1061 -0.0773  0.6801
   75MOL   C18426972   0.282   0.939   0.872  1.1092  0.6328  0.0513
   75MOL   C18526973   0.313   0.837   0.981 -0.2560  0.1953 -0.3773
   75MOL   C18626974   0.404   0.727   0.928 -0.1285 -0.7924 -0.2555
   75MOL   C18726975   0.371   0.900   1.108 -0.0189 -0.6105 -0.6533
   75MOL   H18826976   7.751   1.023   0.829  3.0247  0.0194 -1.5042
   75MOL   H18926977   0.031   0.910   0.968 -1.0106  1.3764  3.0218
   75MOL   H19026978   0.226   1.089   1.010 -0.0503  0.8989  0.3426
   75MOL   H19126979   0.377   0.980   0.837 -1.1022  3.1629 -3.2784
   75MOL   H19226980   0.237   0.890   0.786 -0.5596  0.5652  0.9605
   75MOL   H19326981   0.218   0.799   1.016  0.7376 -2.0624 -0.0840
   75MOL   H19426982   0.339   0.667   0.864 -1.2094  1.4837 -1.3238
   75MOL   H19526983   0.446   0.667   1.009  2.1837  2.5664  1.1452
   75MOL   H19626984   0.493   0.774   0.886  0.1197  0.7013  1.8641
   75MOL   H19726985   0.296   0.957   1.163  2.0319  1.8992 -0.3815
   75MOL   H19826986   0.472   0.940   1.099  0.2083 -1.2278 -0.9152
   75MOL   H19926987   0.376   0.827   1.189 -1.0856  1.3631  1.2509
   75MOL   C20026988   0.194   1.173   0.819 -0.4750 -0.4009 -0.2128
   75MOL   C20126989   0.323   1.261   0.830  0.1020  0.0665 -0.2480
   75MOL   C20226990   0.312   1.345   0.961  0.1204 -0.2271  0.3254
   75MOL   C20326991   0.447   1.374   1.023 -0.1023  0.2849  0.4635
   75MOL   C20426992   0.469   1.495   1.108  0.4181 -0.1366  0.1182
   75MOL   C20526993   0.487   1.257   1.107 -0.0558  0.0946  0.1011
   75MOL   H20626994   0.106   1.237   0.830 -0.8067 -0.6263 -1.4891
   75MOL   H20726995   0.194   1.136   0.717 -1.2123  0.0617 -0.3866
   75MOL   H20826996   0.408   1.193   0.835 -1.0447 -1.5319 -1.8931
   75MOL   H20926997   0.269   1.439   0.927 -0.2109  0.1067  1.6250
   75MOL   H21026998   0.244   1.308   1.038 -0.3929  2.3080  1.1315
   75MOL   H21126999   0.524   1.367   0.945 -0.6276  2.0827 -0.2451
   75MOL   H21227000   0.398   1.575   1.088 -1.3795 -2.0021 -1.0543
   75MOL   H21327001   0.573   1.527   1.098  0.4821 -0.3655  0.0648
   75MOL   H21427002   0.453   1.471   1.212  2.8690  0.7380  0.7423
   75MOL   H21527003   0.516   1.174   1.043  1.6311  0.7633 -0.0443
   75MOL   H21627004   0.410   1.206   1.164 -0.4275 -2.3612 -2.5122
   75MOL   H21727005   0.568   1.296   1.169 -0.0833 -0.5278  0.5307
   75MOL   C21827006   0.344   1.359   0.711  0.2971  0.3118 -0.3141
   75MOL   C21927007   0.403   1.289   0.587  0.0726  0.4766 -0.3535
   75MOL   C22027008   0.556   1.303   0.566  0.3823  0.7977 -0.0047
   75MOL   C22127009   0.652   1.213   0.647  0.0858  0.6600 -0.3049
   75MOL   C22227010   0.646   1.067   0.612 -0.4952  0.0913 -0.2561
   75MOL   C22327011   0.799   1.263   0.634 -0.2282  0.6757  0.0167
   75MOL   H22427012   0.256   1.420   0.692  1.4788  2.0465 -0.3120
   75MOL   H22527013   0.413   1.432   0.755 -0.0526  0.2725  0.3037
   75MOL   H22627014   0.385   1.182   0.597 -0.2358  0.5333 -0.3012
   75MOL   H22727015   0.586   1.288   0.462  1.0234  1.3418  0.0962
   75MOL   H22827016   0.583   1.406   0.591  1.4458  0.4509  0.3105
   75MOL   H22927017   0.634   1.212   0.755  2.1383 -0.0961  0.0527
   75MOL   H23027018   0.723   1.004   0.655  0.7023  2.7284  1.5613
   75MOL   H23127019   0.546   1.026   0.630 -0.6368 -0.8141 -2.8202
   75MOL   H23227020   0.668   1.077   0.506  0.6274 -0.4164 -0.0728
   75MOL   H23327021   0.871   1.223   0.705  0.6097 -0.7944 -1.6311
   75MOL   H23427022   0.847   1.236   0.539 -1.8322 -1.7868 -0.1251
   75MOL   H23527023   0.803   1.369   0.660  0.0936  0.6328  0.1417
   75MOL   C23627024   0.328   1.324   0.455 -0.0848 -0.1208 -0.9657
   75MOL   C23727025   0.334   1.466   0.396 -0.0785 -0.6615  0.1354
   75MOL   C23827026   0.204   1.486   0.312  0.7651 -0.5351 -0.4850
   75MOL   C23927027   0.084   1.532   0.400  0.1273  0.1311  0.2169
   75MOL   C24027028   0.096   1.678   0.455 -0.2933  0.2769  0.2896
   75MOL   C24127029   7.693   1.515   0.330 -0.3752  0.1573  0.6313
   75MOL   H24227030   0.223   1.304   0.475  0.4804 -1.2317  1.0715
   75MOL   H24327031   0.356   1.253   0.378 -0.3044 -3.7045  2.1339
   75MOL   H24427032   0.321   1.544   0.470  1.0217  1.2823 -1.6647
   75MOL   H24527033   0.182   1.394   0.257 -2.3323 -1.2763  1.8704
   75MOL   H24627034   0.231   1.553   0.230 -1.4141  2.2126  0.9934
   75MOL   H24727035   0.072   1.476   0.493 -1.1700  0.6059  0.3491
   75MOL   H24827036   0.112   1.761   0.386 -0.5663  0.1545  0.0786
   75MOL   H24927037   0.177   1.680   0.528  0.4710  0.8264 -0.5675
   75MOL   H25027038   0.009   1.723   0.502 -0.0859  0.8593  0.1165
   75MOL   H25127039   7.683   1.421   0.276 -1.1563 -1.5795  3.7354
   75MOL   H25227040   7.671   1.585   0.249 -1.2332 -0.5018  0.2947
   75MOL   H25327041   7.611   1.518   0.401 -2.9423 -0.8867 -2.1939
   75MOL   C25427042   0.457   1.496   0.307 -0.7342 -0.0674  0.2259
   75MOL   C25527043   0.519   1.635   0.345  0.2543  0.5755 -0.4276
   75MOL   C25627044   0.665   1.650   0.298 -0.5180 -0.5332  0.4011
   75MOL   C25727045   0.768   1.572   0.379 -0.4216  0.2232 -0.0915
   75MOL   C25827046   0.792   1.649   0.509 -0.1424  0.3571  0.2879
   75MOL   C25927047   0.899   1.560   0.301 -0.3133 -0.2404 -0.1265
   75MOL   H26027048   0.532   1.419   0.324  0.3139  0.3859 -2.0793
   75MOL   H26127049   0.449   1.493   0.198 -0.2907  2.9715  0.0684
   75MOL   H26227050   0.519   1.629   0.453  1.7880 -3.5200 -0.5480
   75MOL   H26327051   0.687   1.757   0.289 -0.4512 -0.6880 -1.5420
   75MOL   H26427052   0.678   1.605   0.199 -1.5385  1.6050 -0.7586
   75MOL   H26527053   0.742   1.468   0.398 -1.1762  0.8607  2.4747
   75MOL   H26627054   0.878   1.609   0.562 -0.6622 -1.9594 -0.5546
   75MOL   H26727055   0.704   1.648   0.573 -1.1158 -0.1419 -1.0326
   75MOL   H26827056   0.812   1.753   0.481  0.8390  0.5915  1.8118
   75MOL   H26927057   0.978   1.521   0.366  1.8586  1.1929 -1.8438
   75MOL   H27027058   0.892   1.484   0.223 -0.9440  0.2314 -0.5353
   75MOL   H27127059   0.937   1.659   0.278  0.2185 -0.0934  1.3310
   75MOL   C27227060   0.436   1.754   0.293  0.2218 -0.3919  0.3547
   75MOL   C27327061   0.449   1.897   0.351  0.3356 -0.0592  0.2461
   75MOL   C27427062   0.377   2.007   0.250  0.1804  0.0342 -0.1622
   75MOL   C27527063   0.456   2.038   0.125 -0.0211 -0.2876 -0.2175
   75MOL   C27627064   0.576   2.127   0.149  0.3907 -0.3626 -0.1383
   75MOL   C27727065   0.374   2.102   0.020  0.3235  0.2617 -0.1442
   75MOL   H27827066   0.443   1.746   0.185 -1.7378 -0.3939  0.1947
   75MOL   H27927067   0.327   1.742   0.292  0.4173 -2.9048 -3.8312
   75MOL   H28027068   0.555   1.922   0.362 -0.1651  1.8001  1.1394
   75MOL   H28127069   0.360   2.105   0.295 -0.0027  0.0917 -0.3540
   75MOL   H28227070   0.273   1.984   0.226 -0.0270  1.9240 -1.1561
   75MOL   H28327071   0.488   1.944   0.079  1.2946  0.9993 -1.9861
   75MOL   H28427072   0.550   2.216   0.207 -0.2226 -0.7644  0.2147
   75MOL   H28527073   0.657   2.077   0.202  1.1240 -0.6343 -1.5058
   75MOL   H28627074   0.613   2.160   0.052 -0.4605 -3.9548 -1.7847
   75MOL   H28727075   0.330   2.196   0.053  2.6798  1.7188 -0.9657
   75MOL   H28827076   0.429   2.117   7.679 -0.9962  0.8270 -0.8374
   75MOL   H28927077   0.298   2.040   7.724 -0.3096  0.2538  0.8618
   75MOL   C29027078   0.380   1.914   0.490 -0.5214  0.8139  0.8519
   75MOL   C29127079   0.394   2.045   0.562 -0.3780  0.5168  0.0489
   75MOL   C29227080   0.256   2.090   0.619 -0.2918  0.4526  0.5780
   75MOL   C29327081   0.162   2.168   0.525 -0.1533 -1.1704  0.3832
   75MOL   C29427082   0.015   2.178   0.585  0.1256  0.3667  0.0708
   75MOL   C29527083   0.217   2.301   0.472 -0.0266  0.0548  0.6331
   75MOL   H29627084   0.275   1.896   0.467  0.3497 -2.3331 -0.9609
   75MOL   H29727085   0.413   1.822   0.540  2.5761  0.6228 -1.4328
   75MOL   H29827086   0.437   2.119   0.494  1.7136  0.9492  1.8092
   75MOL   H29927087   0.272   2.159   0.702  1.7241 -0.1509  0.7309
   75MOL   H30027088   0.203   2.006   0.664  0.0803  0.3405  0.8088
   75MOL   H30127089   0.152   2.101   0.439 -1.7436  0.7384 -0.9630
   75MOL   H30227090   7.691   2.210   0.514 -0.4589  0.0747  0.5625
   75MOL   H30327091   0.009   2.248   0.668 -0.7098  0.1244  0.2156
   75MOL   H30427092   7.741   2.079   0.624  0.7953 -0.2842 -1.0751
   75MOL   H30527093   0.319   2.295   0.434  0.0569  0.4917  0.7793
   75MOL   H30627094   0.237   2.367   0.557  0.6529 -0.0545  0.5641
   75MOL   H30727095   0.147   2.358   0.411 -1.1458 -1.2895  0.6451
   75MOL   C30827096   0.487   2.021   0.683  0.1598 -0.2092  0.3463
   75MOL   C30927097   0.641   2.024   0.654  0.0572  0.4024  0.4387
   75MOL   C31027098   0.690   2.158   0.597 -0.7338 -0.5646 -0.0618
   75MOL   C31127099   0.839   2.180   0.545  0.1376  0.2051 -0.3860
   75MOL   C31227100   0.891   2.065   0.456 -0.0860 -0.5776  0.5055
   75MOL   C31327101   0.846   2.304   0.453 -0.0581  0.0486  0.4508
   75MOL   H31427102   0.467   2.092   0.763  0.1728  2.4211 -1.9226
   75MOL   H31527103   0.458   1.921   0.716  1.6291 -0.9871 -0.6655
   75MOL   H31627104   0.670   1.949   0.581  1.8981 -0.1750  1.7194
   75MOL   H31727105   0.678   2.238   0.669  1.5598 -0.3434  0.1110
   75MOL   H31827106   0.634   2.188   0.508  1.7278 -1.0517 -1.8364
   75MOL   H31927107   0.901   2.196   0.633 -1.3006  1.5724  0.4064
   75MOL   H32027108   0.999   2.079   0.452 -0.3685  1.6757 -0.0347
   75MOL   H32127109   0.856   2.056   0.353  1.0083 -1.2127  0.1801
   75MOL   H32227110   0.873   1.967   0.499 -2.4590  0.0947  1.1159
   75MOL   H32327111   0.948   2.322   0.420  0.5741 -1.5260  1.5059
   75MOL   H32427112   0.791   2.288   0.360 -0.3366  0.7967  0.4762
   75MOL   H32527113   0.793   2.389   0.497  0.0819  0.1936  0.3357
   75MOL   C32627114   0.716   1.983   0.780  0.5455 -0.3478  0.2981
   75MOL   C32727115   0.695   1.839   0.830 -0.2344 -0.3103  0.1235
   75MOL   C32827116   0.610   1.836   0.966  0.3281 -0.1178  0.2877
   75MOL   C32927117   0.668   1.890   1.103  0.1722  0.1268 -0.5357
   75MOL   C33027118   0.552   1.965   1.167  0.3503  0.4847 -0.3320
   75MOL   C33127119   0.733   1.784   1.192 -0.1267  0.5439  0.2212
   75MOL   H33227120   0.687   2.055   0.857 -2.0101 -1.6186  0.5782
   75MOL   H33327121   0.821   1.998   0.755  0.4928 -2.3972 -1.2949
   75MOL   H33427122   0.638   1.780   0.759 -0.9230  1.6378 -0.9683
   75MOL   H33527123   0.525   1.896   0.934  0.7368  2.0168  3.0330
   75MOL   H33627124   0.570   1.736   0.982 -0.0355  0.0040  0.1505
   75MOL   H33727125   0.742   1.967   1.082 -0.6956  1.2538  0.4859
   75MOL   H33827126   0.472   1.895   1.191 -0.2747  1.5609  0.7886
   75MOL   H33927127   0.520   2.054   1.112  2.6896 -0.9720 -4.2582
   75MOL   H34027128   0.582   1.992   1.268 -1.7018  1.4385  0.0593
   75MOL   H34127129   0.761   1.818   1.292  0.5314 -0.4083  0.3648
   75MOL   H34227130   0.668   1.699   1.209  0.9024 -0.0857  1.0490
   75MOL   H34327131   0.818   1.733   1.146 -0.9096 -3.3703  2.9301
   75MOL   C34427132   0.831   1.768   0.847 -0.6160 -0.2961 -0.2047
   75MOL   C34527133   0.827   1.620   0.883 -0.1107  0.1230  0.5066
   75MOL   C34627134   0.961   1.554   0.919  0.7975 -0.3577 -0.2347
   75MOL   C34727135   0.942   1.408   0.971  0.0178 -0.0097 -0.0787
   75MOL   C34827136   0.886   1.407   1.118 -0.0788 -0.1418 -0.1304
   75MOL   C34927137   1.070   1.320   0.969 -0.6476 -0.3524 -0.0499
   75MOL   H35027138   0.894   1.826   0.915 -0.1600  0.6179 -1.3875
   75MOL   H35127139   0.887   1.778   0.753 -1.4040 -1.7604 -0.8357
   75MOL   H35227140   0.777   1.571   0.799  1.9613  0.8280 -1.1697
   75MOL   H35327141   1.026   1.558   0.832  0.5918  1.0118 -0.3348
   75MOL   H35427142   1.009   1.606   1.001 -0.9458 -0.6180  0.9900
   75MOL   H35527143   0.867   1.369   0.903  0.0763 -0.1522 -0.0618
   75MOL   H35627144   0.890   1.306   1.159 -0.5366  0.1920  0.7662
   75MOL   H35727145   0.961   1.458   1.178 -1.0526  0.9077  0.2167
   75MOL   H35827146   0.790   1.458   1.128 -0.2906 -0.2753 -1.4471
   75MOL   H35927147   1.055   1.226   1.022  1.3938  0.4221  2.0093
   75MOL   H36027148   1.154   1.363   1.025 -1.2679  0.3696  0.3356
   75MOL   H36127149   1.101   1.289   0.869  0.9310  0.5811  0.1276
   75MOL   H36227150   0.773   1.608   0.977 -0.1488 -0.9101  0.3644
   76MOL     C127151   6.470   1.799   0.193  0.7477  0.3898 -0.3714
   76MOL     C227152   6.441   1.665   0.130 -0.0917  0.7354 -0.0410
   76MOL     C327153   6.515   1.646   7.747 -0.3896  0.1412  0.0050
   76MOL     C427154   6.668   1.625   0.022  0.6100  0.2995  0.2175
   76MOL     C527155   6.742   1.582   7.644 -0.5581 -0.7514  0.3473
   76MOL     C627156   6.713   1.543   0.132  0.1673  0.2156 -0.1272
   76MOL     H727157   6.454   1.797   0.300  2.4681 -0.3440 -0.1160
   76MOL     H827158   6.577   1.819   0.186  0.5455  0.9122 -2.6166
   76MOL     H927159   6.469   1.582   0.194 -4.3348 -0.9851 -0.2945
   76MOL    H1027160   6.486   1.553   7.698  1.4208  0.2890 -1.4110
   76MOL    H1127161   6.515   1.724   7.670 -1.7150  0.0356 -0.1057
   76MOL    H1227162   6.700   1.726   0.049  1.9095  0.0179 -0.1982
   76MOL    H1327163   6.850   1.596   7.648 -0.6834  0.0153  1.4811
   76MOL    H1427164   6.719   1.476   7.634 -0.7167 -0.5796 -1.2561
   76MOL    H1527165   6.710   1.646   7.561  1.3305  0.3583  0.4400
   76MOL    H1627166   6.676   1.441   0.121 -0.5444  0.5266 -0.6088
   76MOL    H1727167   6.698   1.583   0.232 -0.8573  0.0232 -0.1944
   76MOL    H1827168   6.821   1.527   0.131  0.1191 -0.1735  0.3104
   76MOL    H1927169   6.413   1.884   0.155 -4.4829 -2.3834  0.8087
   76MOL    C2027170   6.290   1.648   0.118  0.2397 -0.2775 -0.9113
   76MOL    C2127171   6.238   1.510   0.172 -0.2138  0.3503  0.1215
   76MOL    C2227172   6.304   1.388   0.099 -0.4908  0.2019 -0.2223
   76MOL    C2327173   6.227   1.257   0.108 -0.0681  0.1383  0.2573
   76MOL    C2427174   6.089   1.265   0.042 -0.3700  0.7869  0.3725
   76MOL    C2527175   6.323   1.146   0.060  0.2556 -0.0972  0.1631
   76MOL    H2627176   6.238   1.729   0.169 -1.8422 -2.5241  0.6574
   76MOL    H2727177   6.255   1.665   0.017  1.7915 -2.4167 -1.8524
   76MOL    H2827178   6.133   1.499   0.147  0.2126 -1.6010 -0.9365
   76MOL    H2927179   6.400   1.381   0.150 -0.9126  3.1205  1.0770
   76MOL    H3027180   6.310   1.402   7.744  0.6564 -0.3068 -0.2257
   76MOL    H3127181   6.201   1.234   0.211 -2.8056 -0.7628 -0.6063
   76MOL    H3227182   6.017   1.317   0.105 -0.8624 -0.3337  0.7463
   76MOL    H3327183   6.056   1.161   0.038  3.0692 -0.3718 -0.0983
   76MOL    H3427184   6.082   1.312   7.697  0.2223 -1.6494 -0.8836
   76MOL    H3527185   6.338   1.138   7.704 -0.2000  2.4957 -0.1168
   76MOL    H3627186   6.424   1.141   0.101 -0.7998  0.0606  2.8800
   76MOL    H3727187   6.290   1.049   0.096 -1.1896  0.9522  1.7314
   76MOL    C3827188   6.238   1.506   0.328  0.3033  0.4885  0.4695
   76MOL    C3927189   6.105   1.474   0.400 -0.3094 -0.1571 -0.8935
   76MOL    C4027190   5.998   1.592   0.388  0.0207 -0.0900 -0.0673
   76MOL    C4127191   5.844   1.556   0.404 -0.0847 -1.0119  0.0455
   76MOL    C4227192   5.770   1.465   0.297 -0.3307  0.2168  0.0360
   76MOL    C4327193   5.767   1.691   0.410  0.5744  0.9574 -0.5869
   76MOL    H4427194   6.270   1.601   0.371  1.4532 -0.2879  1.3540
   76MOL    H4527195   6.317   1.434   0.349  2.2181  2.6690  0.9264
   76MOL    H4627196   6.068   1.395   0.334  0.6103 -1.1368 -0.2572
   76MOL    H4727197   6.022   1.651   0.300  2.5118 -0.3325  0.4292
   76MOL    H4827198   6.025   1.660   0.468 -0.7954 -1.6863  1.5999
   76MOL    H4927199   5.839   1.513   0.504 -0.3868 -0.3481  0.3199
   76MOL    H5027200   5.826   1.373   0.281  1.2196  1.3088 -0.8712
   76MOL    H5127201   5.668   1.435   0.320 -0.1170 -2.0237 -1.7684
   76MOL    H5227202   5.766   1.525   0.206  0.2167 -3.2319 -2.3394
   76MOL    H5327203   5.824   1.775   0.372 -0.0783  1.1939 -1.0424
   76MOL    H5427204   5.753   1.723   0.513 -1.9954 -0.0624 -0.5784
   76MOL    H5527205   5.669   1.678   0.364  0.0012  2.7307  0.0784
   76MOL    C5627206   6.121   1.430   0.549  0.2387 -0.6545  0.6005
   76MOL    C5727207   6.160   1.279   0.558  0.0966  0.6900 -0.5702
   76MOL    C5827208   6.030   1.194   0.552  0.4106  0.1490 -0.0794
   76MOL    C5927209   6.040   1.042   0.543  0.6493 -0.0027 -0.0876
   76MOL    C6027210   6.104   0.992   0.415  0.4920 -0.3826 -0.0376
   76MOL    C6127211   5.899   0.993   0.546  0.6190  0.2068 -0.1108
   76MOL    H6227212   6.024   1.444   0.597 -0.1125 -1.7924  0.2287
   76MOL    H6327213   6.194   1.490   0.604 -1.6117  1.8399  0.4140
   76MOL    H6427214   6.215   1.246   0.469  2.2250  0.6137  0.7318
   76MOL    H6527215   5.970   1.214   0.640 -2.5306 -1.5216 -1.6133
   76MOL    H6627216   5.971   1.223   0.465 -2.9733 -0.0918  2.0563
   76MOL    H6727217   6.080   0.995   0.632 -0.5833  0.5381  0.7620
   76MOL    H6827218   6.087   1.065   0.337  0.3202 -0.9975 -0.5813
   76MOL    H6927219   6.070   0.896   0.375 -1.7309  0.2470  0.2838
   76MOL    H7027220   6.213   0.990   0.420  0.4821 -1.9694 -0.1653
   76MOL    H7127221   5.851   1.030   0.636  0.2539 -0.5151 -0.0119
   76MOL    H7227222   5.891   0.885   0.543  1.5281  0.1080  0.8127
   76MOL    H7327223   5.842   1.033   0.462  0.4815 -2.4087 -1.3118
   76MOL    C7427224   6.245   1.251   0.687  0.6866  0.6103  0.6090
   76MOL    C7527225   6.394   1.291   0.668  0.5422  0.2633  0.2789
   76MOL    C7627226   6.471   1.172   0.599 -0.0093 -0.2674  0.5277
   76MOL    C7727227   6.606   1.217   0.525  0.3934  0.5324 -0.1790
   76MOL    C7827228   6.591   1.314   0.413 -0.3346 -0.8866 -0.5116
   76MOL    C7927229   6.693   1.099   0.477  0.4344  0.0180  0.2060
   76MOL    H8027230   6.232   1.148   0.719  1.3646  0.9348  1.9534
   76MOL    H8127231   6.203   1.311   0.768 -3.2556 -0.6191 -0.4275
   76MOL    H8227232   6.390   1.378   0.603  4.1345  0.8733  0.7853
   76MOL    H8327233   6.489   1.093   0.673 -0.7025 -0.4610  0.4947
   76MOL    H8427234   6.409   1.103   0.542 -0.1371 -1.9804  2.6346
   76MOL    H8527235   6.670   1.269   0.597  0.9733 -0.6311  0.1603
   76MOL    H8627236   6.689   1.350   0.383 -0.7606  1.0131  0.2702
   76MOL    H8727237   6.537   1.403   0.447  2.7931  1.5153 -1.6213
   76MOL    H8827238   6.535   1.285   0.324  0.5230  0.5076 -1.5254
   76MOL    H8927239   6.640   1.029   0.412 -0.3666 -0.5993  1.5043
   76MOL    H9027240   6.784   1.116   0.421 -0.0018 -2.0968 -1.2153
   76MOL    H9127241   6.735   1.043   0.561  1.4720  0.6014  0.0800
   76MOL    C9227242   6.465   1.342   0.797 -0.4678  0.4535 -0.1414
   76MOL    C9327243   6.441   1.492   0.821  0.2375  0.1199 -0.0094
   76MOL    C9427244   6.442   1.519   0.971  0.3626  0.9541 -0.1282
   76MOL    C9527245   6.323   1.471   1.055 -0.6058 -0.6532  0.0057
   76MOL    C9627246   6.358   1.351   1.139  0.4888 -0.2882  0.1110
   76MOL    C9727247   6.272   1.584   1.139  0.0374 -0.6426 -0.2026
   76MOL    H9827248   6.422   1.281   0.877  2.3370 -0.4398  0.7313
   76MOL    H9927249   6.571   1.321   0.790 -0.3952  1.4341 -2.4176
   76MOL   H10027250   6.342   1.522   0.785  1.0853 -0.0137 -2.5395
   76MOL   H10127251   6.442   1.628   0.981 -0.2820  0.9044  0.4328
   76MOL   H10227252   6.537   1.494   1.019  0.0959 -0.0126 -0.0908
   76MOL   H10327253   6.238   1.440   0.995  0.8478 -0.2213 -2.3455
   76MOL   H10427254   6.404   1.272   1.082  0.8645 -0.3635  0.5148
   76MOL   H10527255   6.268   1.312   1.188 -0.2056  3.1525  1.8084
   76MOL   H10627256   6.435   1.382   1.210 -1.5320  1.3110  1.6873
   76MOL   H10727257   6.218   1.651   1.072 -0.5603 -1.4498 -0.5368
   76MOL   H10827258   6.354   1.642   1.181  1.2352 -1.0380 -1.8973
   76MOL   H10927259   6.198   1.548   1.210 -0.9412  0.3702 -0.6977
   76MOL   C11027260   6.554   1.580   0.754 -0.5575 -0.2110  0.1483
   76MOL   C11127261   6.551   1.735   0.781  0.2814 -0.4182 -0.4647
   76MOL   C11227262   6.669   1.816   0.719  0.3037  0.0544  0.0261
   76MOL   C11327263   6.811   1.761   0.734 -0.3678  0.0905 -0.0533
   76MOL   C11427264   6.864   1.749   0.880  0.3413  0.8226 -0.0365
   76MOL   C11527265   6.900   1.849   0.657 -0.2995  0.3612 -0.5689
   76MOL   H11627266   6.539   1.582   0.646 -0.9166 -1.4861  0.1662
   76MOL   H11727267   6.647   1.535   0.789 -0.5634 -0.0609  0.3557
   76MOL   H11827268   6.562   1.749   0.888  1.3622 -1.7987 -0.3826
   76MOL   H11927269   6.662   1.922   0.745  1.1600 -0.2695  1.6078
   76MOL   H12027270   6.648   1.825   0.612  1.7454  2.1694 -0.0989
   76MOL   H12127271   6.812   1.664   0.686  0.0577  0.4424 -0.7705
   76MOL   H12227272   6.958   1.694   0.876  1.9320  3.5035 -1.7074
   76MOL   H12327273   6.806   1.689   0.950  1.3116 -1.9135 -1.5056
   76MOL   H12427274   6.869   1.839   0.942 -0.8974  1.8815 -1.4397
   76MOL   H12527275   7.004   1.817   0.653 -0.1371  0.9592 -1.4287
   76MOL   H12627276   6.907   1.947   0.705 -2.3230  0.0078  0.4837
   76MOL   H12727277   6.853   1.850   0.559 -0.8404 -0.8223 -0.3262
   76MOL   C12827278   6.419   1.797   0.732 -0.1104 -0.0572 -0.3917
   76MOL   C12927279   6.385   1.932   0.795  0.2079 -0.8187 -0.2847
   76MOL   C13027280   6.376   1.938   0.955  0.1392  0.6744  0.8001
   76MOL   C13127281   6.518   1.984   1.013  0.4292 -0.0037 -0.8219
   76MOL   C13227282   6.541   2.138   1.016 -0.0571  0.5795 -0.8539
   76MOL   C13327283   6.547   1.927   1.146 -0.6379  0.1068 -0.1440
   76MOL   H13427284   6.339   1.724   0.739  0.4281 -0.5707  0.5831
   76MOL   H13527285   6.420   1.807   0.624 -1.9320 -0.5550 -0.4662
   76MOL   H13627286   6.463   2.002   0.765 -0.1500 -1.0781 -1.8884
   76MOL   H13727287   6.306   2.014   0.988 -0.9283 -0.0619  0.2757
   76MOL   H13827288   6.351   1.838   0.992 -1.4735  0.6690 -0.2674
   76MOL   H13927289   6.605   1.951   0.957  0.0681  0.5870 -1.7308
   76MOL   H14027290   6.640   2.165   1.054 -0.3184  0.2954  0.0411
   76MOL   H14127291   6.466   2.189   1.077 -0.3835  3.0603 -3.2282
   76MOL   H14227292   6.530   2.160   0.910  4.6465 -0.2962 -1.6437
   76MOL   H14327293   6.650   1.950   1.175 -0.0594 -1.1978 -1.0631
   76MOL   H14427294   6.468   1.967   1.209 -0.3022  1.4165 -0.5449
   76MOL   H14527295   6.548   1.818   1.145  3.1391  0.0771 -1.5472
   76MOL   C14627296   6.256   1.993   0.732  0.1828 -0.0279  0.1804
   76MOL   C14727297   6.253   2.051   0.587 -0.5999 -0.5259 -0.2085
   76MOL   C14827298   6.375   2.151   0.566  0.3303  0.3853  0.8171
   76MOL   C14927299   6.501   2.105   0.496 -0.0182  0.6227 -0.0347
   76MOL   C15027300   6.498   2.111   0.348  0.2996 -1.0576  0.3751
   76MOL   C15127301   6.626   2.178   0.555 -0.5161  0.3441 -0.0102
   76MOL   H15227302   6.202   2.059   0.801  0.9705  1.3993 -0.5742
   76MOL   H15327303   6.193   1.904   0.745 -0.5337  0.3584 -0.5907
   76MOL   H15427304   6.262   1.975   0.510 -0.7869 -0.3440 -0.4099
   76MOL   H15527305   6.344   2.232   0.500 -0.6255 -0.5221  0.1334
   76MOL   H15627306   6.387   2.203   0.662  2.5493 -2.5230  2.1832
   76MOL   H15727307   6.518   1.999   0.515 -0.6045  0.7690  1.3759
   76MOL   H15827308   6.506   2.216   0.319 -1.7417 -0.2572  2.5202
   76MOL   H15927309   6.401   2.081   0.310  1.7226 -3.4256 -1.4719
   76MOL   H16027310   6.577   2.062   0.291  1.8098  0.1393  1.3830
   76MOL   H16127311   6.636   2.145   0.658 -1.5931 -1.2984 -0.4210
   76MOL   H16227312   6.629   2.287   0.553  1.3248  0.2960 -2.7701
   76MOL   H16327313   6.717   2.138   0.510  0.6479  0.2455  2.3425
   76MOL   C16427314   6.116   2.124   0.576 -0.2943 -0.0648 -0.4971
   76MOL   C16527315   6.082   2.197   0.439  0.1647  0.3261 -1.0438
   76MOL   C16627316   6.078   2.088   0.324 -0.4161 -0.8717  0.1925
   76MOL   C16727317   6.053   2.143   0.184  0.1794 -0.2030 -0.0278
   76MOL   C16827318   6.138   2.268   0.154 -0.7615 -0.7762  0.3382
   76MOL   C16927319   6.074   2.040   0.076  0.2746  0.1329 -0.0298
   76MOL   H17027320   6.043   2.046   0.598 -1.1292  0.5910 -0.9030
   76MOL   H17127321   6.101   2.194   0.657  2.0198 -0.2180  0.0806
   76MOL   H17227322   6.161   2.269   0.419  0.1351  0.7838  0.4165
   76MOL   H17327323   6.171   2.030   0.327 -0.1869 -0.6034 -1.5010
   76MOL   H17427324   5.999   2.020   0.355  0.2371 -1.5378  0.4290
   76MOL   H17527325   5.948   2.171   0.171  0.0778 -0.7212 -0.3406
   76MOL   H17627326   6.237   2.265   0.199 -0.4531 -0.1525 -0.2925
   76MOL   H17727327   6.087   2.358   0.190 -0.2071 -0.0270 -0.7378
   76MOL   H17827328   6.147   2.295   0.049 -0.5367 -0.8693  0.3348
   76MOL   H17927329   5.984   2.026   0.017 -0.5793 -1.3858  1.5853
   76MOL   H18027330   6.104   1.941   0.112  1.9188 -0.0307 -1.7434
   76MOL   H18127331   6.155   2.076   0.011 -1.8798  1.3986 -2.0918
   76MOL   C18227332   5.943   2.262   0.451 -0.1774  0.1675  0.0638
   76MOL   C18327333   5.925   2.400   0.530 -0.0885  0.1525  0.3709
   76MOL   C18427334   5.963   2.522   0.436 -0.2801  0.5317 -0.6093
   76MOL   C18527335   5.948   2.669   0.482 -0.4193  0.6925  0.7247
   76MOL   C18627336   6.014   2.697   0.618 -0.0799 -0.3806 -0.5539
   76MOL   C18727337   5.997   2.767   0.375  0.4289 -0.4834 -0.2428
   76MOL   H18827338   5.886   2.182   0.500  0.0613 -0.7985 -1.2125
   76MOL   H18927339   5.892   2.271   0.355 -1.4614 -0.2437  0.6861
   76MOL   H19027340   5.994   2.407   0.614  1.5950  1.0760 -1.0531
   76MOL   H19127341   5.907   2.503   0.344 -0.4471 -0.8088 -0.2418
   76MOL   H19227342   6.067   2.504   0.409 -1.0899 -3.0301 -1.6073
   76MOL   H19327343   5.841   2.687   0.488 -0.3370  0.2710  4.8280
   76MOL   H19427344   6.116   2.660   0.627 -1.1036 -3.6499 -1.6152
   76MOL   H19527345   5.964   2.650   0.703  1.0408 -1.3016 -0.3908
   76MOL   H19627346   6.004   2.804   0.630 -1.6362 -0.4633 -1.0216
   76MOL   H19727347   6.105   2.759   0.361  0.7172  2.3057  0.0738
   76MOL   H19827348   5.982   2.871   0.404  0.6525 -1.0403  1.9789
   76MOL   H19927349   5.957   2.747   0.276 -2.3255  1.2824  0.4695
   76MOL   C20027350   5.779   2.418   0.578  0.0525 -0.3539 -0.0165
   76MOL   C20127351   5.718   2.324   0.679  1.2471  0.1310 -0.1225
   76MOL   C20227352   5.578   2.381   0.727  0.1150 -0.7456  0.3997
   76MOL   C20327353   5.474   2.451   0.638  0.1905  0.2738  0.0008
   76MOL   C20427354   5.427   2.365   0.521 -0.1189 -0.7486  0.2811
   76MOL   C20527355   5.352   2.489   0.723  0.0881  0.3046 -0.7013
   76MOL   H20627356   5.710   2.432   0.496 -1.3682  0.2331  1.2584
   76MOL   H20727357   5.782   2.514   0.629 -1.8869 -0.7069  0.7983
   76MOL   H20827358   5.693   2.239   0.615 -0.9039 -0.7647  1.8151
   76MOL   H20927359   5.514   2.299   0.758 -1.3526  0.3786  0.3829
   76MOL   H21027360   5.604   2.452   0.806 -0.9770 -0.1911  0.2663
   76MOL   H21127361   5.519   2.546   0.612 -1.9382  1.2753 -0.1446
   76MOL   H21227362   5.505   2.343   0.447 -2.0936  0.9102 -2.3869
   76MOL   H21327363   5.351   2.403   0.453 -0.4276 -0.6595  0.6794
   76MOL   H21427364   5.392   2.269   0.558  2.4873 -2.3822 -1.2512
   76MOL   H21527365   5.275   2.533   0.658 -0.9074 -0.7848 -0.2661
   76MOL   H21627366   5.388   2.549   0.806  0.8369 -2.3811  0.9635
   76MOL   H21727367   5.298   2.405   0.766 -1.8210  2.3496  1.0219
   76MOL   C21827368   5.814   2.297   0.796  0.0773  0.8565 -0.3424
   76MOL   C21927369   5.792   2.162   0.873  0.4962 -0.2465  0.2554
   76MOL   C22027370   5.878   2.146   1.003 -0.0662 -0.4416  0.5095
   76MOL   C22127371   5.812   2.218   1.123  0.3757  0.1083  0.5440
   76MOL   C22227372   5.691   2.130   1.170 -0.0134  0.5185 -0.3169
   76MOL   C22327373   5.917   2.227   1.239  0.1491 -0.1893  0.2843
   76MOL   H22427374   5.922   2.309   0.785  0.4849 -0.6263  1.7294
   76MOL   H22527375   5.787   2.379   0.862  1.8158  0.3986  0.9621
   76MOL   H22627376   5.687   2.161   0.901  0.2816 -0.8340 -0.5575
   76MOL   H22727377   5.892   2.039   1.021 -1.5525 -0.9354 -1.2305
   76MOL   H22827378   5.981   2.182   0.992 -0.9674  2.2601  0.6257
   76MOL   H22927379   5.775   2.316   1.094  0.0800  0.0554  0.7425
   76MOL   H23027380   5.697   2.021   1.166 -0.5408  0.4960 -0.5125
   76MOL   H23127381   5.682   2.135   1.279 -0.8977 -0.3912 -0.3364
   76MOL   H23227382   5.597   2.154   1.121  0.3339  3.5376  0.3910
   76MOL   H23327383   5.963   2.128   1.239 -0.1063 -0.3243 -1.7364
   76MOL   H23427384   5.984   2.305   1.203 -0.1113 -0.7308 -1.3994
   76MOL   H23527385   5.868   2.259   1.331 -0.0299 -0.8867  0.4395
   76MOL   C23627386   5.828   2.042   0.785 -0.6375 -0.2663  0.9440
   76MOL   C23727387   5.741   1.923   0.812  0.3614 -0.5584  0.0691
   76MOL   C23827388   5.818   1.793   0.786  0.0543  0.3172  0.2934
   76MOL   C23927389   5.930   1.754   0.880  0.1115 -0.3019  0.0139
   76MOL   C24027390   5.879   1.707   1.013 -0.6374 -0.0662  0.4337
   76MOL   C24127391   6.023   1.656   0.810 -0.9406  0.2113 -0.5042
   76MOL   H24227392   5.932   2.013   0.797 -0.7828 -2.0240 -1.6982
   76MOL   H24327393   5.824   2.055   0.677  2.2903  0.6320  0.9045
   76MOL   H24427394   5.719   1.921   0.919 -2.4736  0.1520 -0.4476
   76MOL   H24527395   5.849   1.787   0.682 -0.6054 -0.5568  0.1433
   76MOL   H24627396   5.746   1.712   0.784 -0.2899  0.6084 -4.1442
   76MOL   H24727397   5.987   1.846   0.895  0.1796 -0.3597  0.1077
   76MOL   H24827398   5.843   1.798   1.061  2.3692  1.8516 -0.7844
   76MOL   H24927399   5.947   1.645   1.073 -0.3825 -0.8939 -0.7083
   76MOL   H25027400   5.795   1.641   0.994 -1.1774  0.8414 -0.3851
   76MOL   H25127401   6.056   1.688   0.712  1.4630 -1.6710 -0.3653
   76MOL   H25227402   5.967   1.562   0.801  1.5912 -1.5149  1.0271
   76MOL   H25327403   6.109   1.636   0.874  0.5746  0.6080 -2.4029
   76MOL   C25427404   5.618   1.942   0.717  0.0011  0.0674  0.6039
   76MOL   C25527405   5.491   1.887   0.782  0.4612  0.0913  0.0385
   76MOL   C25627406   5.452   1.981   0.901  0.4659 -0.0033  0.0245
   76MOL   C25727407   5.365   1.920   1.008  0.2379 -0.5453  0.0479
   76MOL   C25827408   5.246   2.012   1.044 -0.7356 -0.2246 -0.7045
   76MOL   C25927409   5.447   1.870   1.125 -0.7128  0.3775 -0.6404
   76MOL   H26027410   5.596   2.047   0.699 -1.2680 -0.4954 -1.4275
   76MOL   H26127411   5.637   1.888   0.624 -0.5463 -0.5856  0.8590
   76MOL   H26227412   5.503   1.790   0.830 -0.1405  0.4988  1.0035
   76MOL   H26327413   5.410   2.072   0.858 -0.0585 -0.0476  0.4381
   76MOL   H26427414   5.531   2.037   0.951 -0.2648  0.3607  0.7860
   76MOL   H26527415   5.329   1.827   0.964 -1.7271  0.8248 -1.3107
   76MOL   H26627416   5.261   2.100   1.107  1.2625 -0.6309 -0.5956
   76MOL   H26727417   5.170   1.952   1.093 -0.0453 -0.1900  0.4317
   76MOL   H26827418   5.200   2.059   0.957 -1.6610 -0.5457 -0.3972
   76MOL   H26927419   5.519   1.797   1.088 -0.3371  0.9865 -1.1162
   76MOL   H27027420   5.490   1.952   1.182 -2.6966  0.2396  1.1221
   76MOL   H27127421   5.382   1.821   1.198  1.8737 -3.1882 -0.5814
   76MOL   C27227422   5.364   1.873   0.696  0.1073  0.4488 -0.1678
   76MOL   C27327423   5.364   1.768   0.582  1.1292 -0.3850 -0.4676
   76MOL   C27427424   5.324   1.624   0.633 -0.0062 -0.1218 -0.3107
   76MOL   C27527425   5.413   1.507   0.588  0.3454 -0.2879 -0.4876
   76MOL   C27627426   5.330   1.382   0.594 -0.3109  0.3425  0.4775
   76MOL   C27727427   5.544   1.496   0.670  0.0343 -0.2924 -0.4009
   76MOL   H27827428   5.280   1.845   0.760 -0.2286 -1.1032 -1.2746
   76MOL   H27927429   5.324   1.965   0.653  0.6857  0.3988 -0.8055
   76MOL   H28027430   5.468   1.752   0.551  0.5946 -0.7504 -2.1292
   76MOL   H28127431   5.218   1.600   0.631  0.1359 -0.9141  1.3717
   76MOL   H28227432   5.326   1.633   0.741 -0.4777  0.1520 -0.3255
   76MOL   H28327433   5.447   1.512   0.484  2.2743  3.6813  0.2318
   76MOL   H28427434   5.263   1.366   0.678  0.9084  1.9133  1.7860
   76MOL   H28527435   5.267   1.389   0.505 -0.1918  0.8218  0.4289
   76MOL   H28627436   5.404   1.304   0.581  0.3680  0.3250  4.0070
   76MOL   H28727437   5.604   1.410   0.642 -2.4237 -2.6735  1.3226
   76MOL   H28827438   5.612   1.577   0.646  0.9488 -0.0781  2.7002
   76MOL   H28927439   5.526   1.497   0.777  2.1587 -0.8414 -0.0188
   76MOL   C29027440   5.278   1.799   0.457  0.3668 -0.0508  0.0882
   76MOL   C29127441   5.336   1.922   0.380 -0.4586  0.6171 -0.1478
   76MOL   C29227442   5.475   1.883   0.314  0.1097 -0.0524 -0.4112
   76MOL   C29327443   5.523   1.978   0.205  0.0106  0.1263  0.5487
   76MOL   C29427444   5.545   2.126   0.264 -0.3927 -0.0992  0.9158
   76MOL   C29527445   5.656   1.921   0.150 -0.1028  0.2215 -0.3134
   76MOL   H29627446   5.277   1.713   0.390 -5.5128  1.1273 -1.6323
   76MOL   H29727447   5.177   1.809   0.496 -0.1051 -1.9787 -0.6157
   76MOL   H29827448   5.361   2.009   0.441  1.0170 -0.9453  1.5292
   76MOL   H29927449   5.467   1.783   0.273  1.0165  0.9048 -3.0320
   76MOL   H30027450   5.543   1.878   0.398 -0.7500 -2.3736  0.1680
   76MOL   H30127451   5.465   1.988   0.114  0.9871  1.6653  0.0867
   76MOL   H30227452   5.590   2.184   0.184 -1.8491 -0.1072  0.0629
   76MOL   H30327453   5.608   2.132   0.352 -0.8023  1.4454  1.1163
   76MOL   H30427454   5.457   2.183   0.293 -0.4873 -0.3827  1.1843
   76MOL   H30527455   5.629   1.826   0.105 -0.5779 -0.4798  1.4001
   76MOL   H30627456   5.726   1.904   0.232 -0.6751 -0.3735  0.0580
   76MOL   H30727457   5.692   1.988   0.072  1.5291  1.3364  1.3337
   76MOL   C30827458   5.234   1.970   0.273  0.3612 -0.4996 -0.4420
   76MOL   C30927459   5.103   2.023   0.325  0.2980  0.0804 -0.5516
   76MOL   C31027460   5.121   2.163   0.391  0.1384  0.1236  0.5589
   76MOL   C31127461   5.031   2.188   0.512  0.3604  0.3019  0.3657
   76MOL   C31227462   5.084   2.132   0.648 -0.2962  0.6017 -0.2228
   76MOL   C31327463   4.996   2.337   0.527  0.0884 -0.6760  0.3022
   76MOL   H31427464   5.278   2.052   0.216 -0.3115  0.2171  0.0548
   76MOL   H31527465   5.207   1.883   0.213  2.0032 -1.3648  0.0529
   76MOL   H31627466   5.054   1.957   0.397  0.0805  0.2530 -0.5422
   76MOL   H31727467   5.114   2.240   0.315 -1.0687 -0.5777 -0.0458
   76MOL   H31827468   5.228   2.176   0.412  1.0185 -1.8215 -2.4862
   76MOL   H31927469   4.935   2.140   0.493  0.5456  0.2811 -0.5388
   76MOL   H32027470   5.085   2.024   0.664 -0.9353  0.6146 -0.1094
   76MOL   H32127471   5.024   2.176   0.727 -0.3420 -0.4526  0.3408
   76MOL   H32227472   5.185   2.170   0.665 -0.5870  0.5184  1.8605
   76MOL   H32327473   4.955   2.377   0.435 -0.9563  1.2468  1.5783
   76MOL   H32427474   4.923   2.347   0.607  0.8988 -1.4163  1.1588
   76MOL   H32527475   5.084   2.395   0.557  0.9047 -2.2602  1.0502
   76MOL   C32627476   5.006   2.033   0.201  0.0403  0.3802  0.6930
   76MOL   C32727477   4.848   2.051   0.234  0.2258  0.7517  0.5214
   76MOL   C32827478   4.794   1.920   0.291  0.0309 -0.0774  0.5708
   76MOL   C32927479   4.753   1.915   0.436  0.3067 -0.2849 -1.0934
   76MOL   C33027480   4.633   2.013   0.458  0.4437 -0.0597  0.5168
   76MOL   C33127481   4.706   1.773   0.478 -0.1364  0.4180  0.3363
   76MOL   H33227482   5.020   1.948   0.135 -0.6240 -0.3974  1.5400
   76MOL   H33327483   5.060   2.113   0.150  3.2529 -3.2384 -1.7727
   76MOL   H33427484   4.832   2.127   0.310 -0.1190  1.3329 -0.1331
   76MOL   H33527485   4.710   1.883   0.231 -0.3711  2.4775 -0.4963
   76MOL   H33627486   4.876   1.850   0.276 -1.7092 -2.0468 -0.0592
   76MOL   H33727487   4.839   1.939   0.498 -0.1672  0.0608 -0.5622
   76MOL   H33827488   4.557   1.994   0.382  1.4343 -2.2423  0.0179
   76MOL   H33927489   4.667   2.116   0.451 -1.9161  0.7919  1.0916
   76MOL   H34027490   4.603   1.999   0.561  0.7290  2.2183  0.9377
   76MOL   H34127491   4.609   1.743   0.440 -0.1635  1.3533 -0.3570
   76MOL   H34227492   4.775   1.701   0.433 -1.7764 -1.5301  0.8859
   76MOL   H34327493   4.708   1.767   0.587  1.4814  0.2153  0.3052
   76MOL   C34427494   4.780   2.108   0.117  0.1983 -0.9428  0.3686
   76MOL   C34527495   4.785   2.264   0.108  0.1414 -0.3132 -0.5059
   76MOL   C34627496   4.720   2.339   0.225 -0.2248 -0.5174 -0.3521
   76MOL   C34727497   4.731   2.490   0.212  0.3062  0.1593 -0.4219
   76MOL   C34827498   4.714   2.554   0.344  0.2442 -0.0922 -0.2312
   76MOL   C34927499   4.635   2.555   0.111  0.6192 -0.2134 -0.6725
   76MOL   H35027500   4.676   2.075   0.109 -0.2067  0.6059 -0.9852
   76MOL   H35127501   4.817   2.070   0.022 -0.5755  0.7762 -0.6385
   76MOL   H35227502   4.725   2.283   0.019 -2.0554  1.2919  1.2804
   76MOL   H35327503   4.619   2.299   0.238 -1.6331  2.4347 -1.8119
   76MOL   H35427504   4.780   2.322   0.315 -0.6469 -0.1067  0.0149
   76MOL   H35527505   4.833   2.515   0.182 -0.1415  1.9852 -0.4791
   76MOL   H35627506   4.617   2.536   0.390  0.9812  1.0630  1.8812
   76MOL   H35727507   4.784   2.526   0.423 -0.2511  0.2820  0.3456
   76MOL   H35827508   4.718   2.661   0.323  0.8114 -0.1908 -0.6363
   76MOL   H35927509   4.534   2.537   0.148 -0.0459  1.7323 -1.4905
   76MOL   H36027510   4.648   2.507   0.014  1.9280  1.8497 -1.5397
   76MOL   H36127511   4.655   2.662   0.109  0.5301 -0.1964 -0.6736
   76MOL   H36227512   4.889   2.295   0.092  0.6995 -1.2213  1.2475
   77MOL     C127513   4.439   0.786   1.353  0.2564  0.1712  0.9591
   77MOL     C227514   4.399   0.639   1.372 -0.1631  0.6137  0.6019
   77MOL     C327515   4.244   0.600   1.364 -0.0019 -0.0394  0.7117
   77MOL     C427516   4.179   0.665   1.233  0.5442 -0.3330  0.3909
   77MOL     C527517   4.027   0.645   1.238 -0.4806  0.1795  0.6922
   77MOL     C627518   4.248   0.597   1.114  0.1653  0.3644 -0.2968
   77MOL     H727519   4.380   0.833   1.431 -0.8269 -0.8056  0.7269
   77MOL     H827520   4.546   0.810   1.361 -0.1333  2.0557  0.7400
   77MOL     H927521   4.454   0.577   1.302 -2.4573 -3.7860  2.5049
   77MOL    H1027522   4.242   0.491   1.371 -1.3482 -0.1080 -0.3705
   77MOL    H1127523   4.194   0.642   1.450  2.3695 -0.9974  2.6054
   77MOL    H1227524   4.210   0.769   1.228 -1.6068  0.2436 -1.6549
   77MOL    H1327525   4.003   0.543   1.265 -0.4141  0.9046  3.6155
   77MOL    H1427526   3.966   0.701   1.308 -0.0974  0.1561  1.0447
   77MOL    H1527527   3.996   0.669   1.136  2.1975  2.0880  0.2751
   77MOL    H1627528   4.200   0.626   1.021 -1.1063  1.5330  0.6964
   77MOL    H1727529   4.248   0.488   1.121  1.6314  0.3601 -0.1158
   77MOL    H1827530   4.355   0.618   1.107  0.2690 -0.2474 -0.5773
   77MOL    H1927531   4.423   0.824   1.252 -0.8631 -0.5761  0.8539
   77MOL    C2027532   4.463   0.600   1.502  0.5668  0.0685 -0.4079
   77MOL    C2127533   4.472   0.448   1.533 -0.2009  0.1140  0.4196
   77MOL    C2227534   4.593   0.380   1.469  0.2565 -0.2908  0.3968
   77MOL    C2327535   4.584   0.231   1.447 -0.6751 -0.4854  0.5193
   77MOL    C2427536   4.478   0.194   1.343  0.2648  0.0323 -0.1321
   77MOL    C2527537   4.719   0.176   1.399  0.5495  0.3357 -0.9835
   77MOL    H2627538   4.559   0.649   1.518  0.0829  0.6165  0.8929
   77MOL    H2727539   4.398   0.645   1.577 -0.9198 -0.1467 -1.5561
   77MOL    H2827540   4.384   0.391   1.503 -0.7825  1.0614  0.3112
   77MOL    H2927541   4.682   0.420   1.518 -0.3233  2.2822 -0.5823
   77MOL    H3027542   4.608   0.430   1.373  0.3669 -1.3308 -0.1395
   77MOL    H3127543   4.564   0.185   1.544  0.1600 -1.7096  0.1264
   77MOL    H3227544   4.468   0.085   1.338 -0.2986  0.0371  0.6970
   77MOL    H3327545   4.497   0.244   1.249  0.2270 -1.2852 -0.8600
   77MOL    H3427546   4.378   0.226   1.374  0.3120  0.9580 -0.9195
   77MOL    H3527547   4.746   0.226   1.306  0.1855  0.3687 -1.0702
   77MOL    H3627548   4.788   0.189   1.483 -3.0333  2.8675  1.7208
   77MOL    H3727549   4.718   0.073   1.363  2.3102  0.7019 -2.1280
   77MOL    C3827550   4.472   0.427   1.692 -0.2333 -0.3244  0.2499
   77MOL    C3927551   4.335   0.436   1.767  0.4555 -0.7811 -0.6212
   77MOL    C4027552   4.350   0.388   1.917 -0.4687 -0.4328 -0.6385
   77MOL    C4127553   4.424   0.488   2.007  0.0686 -0.1998  0.6409
   77MOL    C4227554   4.485   0.426   2.131 -0.1340 -0.9693 -0.0640
   77MOL    C4327555   4.342   0.618   2.037 -0.5299  0.3673  0.0549
   77MOL    H4427556   4.538   0.502   1.735 -2.5128  2.7167 -1.3250
   77MOL    H4527557   4.520   0.331   1.713  1.5440  0.2332 -1.1507
   77MOL    H4627558   4.308   0.541   1.767  0.3393 -0.8088 -0.1583
   77MOL    H4727559   4.397   0.290   1.917 -0.8500 -0.6206 -1.5536
   77MOL    H4827560   4.256   0.370   1.969 -1.1879 -0.9654 -2.1077
   77MOL    H4927561   4.510   0.522   1.949 -1.3888 -1.1202 -2.1923
   77MOL    H5027562   4.543   0.335   2.118  0.9042 -0.1526 -1.2637
   77MOL    H5127563   4.564   0.493   2.164 -0.9515 -0.4483  0.8746
   77MOL    H5227564   4.408   0.416   2.208 -1.1335  2.3096 -0.5553
   77MOL    H5327565   4.307   0.677   1.952 -2.9433  0.1847  0.8742
   77MOL    H5427566   4.407   0.674   2.104  0.5681 -0.8666  0.0409
   77MOL    H5527567   4.257   0.610   2.105 -1.7428  1.7195 -1.2607
   77MOL    C5627568   4.221   0.358   1.703  0.0504  0.6857 -0.4479
   77MOL    C5727569   4.087   0.369   1.771 -0.1223 -0.1243 -0.0452
   77MOL    C5827570   4.000   0.249   1.732 -0.0109  0.8103  0.0486
   77MOL    C5927571   4.013   0.117   1.816 -0.3657  0.2519 -0.5683
   77MOL    C6027572   3.948   0.120   1.958  0.3614  0.0010 -0.2110
   77MOL    C6127573   4.161   0.062   1.824  0.0849  0.5302 -0.3943
   77MOL    H6227574   4.243   0.256   1.673  0.7913  0.9161 -0.7078
   77MOL    H6327575   4.207   0.399   1.604 -1.6232  0.3996 -0.3324
   77MOL    H6427576   4.080   0.371   1.880  2.1532 -0.8333  0.1505
   77MOL    H6527577   3.896   0.282   1.742 -0.1268  0.1047  1.3277
   77MOL    H6627578   4.003   0.231   1.625 -0.7959  4.7856 -0.7281
   77MOL    H6727579   3.962   0.036   1.764 -0.9563  0.2818 -0.0399
   77MOL    H6827580   3.841   0.136   1.945  0.3933 -0.9239 -1.8446
   77MOL    H6927581   3.983   0.202   2.021  0.7049 -0.9448  0.8338
   77MOL    H7027582   3.954   0.025   2.010 -0.8323  0.3385  0.5513
   77MOL    H7127583   4.178   7.723   1.882  1.5821  0.4220 -0.9614
   77MOL    H7227584   4.222   0.131   1.883 -1.6307  1.2540  0.5826
   77MOL    H7327585   4.217   0.041   1.733  1.0097 -2.9143  0.8710
   77MOL    C7427586   4.018   0.499   1.726  0.0244 -0.1006  0.3455
   77MOL    C7527587   3.904   0.548   1.821  1.0197  0.0519  0.6800
   77MOL    C7627588   3.797   0.632   1.740  0.7837  0.1546  0.1255
   77MOL    C7727589   3.688   0.547   1.668 -0.0637  0.6113 -0.4136
   77MOL    C7827590   3.640   0.607   1.540  0.3119 -0.3272 -0.2211
   77MOL    C7927591   3.574   0.505   1.759  0.3508  0.7703 -0.0785
   77MOL    H8027592   3.987   0.483   1.623  2.1043 -0.5246 -0.2564
   77MOL    H8127593   4.094   0.577   1.714  2.5020 -2.2576  1.3634
   77MOL    H8227594   3.855   0.456   1.852  1.4717 -0.3884  0.0864
   77MOL    H8327595   3.749   0.706   1.804  1.7631  0.2511  0.7456
   77MOL    H8427596   3.852   0.696   1.672 -0.4140 -0.6689 -1.6819
   77MOL    H8527597   3.730   0.456   1.625  0.2397 -0.1614  1.4794
   77MOL    H8627598   3.606   0.710   1.550  1.0416  0.4118 -4.1852
   77MOL    H8727599   3.550   0.550   1.517 -0.3907 -0.1499  2.0376
   77MOL    H8827600   3.715   0.585   1.463 -0.7012  0.4740 -1.4637
   77MOL    H8927601   3.529   0.600   1.788 -0.5364  0.2914  0.1376
   77MOL    H9027602   3.502   0.442   1.705  1.4191 -1.6392  1.2092
   77MOL    H9127603   3.594   0.457   1.855 -1.1895  2.0989  0.9382
   77MOL    C9227604   3.962   0.637   1.931  0.3708 -0.2458 -0.5118
   77MOL    C9327605   3.871   0.645   2.056  0.4158 -0.1810 -0.1647
   77MOL    C9427606   3.865   0.512   2.128  0.5848 -0.1896  0.9583
   77MOL    C9527607   3.763   0.499   2.249 -0.4607 -0.0108 -0.3011
   77MOL    C9627608   3.618   0.489   2.199  0.2918 -0.0607  0.0663
   77MOL    C9727609   3.808   0.392   2.345  0.2643  0.5880  0.1149
   77MOL    H9827610   4.060   0.599   1.956  1.3172 -0.2657 -3.9138
   77MOL    H9927611   3.970   0.738   1.891 -1.3982  0.6874  1.4122
   77MOL   H10027612   3.764   0.660   2.039  0.7064  1.0359 -0.9885
   77MOL   H10127613   3.963   0.472   2.150 -0.8771 -4.0931  0.8286
   77MOL   H10227614   3.825   0.437   2.059  2.8153  0.4430 -1.0995
   77MOL   H10327615   3.774   0.594   2.302 -0.7973 -0.5562  0.7610
   77MOL   H10427616   3.609   0.399   2.139 -0.3424 -0.9092  1.4002
   77MOL   H10527617   3.589   0.573   2.135 -0.3162  0.5462  1.1295
   77MOL   H10627618   3.537   0.488   2.272 -1.3333  0.8763 -1.6801
   77MOL   H10727619   3.906   0.408   2.390 -0.1085  0.6920  0.8960
   77MOL   H10827620   3.803   0.289   2.311 -2.6348  0.2066  1.5410
   77MOL   H10927621   3.736   0.393   2.427  0.2989 -0.8975  0.1718
   77MOL   C11027622   3.933   0.753   2.151  0.2235  0.2087  0.4785
   77MOL   C11127623   3.894   0.906   2.117 -0.0093  0.2764  0.4867
   77MOL   C11227624   3.739   0.934   2.088  0.3110  0.1168 -0.0396
   77MOL   C11327625   3.640   0.911   2.197 -0.3637  0.0292 -0.1869
   77MOL   C11427626   3.503   0.897   2.126  1.0834  0.2733 -0.3636
   77MOL   C11527627   3.637   1.029   2.299  0.8616  0.3862  0.8779
   77MOL   H11627628   4.041   0.744   2.166  0.9178  2.1294 -2.9099
   77MOL   H11727629   3.896   0.741   2.253 -0.5460 -0.3398  0.1435
   77MOL   H11827630   3.945   0.925   2.023  0.0467 -1.5080  0.1490
   77MOL   H11927631   3.725   0.864   2.006  1.7470  2.2814 -2.2237
   77MOL   H12027632   3.720   1.037   2.057 -1.8195 -0.6833 -1.4864
   77MOL   H12127633   3.661   0.814   2.242  0.7390 -0.2594 -1.2802
   77MOL   H12227634   3.494   0.833   2.038 -0.3128  1.3423 -1.0221
   77MOL   H12327635   3.473   0.995   2.089  0.9530 -0.5877 -2.6165
   77MOL   H12427636   3.423   0.864   2.192  0.1976  0.8715 -1.1236
   77MOL   H12527637   3.590   1.118   2.256 -0.1234 -0.4810  0.1274
   77MOL   H12627638   3.740   1.058   2.320  0.2376  1.4246  2.5766
   77MOL   H12727639   3.585   0.998   2.389 -1.0071 -0.9137 -0.6188
   77MOL   C12827640   3.971   1.006   2.210 -0.2201  0.3559  0.7788
   77MOL   C12927641   4.124   1.025   2.181  0.6012 -0.2603  0.0118
   77MOL   C13027642   4.191   1.034   2.320  0.1358 -0.3405 -0.0923
   77MOL   C13127643   4.347   1.049   2.328 -0.2353 -0.1408  0.1995
   77MOL   C13227644   4.379   1.055   2.475 -0.2717  0.2753  0.0421
   77MOL   C13327645   4.419   0.934   2.263 -0.6854 -0.0198 -0.2518
   77MOL   H13427646   3.951   0.979   2.314  0.8950  0.6149  1.0652
   77MOL   H13527647   3.928   1.106   2.215  0.4435  0.7299 -0.6727
   77MOL   H13627648   4.172   0.940   2.133 -1.8040 -1.2032 -0.7778
   77MOL   H13727649   4.147   1.119   2.372  2.7618  1.3823 -0.6156
   77MOL   H13827650   4.154   0.950   2.379 -2.1673  1.3758  0.9625
   77MOL   H13927651   4.378   1.139   2.275  0.4844 -0.8459 -0.6158
   77MOL   H14027652   4.312   1.118   2.535  0.4874  0.5076  0.6498
   77MOL   H14127653   4.485   1.071   2.495  0.4170 -0.7642 -2.5600
   77MOL   H14227654   4.379   0.950   2.502  0.1871  0.7995  2.1990
   77MOL   H14327655   4.528   0.945   2.256 -0.6938 -0.2982 -0.8184
   77MOL   H14427656   4.393   0.835   2.300  1.4243  0.1496  1.8192
   77MOL   H14527657   4.386   0.923   2.160  0.9606 -1.7649 -0.6322
   77MOL   C14627658   4.149   1.163   2.103 -0.1039  0.6057  0.0747
   77MOL   C14727659   4.093   1.158   1.962 -0.2262  0.4930  0.7623
   77MOL   C14827660   4.155   1.045   1.883 -0.0543 -0.5567 -0.0131
   77MOL   C14927661   4.122   1.038   1.728 -0.1628 -0.7605  0.2498
   77MOL   C15027662   4.203   0.930   1.662  0.1505  0.2847  0.5557
   77MOL   C15127663   3.973   1.012   1.716 -0.5214  0.7267  0.0651
   77MOL   H15227664   4.252   1.197   2.109  0.3787 -0.4292 -1.9321
   77MOL   H15327665   4.101   1.246   2.155 -0.8211 -0.3498  0.9599
   77MOL   H15427666   3.985   1.148   1.976  0.0829 -3.7009  0.9050
   77MOL   H15527667   4.262   1.060   1.897  0.1382  0.1902 -2.0736
   77MOL   H15627668   4.138   0.945   1.923 -0.5190 -0.4801 -0.0139
   77MOL   H15727669   4.152   1.127   1.671  0.5006 -1.0424  0.1524
   77MOL   H15827670   4.170   0.907   1.561  0.2984 -2.9232  1.1864
   77MOL   H15927671   4.183   0.841   1.720 -4.4351  0.2186 -0.9479
   77MOL   H16027672   4.310   0.950   1.650  0.0695  1.9208  2.2550
   77MOL   H16127673   3.942   0.947   1.798  2.9432 -0.0060  0.8651
   77MOL   H16227674   3.942   0.969   1.620  0.3780 -0.9394  0.4960
   77MOL   H16327675   3.913   1.103   1.722 -2.6347 -0.5281 -0.9944
   77MOL   C16427676   4.120   1.300   1.891  0.1742 -1.2437 -0.0415
   77MOL   C16527677   4.009   1.404   1.922  0.1356  0.1851  1.0015
   77MOL   C16627678   4.066   1.544   1.956 -0.2426 -0.3104  0.3881
   77MOL   C16727679   4.136   1.549   2.091 -0.6453 -0.2729 -0.4039
   77MOL   C16827680   4.215   1.683   2.100 -0.1631  0.4123  0.7855
   77MOL   C16927681   4.040   1.549   2.205 -0.1246  0.2328  0.8152
   77MOL   H17027682   4.224   1.323   1.914 -0.6683 -0.1420  2.8724
   77MOL   H17127683   4.148   1.296   1.786  2.6668 -1.3911  0.5929
   77MOL   H17227684   3.956   1.367   2.010  0.0021  1.5972  1.5201
   77MOL   H17327685   4.134   1.559   1.871 -1.5589  1.7070 -0.3326
   77MOL   H17427686   3.998   1.629   1.949 -0.6190 -0.7729 -2.0133
   77MOL   H17527687   4.201   1.463   2.101 -1.0827 -0.6974 -1.1419
   77MOL   H17627688   4.159   1.771   2.068  2.8778  2.1213 -0.0499
   77MOL   H17727689   4.299   1.672   2.032 -0.3239  1.6145  0.3851
   77MOL   H17827690   4.249   1.712   2.199 -0.1025  0.1198  0.8526
   77MOL   H17927691   3.993   1.647   2.214 -1.9307 -0.7058  1.9284
   77MOL   H18027692   4.091   1.537   2.301  0.1179  1.1183  0.8038
   77MOL   H18127693   3.970   1.466   2.208 -1.3311  1.2532  1.6404
   77MOL   C18227694   3.921   1.408   1.798 -0.0528  0.1687 -0.4135
   77MOL   C18327695   3.776   1.465   1.824  0.5333  0.1239  0.5763
   77MOL   C18427696   3.687   1.502   1.700 -0.6436  0.1523  0.1543
   77MOL   C18527697   3.715   1.638   1.635 -0.0098  0.0757 -0.1638
   77MOL   C18627698   3.677   1.761   1.719  0.0634  0.4608  0.0960
   77MOL   C18727699   3.853   1.651   1.576 -0.0633 -0.4226 -0.0892
   77MOL   H18827700   3.913   1.317   1.738 -0.5596 -0.4007  0.5054
   77MOL   H18927701   3.979   1.473   1.734  1.6641 -0.2603  0.6863
   77MOL   H19027702   3.790   1.551   1.889  1.3744 -1.5337  2.6461
   77MOL   H19127703   3.583   1.513   1.731 -1.1728  0.4857 -1.6952
   77MOL   H19227704   3.704   1.425   1.625  4.2105  0.8025  0.4397
   77MOL   H19327705   3.645   1.633   1.552 -1.3040 -4.1540  1.0756
   77MOL   H19427706   3.675   1.855   1.665  1.8852  1.1592  1.2075
   77MOL   H19527707   3.763   1.786   1.781  0.7284 -0.2298 -0.5252
   77MOL   H19627708   3.590   1.754   1.784  0.2743  1.7386  0.5188
   77MOL   H19727709   3.879   1.565   1.515  0.8324 -0.4534  0.3373
   77MOL   H19827710   3.929   1.664   1.653  1.2780 -0.7592 -1.3339
   77MOL   H19927711   3.858   1.738   1.510  1.7060 -1.5384 -1.4630
   77MOL   C20027712   3.699   1.363   1.906 -0.1008  0.4552 -0.4179
   77MOL   C20127713   3.587   1.429   1.991  0.1959  0.2781 -0.0155
   77MOL   C20227714   3.659   1.476   2.123 -0.7359  0.2913 -0.7673
   77MOL   C20327715   3.584   1.584   2.216 -0.0340 -0.8239  0.1552
   77MOL   C20427716   3.670   1.622   2.336  1.1661 -0.6716 -0.0268
   77MOL   C20527717   3.511   1.708   2.140 -0.2133  1.0162  0.0429
   77MOL   H20627718   3.763   1.310   1.976 -1.7359  2.1387  2.4593
   77MOL   H20727719   3.663   1.278   1.847 -1.6096  1.1738 -0.5661
   77MOL   H20827720   3.537   1.506   1.933  1.7228  0.0348 -1.7154
   77MOL   H20927721   3.688   1.397   2.192  0.6849  0.6802 -0.8991
   77MOL   H21027722   3.749   1.531   2.096 -1.3658  1.0330 -1.3546
   77MOL   H21127723   3.497   1.535   2.261 -1.0550  0.8824  0.0898
   77MOL   H21227724   3.687   1.538   2.403  1.3889 -1.4815 -1.0949
   77MOL   H21327725   3.621   1.701   2.394  0.5924 -1.1428  0.1439
   77MOL   H21427726   3.768   1.662   2.312  1.4518 -1.0959  0.4303
   77MOL   H21527727   3.586   1.776   2.101  0.5185  0.0933 -0.1594
   77MOL   H21627728   3.447   1.759   2.213 -2.3564 -0.9533 -0.3728
   77MOL   H21727729   3.442   1.665   2.068  0.1781  0.0958  0.2088
   77MOL   C21827730   3.485   1.313   2.023 -0.2793 -0.0714 -1.0627
   77MOL   C21927731   3.387   1.279   1.911  0.7956 -0.6458  0.2500
   77MOL   C22027732   3.238   1.316   1.937  0.1521 -0.0252  1.2752
   77MOL   C22127733   3.216   1.467   1.944  0.4483 -0.5033 -0.0853
   77MOL   C22227734   3.208   1.542   1.810  0.6273  0.5996 -0.2827
   77MOL   C22327735   3.082   1.497   2.023  0.2988  0.7885  0.6153
   77MOL   H22427736   3.545   1.225   2.045  0.7225  0.2259 -2.4741
   77MOL   H22527737   3.428   1.341   2.111 -1.2301  1.2580 -2.0712
   77MOL   H22627738   3.416   1.344   1.828  0.8861 -1.4515 -0.3490
   77MOL   H22727739   3.179   1.270   1.858  1.5079 -0.3963  0.4500
   77MOL   H22827740   3.206   1.266   2.029 -0.2777  0.0986  1.1909
   77MOL   H22927741   3.288   1.523   2.004  0.0059 -1.8085  1.6945
   77MOL   H23027742   3.308   1.556   1.768  0.6710  0.8852 -0.0883
   77MOL   H23127743   3.156   1.482   1.735 -2.5628  0.4825  1.9163
   77MOL   H23227744   3.180   1.648   1.816  2.2367  0.9573  1.2663
   77MOL   H23327745   3.048   1.600   2.014 -0.1598  0.7455  1.7505
   77MOL   H23427746   2.998   1.432   1.996  0.4017  0.8243  0.1975
   77MOL   H23527747   3.087   1.478   2.130 -2.1928 -0.9152  0.4854
   77MOL   C23627748   3.391   1.127   1.866  0.0879  0.6219  0.3332
   77MOL   C23727749   3.368   1.104   1.717  0.4223  0.7430  0.2356
   77MOL   C23827750   3.332   0.957   1.695  0.2087  0.9080 -0.0957
   77MOL   C23927751   3.207   0.897   1.763  0.3700 -0.5295  0.1677
   77MOL   C24027752   3.091   0.995   1.739  0.7803 -0.0111 -0.5381
   77MOL   C24127753   3.177   0.762   1.704  0.4577 -0.7346 -0.3088
   77MOL   H24227754   3.311   1.079   1.922 -1.4292  0.2014 -2.1488
   77MOL   H24327755   3.488   1.081   1.889 -0.1570 -0.0573  0.0310
   77MOL   H24427756   3.286   1.174   1.701 -0.6813 -0.5518  0.2427
   77MOL   H24527757   3.416   0.889   1.709  0.3308  0.9304 -0.7211
   77MOL   H24627758   3.301   0.955   1.590 -0.4127 -0.8466  0.1091
   77MOL   H24727759   3.227   0.894   1.870  1.1095  1.3774  0.1084
   77MOL   H24827760   3.078   1.053   1.831  0.8075 -1.6068  0.4960
   77MOL   H24927761   3.004   0.931   1.736  0.3274  0.6385 -1.9437
   77MOL   H25027762   3.087   1.060   1.651  1.2532  2.9016  1.4951
   77MOL   H25127763   3.082   0.728   1.746 -0.4366 -0.7313 -2.2727
   77MOL   H25227764   3.261   0.697   1.727 -0.8369 -1.5449  2.3130
   77MOL   H25327765   3.170   0.767   1.595  0.0449 -0.7967 -0.2886
   77MOL   C25427766   3.498   1.150   1.642 -0.0198 -0.2666 -0.6459
   77MOL   C25527767   3.467   1.180   1.493 -0.6185 -0.0784  0.4424
   77MOL   C25627768   3.429   1.334   1.482 -0.5117  0.2645 -0.3756
   77MOL   C25727769   3.352   1.388   1.358  0.6185  0.5639  0.4722
   77MOL   C25827770   3.367   1.541   1.333  0.1077 -0.3487  0.5340
   77MOL   C25927771   3.203   1.361   1.375  0.3194 -0.1459  0.3521
   77MOL   H26027772   3.556   1.234   1.678 -1.4909 -0.3497  2.0235
   77MOL   H26127773   3.575   1.075   1.656 -0.6495 -1.5586 -3.7020
   77MOL   H26227774   3.374   1.138   1.457 -0.0009  0.1919 -1.4925
   77MOL   H26327775   3.520   1.394   1.492 -0.8438  0.7854 -0.4833
   77MOL   H26427776   3.373   1.364   1.571  0.5704 -2.0229  1.1486
   77MOL   H26527777   3.390   1.326   1.276 -2.4059  3.1274 -3.0478
   77MOL   H26627778   3.338   1.599   1.420 -1.0624  1.1028 -0.7999
   77MOL   H26727779   3.310   1.579   1.248 -1.1524 -1.1199  1.0268
   77MOL   H26827780   3.470   1.569   1.311  0.2378 -1.3489 -0.1862
   77MOL   H26927781   3.175   1.267   1.424 -2.0649  0.5323  0.3685
   77MOL   H27027782   3.162   1.436   1.442 -0.7776 -1.9398  1.7524
   77MOL   H27127783   3.144   1.366   1.283  1.1622  0.8852 -0.1377
   77MOL   C27227784   3.590   1.137   1.411  0.3760  0.5353 -0.1022
   77MOL   C27327785   3.591   0.990   1.369 -0.2452 -0.1790  0.0895
   77MOL   C27427786   3.477   0.951   1.267  0.2940  0.2668  0.4165
   77MOL   C27527787   3.455   0.801   1.247  0.4493  0.1859  0.2526
   77MOL   C27627788   3.412   0.765   1.107  0.2241  0.5123 -0.4167
   77MOL   C27727789   3.354   0.747   1.352 -0.0092  0.1109 -0.7664
   77MOL   H27827790   3.590   1.193   1.318 -2.3882  2.0344  0.7352
   77MOL   H27927791   3.679   1.159   1.471  0.3255  0.1730  0.1043
   77MOL   H28027792   3.562   0.931   1.457 -2.5209 -1.3337 -1.3687
   77MOL   H28127793   3.493   1.001   1.171 -1.8919 -0.2592 -0.2525
   77MOL   H28227794   3.375   0.981   1.290 -0.3661 -1.8850  0.4097
   77MOL   H28327795   3.545   0.745   1.271 -0.0337 -0.6036  0.2526
   77MOL   H28427796   3.408   0.658   1.087  1.0932  0.5109 -0.6349
   77MOL   H28527797   3.333   0.837   1.090  0.1588  0.1147 -1.8855
   77MOL   H28627798   3.490   0.795   1.036 -2.0701  1.4753 -2.6240
   77MOL   H28727799   3.383   0.761   1.456  1.1412 -0.6676 -0.9827
   77MOL   H28827800   3.254   0.792   1.345 -0.8927 -1.8313 -0.9025
   77MOL   H28927801   3.334   0.641   1.339  2.8694 -0.7216  1.1012
   77MOL   C29027802   3.734   0.943   1.330 -0.1079 -0.4433 -0.0394
   77MOL   C29127803   3.817   1.030   1.234 -0.3288  0.2399  0.4490
   77MOL   C29227804   3.970   0.989   1.241  0.0605  0.2918  0.0047
   77MOL   C29327805   4.062   1.108   1.261 -0.9973  0.4415  0.7463
   77MOL   C29427806   4.045   1.187   1.395  0.8754 -0.8547  0.1932
   77MOL   C29527807   4.212   1.075   1.237  0.1626  0.2848 -0.1585
   77MOL   H29627808   3.788   0.928   1.424 -0.4442  1.2589  0.4382
   77MOL   H29727809   3.725   0.842   1.291  1.1700  0.3541 -2.4950
   77MOL   H29827810   3.801   1.133   1.266 -2.3193 -0.1328  0.6702
   77MOL   H29927811   3.991   0.925   1.155 -5.3293  0.2793 -1.4841
   77MOL   H30027812   4.000   0.916   1.317 -0.6824 -1.2482 -1.1369
   77MOL   H30127813   4.043   1.170   1.173  1.1533 -2.4132 -1.8483
   77MOL   H30227814   3.949   1.237   1.408  1.9237  1.3530 -0.3612
   77MOL   H30327815   4.122   1.264   1.405  0.6006 -0.4608 -0.6350
   77MOL   H30427816   4.046   1.117   1.478 -2.1369  0.5905  1.5026
   77MOL   H30527817   4.224   1.042   1.133  0.0392  1.2494 -0.4824
   77MOL   H30627818   4.242   1.003   1.313 -1.5430  0.1009  0.3783
   77MOL   H30727819   4.259   1.173   1.244  2.1311 -0.6832  0.2423
   77MOL   C30827820   3.771   1.010   1.091 -1.1059  0.2111 -0.1605
   77MOL   C30927821   3.703   1.132   1.029  0.0322  0.8956 -0.1887
   77MOL   C31027822   3.809   1.232   0.985 -1.5341 -0.2555 -0.2356
   77MOL   C31127823   3.770   1.377   0.990 -0.5533  0.3955  0.9740
   77MOL   C31227824   3.753   1.430   1.131  0.1918 -0.1952 -0.0810
   77MOL   C31327825   3.870   1.460   0.915 -0.0222 -0.1241  0.4535
   77MOL   H31427826   3.858   1.003   1.026 -0.2067  0.1178  1.0309
   77MOL   H31527827   3.712   0.919   1.085 -1.4307  0.4624 -0.8515
   77MOL   H31627828   3.643   1.180   1.107  0.3408 -0.5558  0.9721
   77MOL   H31727829   3.836   1.199   0.884  0.9485 -1.2881  0.7171
   77MOL   H31827830   3.900   1.220   1.044 -1.6792 -0.8067 -0.1216
   77MOL   H31927831   3.672   1.392   0.946  0.1396  1.6343 -0.2164
   77MOL   H32027832   3.757   1.539   1.129  1.5564 -0.2293  0.0594
   77MOL   H32127833   3.818   1.396   1.212  0.6351  1.6891  0.3975
   77MOL   H32227834   3.649   1.408   1.156  0.2442 -0.4824 -0.1225
   77MOL   H32327835   3.867   1.425   0.812 -1.3409  0.8101  0.1696
   77MOL   H32427836   3.840   1.564   0.908 -1.1661 -0.4671  0.2813
   77MOL   H32527837   3.975   1.454   0.946  0.2172  0.1016 -0.2762
   77MOL   C32627838   3.610   1.091   0.914  1.1187 -0.5973  0.0940
   77MOL   C32727839   3.510   1.186   0.840  0.7771 -0.1197  0.5609
   77MOL   C32827840   3.407   1.250   0.929 -0.1794  0.4140  0.2677
   77MOL   C32927841   3.332   1.367   0.855  0.8317  0.5943 -0.9567
   77MOL   C33027842   3.210   1.417   0.928  0.4713  0.0313  0.6301
   77MOL   C33127843   3.428   1.483   0.816  0.2282 -0.0734  0.0954
   77MOL   H33227844   3.542   1.018   0.959  0.2367 -1.9488 -3.2772
   77MOL   H33327845   3.665   1.038   0.836  0.5658 -1.7883  0.4893
   77MOL   H33427846   3.575   1.264   0.802 -0.4385  0.5502 -0.1879
   77MOL   H33527847   3.344   1.168   0.965 -0.2438  1.2082  1.9786
   77MOL   H33627848   3.444   1.297   1.019 -1.0155 -0.0010  0.8378
   77MOL   H33727849   3.293   1.323   0.764  0.1550 -0.9560  0.0684
   77MOL   H33827850   3.132   1.342   0.941 -1.0633  1.3576 -0.6998
   77MOL   H33927851   3.166   1.500   0.872 -0.9529 -1.1148  0.0140
   77MOL   H34027852   3.247   1.464   1.019  0.2014  0.0586  0.7264
   77MOL   H34127853   3.515   1.459   0.755  0.4187 -1.1439  0.7804
   77MOL   H34227854   3.377   1.561   0.759  0.0734 -0.9573 -1.0001
   77MOL   H34327855   3.466   1.531   0.906  1.8850  0.3996 -0.8354
   77MOL   C34427856   3.454   1.123   0.712 -0.2207 -0.4590  0.4167
   77MOL   C34527857   3.330   1.033   0.743  0.0794  0.4515  0.0064
   77MOL   C34627858   3.286   0.947   0.617  0.0197 -0.5338 -0.0545
   77MOL   C34727859   3.175   0.840   0.652  0.1533  0.7137 -0.0924
   77MOL   C34827860   3.205   0.756   0.784  0.0719 -0.2648 -0.4439
   77MOL   C34927861   3.160   0.742   0.534  0.1839 -0.3672 -0.1088
   77MOL   H35027862   3.536   1.071   0.663  0.0879  1.4602 -1.1554
   77MOL   H35127863   3.421   1.193   0.635 -1.1137 -1.2914  0.0364
   77MOL   H35227864   3.245   1.091   0.778  0.9658 -0.1923  3.3174
   77MOL   H35327865   3.239   1.006   0.539 -1.3136  1.2930  2.0987
   77MOL   H35427866   3.376   0.898   0.578  2.1793  2.3057  1.1642
   77MOL   H35527867   3.085   0.898   0.672  0.7781  1.1184  1.6593
   77MOL   H35627868   3.211   0.823   0.870 -0.9255 -1.1827  0.3546
   77MOL   H35727869   3.127   0.687   0.817  0.1976 -2.1909 -3.8959
   77MOL   H35827870   3.300   0.705   0.797 -0.9145 -1.7548  1.2360
   77MOL   H35927871   3.132   0.639   0.558 -0.6820 -0.2164 -0.4417
   77MOL   H36027872   3.251   0.735   0.475 -1.0045  1.3020 -2.2175
   77MOL   H36127873   3.086   0.777   0.462 -1.1715 -1.0254  0.9366
   77MOL   H36227874   3.350   0.966   0.826 -1.6698  0.1056  0.1531
   78MOL     C127875   4.860   0.367   1.847 -0.1465 -0.0764  0.2643
   78MOL     C227876   4.888   0.518   1.835  0.5526  0.2784  0.2526
   78MOL     C327877   5.035   0.563   1.803 -0.5873  0.1466  0.0480
   78MOL     C427878   5.094   0.478   1.689 -1.0437 -0.7761  1.3823
   78MOL     C527879   5.254   0.513   1.689 -0.4892 -0.3145  0.9334
   78MOL     C627880   5.026   0.479   1.552 -0.1011 -0.1407  0.0614
   78MOL     H727881   4.874   0.331   1.745  0.0827  1.6620 -0.3365
   78MOL     H827882   4.933   0.317   1.910 -0.2358  0.7524  1.0267
   78MOL     H927883   4.832   0.540   1.744  0.0110 -2.3154 -0.0961
   78MOL    H1027884   5.026   0.668   1.777  1.6671  0.4722  0.5135
   78MOL    H1127885   5.093   0.551   1.895 -0.6751  0.2470  0.1175
   78MOL    H1227886   5.099   0.375   1.722  1.7353 -1.0671  0.1614
   78MOL    H1327887   5.302   0.449   1.614 -2.7059  0.1835 -0.9767
   78MOL    H1427888   5.259   0.609   1.637 -0.3868  0.5173  2.4808
   78MOL    H1527889   5.296   0.518   1.789 -0.8630  2.4390  1.0016
   78MOL    H1627890   5.043   0.578   1.510 -0.0281  0.0586  0.5528
   78MOL    H1727891   4.923   0.447   1.537 -0.0153  0.1486 -1.2324
   78MOL    H1827892   5.088   0.421   1.484  0.4749  0.7380 -0.1798
   78MOL    H1927893   4.757   0.341   1.873 -1.0902  1.8034 -1.4423
   78MOL    C2027894   4.824   0.584   1.960  0.4895  0.0968 -0.0721
   78MOL    C2127895   4.809   0.740   1.947  0.2477 -0.1549 -0.3013
   78MOL    C2227896   4.694   0.791   1.868  0.0977 -0.6398 -0.1565
   78MOL    C2327897   4.708   0.932   1.806 -0.3181 -0.6698  0.1720
   78MOL    C2427898   4.837   0.956   1.718  0.9137 -0.3627 -0.3805
   78MOL    C2527899   4.578   0.965   1.729  0.3697  0.3692  0.3345
   78MOL    H2627900   4.725   0.545   1.981 -0.3282  1.2533 -1.6589
   78MOL    H2727901   4.885   0.548   2.043  1.5152  0.4957 -0.6439
   78MOL    H2827902   4.901   0.776   1.901  0.3015 -0.4511 -0.4216
   78MOL    H2927903   4.603   0.773   1.924  1.2302 -0.6940  1.7140
   78MOL    H3027904   4.681   0.720   1.786  0.0226  0.2286 -0.9161
   78MOL    H3127905   4.715   1.011   1.880 -1.5035 -0.4695  0.0797
   78MOL    H3227906   4.825   0.903   1.623 -2.5553  0.6552 -0.5911
   78MOL    H3327907   4.932   0.932   1.766  1.0570  1.0819  0.0796
   78MOL    H3427908   4.846   1.060   1.687 -1.0405  0.2349  0.9393
   78MOL    H3527909   4.485   0.973   1.786 -1.6420  1.8419 -3.0105
   78MOL    H3627910   4.598   1.054   1.670 -1.7932  0.6235 -0.0658
   78MOL    H3727911   4.562   0.886   1.656 -1.5236  1.5443 -0.5615
   78MOL    C3827912   4.797   0.807   2.087 -0.2591 -0.2173  0.0519
   78MOL    C3927913   4.932   0.830   2.164 -0.1065  0.8770 -0.2743
   78MOL    C4027914   4.905   0.848   2.317 -1.1835 -0.2187  0.7853
   78MOL    C4127915   4.822   0.743   2.397  0.0839  0.0585 -0.9498
   78MOL    C4227916   4.806   0.795   2.540 -0.4738  0.4720 -0.1871
   78MOL    C4327917   4.908   0.613   2.395 -0.2129  0.0758  0.6070
   78MOL    H4427918   4.724   0.752   2.147 -0.1730  0.8006  1.0870
   78MOL    H4527919   4.751   0.905   2.075  1.2301  0.4731 -0.0307
   78MOL    H4627920   4.992   0.741   2.146 -1.0002 -0.0742  1.2656
   78MOL    H4727921   4.846   0.939   2.318 -1.1052 -0.1683  1.4990
   78MOL    H4827922   5.000   0.871   2.365 -0.5002  1.2440 -1.2252
   78MOL    H4927923   4.721   0.721   2.364 -0.5877  0.0227  1.0945
   78MOL    H5027924   4.761   0.723   2.608 -1.4838  1.4045  0.1417
   78MOL    H5127925   4.908   0.805   2.578 -0.4855 -2.0447  0.5863
   78MOL    H5227926   4.745   0.883   2.558  0.1943  0.6788  1.0885
   78MOL    H5327927   4.898   0.570   2.295  0.3759 -2.1826  1.4845
   78MOL    H5427928   4.866   0.531   2.454 -0.4189 -0.5800 -0.4429
   78MOL    H5527929   5.014   0.631   2.413 -0.0853  0.1538 -0.1949
   78MOL    C5627930   5.008   0.946   2.095 -0.6099 -0.2073 -0.1430
   78MOL    C5727931   5.158   0.957   2.128 -0.4325 -0.6691  0.2274
   78MOL    C5827932   5.215   1.098   2.096  0.6210  0.2948 -0.2824
   78MOL    C5927933   5.119   1.219   2.111 -0.1178 -0.3677  0.2878
   78MOL    C6027934   5.037   1.243   1.983 -0.7000 -0.4876  0.1841
   78MOL    C6127935   5.194   1.351   2.153  0.8579  0.2144 -0.2082
   78MOL    H6227936   4.957   1.039   2.120 -0.9993 -0.0415 -1.5178
   78MOL    H6327937   4.995   0.939   1.987 -2.1181 -1.3651  0.1060
   78MOL    H6427938   5.176   0.937   2.234  2.3783  1.1623  0.1496
   78MOL    H6527939   5.291   1.120   2.171 -1.2884 -2.1312  2.4687
   78MOL    H6627940   5.249   1.094   1.992 -0.6353  1.3051 -0.7394
   78MOL    H6727941   5.054   1.203   2.196  0.1092 -0.0056  0.5303
   78MOL    H6827942   4.996   1.342   2.001  1.2610  0.1107  1.5775
   78MOL    H6927943   4.956   1.173   1.967 -1.7728  0.6823  0.4428
   78MOL    H7027944   5.099   1.262   1.895 -0.5218 -1.8665 -0.0013
   78MOL    H7127945   5.120   1.428   2.177  1.2810  0.2300  1.1168
   78MOL    H7227946   5.269   1.383   2.081 -2.8373  1.4698 -3.6441
   78MOL    H7327947   5.269   1.338   2.231  0.2172  0.5869  0.4819
   78MOL    C7427948   5.236   0.855   2.047  0.5196 -0.8321 -0.0211
   78MOL    C7527949   5.385   0.838   2.071  0.4399 -0.6984 -0.2452
   78MOL    C7627950   5.465   0.759   1.961  0.7843 -0.0830 -0.0174
   78MOL    C7727951   5.480   0.824   1.819  0.3193 -0.3296  0.5075
   78MOL    C7827952   5.579   0.749   1.735  0.2113  0.4598  0.0046
   78MOL    C7927953   5.539   0.968   1.829 -0.0779  0.0636  0.3784
   78MOL    H8027954   5.229   0.882   1.941  0.0683 -0.3233  0.1319
   78MOL    H8127955   5.208   0.750   2.058  3.2334 -1.5232  0.6160
   78MOL    H8227956   5.429   0.937   2.071  1.4500 -1.1280 -0.9384
   78MOL    H8327957   5.566   0.743   2.000  0.3849  0.0325  1.1059
   78MOL    H8427958   5.406   0.668   1.944 -1.1420  0.5761  2.7811
   78MOL    H8527959   5.384   0.835   1.769 -0.2842  2.7881  2.2216
   78MOL    H8627960   5.673   0.726   1.785  0.8267  0.5426 -1.1082
   78MOL    H8727961   5.572   0.803   1.641 -3.2533  0.4990  0.2312
   78MOL    H8827962   5.540   0.649   1.715  1.1419  0.1523 -0.3204
   78MOL    H8927963   5.482   1.037   1.892  1.9979  1.9298  0.2737
   78MOL    H9027964   5.641   0.975   1.865  0.6799  2.2345 -2.0774
   78MOL    H9127965   5.545   1.022   1.735 -0.1898 -2.1791 -0.9435
   78MOL    C9227966   5.410   0.787   2.214 -0.2191  0.3709  0.6004
   78MOL    C9327967   5.478   0.890   2.309  0.6526  0.0015 -0.0253
   78MOL    C9427968   5.471   0.851   2.459 -0.0899  0.3342 -1.2695
   78MOL    C9527969   5.339   0.852   2.531  0.2819 -0.1423  0.1045
   78MOL    C9627970   5.335   0.754   2.657  0.8343 -0.2753  0.1535
   78MOL    C9727971   5.288   0.991   2.576 -0.3082 -0.2383 -0.3104
   78MOL    H9827972   5.322   0.746   2.263 -0.4283 -0.2717 -0.2971
   78MOL    H9927973   5.483   0.706   2.219 -1.7930 -0.8934  3.6397
   78MOL   H10027974   5.430   0.987   2.303  0.2042 -0.2669 -0.7293
   78MOL   H10127975   5.543   0.902   2.523 -0.6512 -0.0374 -0.3328
   78MOL   H10227976   5.491   0.744   2.466  1.2281  0.7187  1.8791
   78MOL   H10327977   5.261   0.806   2.469  0.7477  1.4784 -1.7126
   78MOL   H10427978   5.407   0.791   2.729 -1.4347  1.6976  1.4971
   78MOL   H10527979   5.359   0.650   2.634 -2.6583 -1.6266  2.1261
   78MOL   H10627980   5.237   0.757   2.705  0.5529  1.0475 -0.4916
   78MOL   H10727981   5.349   1.033   2.655 -1.8734 -1.5830  1.6539
   78MOL   H10827982   5.183   0.993   2.603  0.1285  0.2915  1.3961
   78MOL   H10927983   5.288   1.057   2.489 -0.2086  1.5415  1.0163
   78MOL   C11027984   5.622   0.921   2.268  0.6670  0.2027 -0.1927
   78MOL   C11127985   5.678   1.061   2.305  0.0302 -0.1936  0.1264
   78MOL   C11227986   5.833   1.054   2.276 -0.1147 -0.2080 -0.2734
   78MOL   C11327987   5.919   1.067   2.396 -0.0959  0.4608 -0.1245
   78MOL   C11427988   5.903   1.191   2.489  0.4592  0.5354 -0.2761
   78MOL   C11527989   6.065   1.054   2.356  0.3307 -0.1785  0.4011
   78MOL   H11627990   5.639   0.898   2.163  2.1269  0.2956  0.0172
   78MOL   H11727991   5.678   0.841   2.317 -1.5989 -1.0316  0.4807
   78MOL   H11827992   5.659   1.085   2.410 -2.1946  0.5654 -0.4252
   78MOL   H11927993   5.866   1.134   2.209 -0.2002  0.3703  0.3705
   78MOL   H12027994   5.864   0.973   2.210 -0.0567 -0.2159 -0.2354
   78MOL   H12127995   5.896   0.979   2.456 -2.9988  1.4136  0.2320
   78MOL   H12227996   5.977   1.184   2.569  0.3002 -0.2352 -0.1878
   78MOL   H12327997   5.802   1.207   2.526  0.7206  2.3238 -0.3249
   78MOL   H12427998   5.928   1.280   2.431 -0.3626  2.1020  1.7218
   78MOL   H12527999   6.074   0.964   2.296 -2.5156  1.0393 -1.9850
   78MOL   H12628000   6.135   1.058   2.439 -0.0348 -0.0853  0.7097
   78MOL   H12728001   6.085   1.132   2.281 -1.1702 -0.7230 -0.6044
   78MOL   C12828002   5.613   1.165   2.218 -0.6703  0.5498  0.1658
   78MOL   C12928003   5.636   1.314   2.259 -0.0858  0.3776  0.1734
   78MOL   C13028004   5.550   1.331   2.386 -0.1467 -0.6505 -0.4708
   78MOL   C13128005   5.554   1.471   2.460 -0.5787 -0.5783  0.2098
   78MOL   C13228006   5.445   1.479   2.565  0.2365  0.1047 -0.2632
   78MOL   C13328007   5.688   1.492   2.538  0.2944  0.0820  0.2885
   78MOL   H13428008   5.504   1.156   2.209 -0.4823 -1.6483 -0.1391
   78MOL   H13528009   5.654   1.137   2.121  2.9340  1.9377  1.2322
   78MOL   H13628010   5.743   1.329   2.277 -0.2114  1.2062  0.1980
   78MOL   H13728011   5.444   1.320   2.364 -0.1944 -1.3565  0.1230
   78MOL   H13828012   5.547   1.258   2.467 -1.7186  0.9823  0.9732
   78MOL   H13928013   5.529   1.547   2.386 -2.1743  1.0883  2.4216
   78MOL   H14028014   5.466   1.573   2.616  0.7732  1.0583 -2.1729
   78MOL   H14128015   5.452   1.405   2.645  1.5929 -0.6700 -1.0796
   78MOL   H14228016   5.341   1.482   2.530  0.2954 -2.3770 -0.7363
   78MOL   H14328017   5.776   1.467   2.479  0.8995 -0.3075  1.3324
   78MOL   H14428018   5.715   1.595   2.563  2.5337 -0.8182  1.7313
   78MOL   H14528019   5.699   1.443   2.635 -0.5418  1.2390  0.9944
   78MOL   C14628020   5.587   1.415   2.143  0.4471  0.7151  0.0393
   78MOL   C14728021   5.682   1.437   2.025  0.4815 -0.2525  0.0226
   78MOL   C14828022   5.697   1.586   1.990  0.4464 -0.5171  0.6800
   78MOL   C14928023   5.814   1.655   2.047  1.0649 -0.7493 -0.1743
   78MOL   C15028024   5.824   1.798   1.994  0.5922  0.0645  0.5661
   78MOL   C15128025   5.816   1.665   2.199 -0.2827  0.2165 -0.0246
   78MOL   H15228026   5.542   1.506   2.182 -0.9955  0.8987 -1.9775
   78MOL   H15328027   5.504   1.361   2.099 -1.0795  2.9029  0.1528
   78MOL   H15428028   5.781   1.404   2.055  1.3617  1.1272 -1.2788
   78MOL   H15528029   5.715   1.598   1.883 -0.8995  0.0126  0.5055
   78MOL   H15628030   5.602   1.638   2.002  1.0151  1.4132 -2.5035
   78MOL   H15728031   5.904   1.603   2.013  2.1153  0.0238  1.3602
   78MOL   H15828032   5.900   1.861   2.040  1.5008 -1.9556  1.9314
   78MOL   H15928033   5.731   1.854   2.000 -0.6387 -1.9868  1.2656
   78MOL   H16028034   5.841   1.795   1.887 -2.7290  0.0399 -0.0163
   78MOL   H16128035   5.774   1.576   2.245  0.6191 -0.1009  0.1743
   78MOL   H16228036   5.743   1.743   2.223 -0.7029 -0.4628  0.9753
   78MOL   H16328037   5.915   1.687   2.238  0.2624 -0.6861 -0.8913
   78MOL   C16428038   5.639   1.351   1.899  0.0075  0.3494 -0.0725
   78MOL   C16528039   5.745   1.295   1.800  1.0387 -0.4079 -0.3011
   78MOL   C16628040   5.797   1.413   1.710 -0.3835  0.0469 -0.1772
   78MOL   C16728041   5.691   1.485   1.618  0.1443  0.0710 -0.4494
   78MOL   C16828042   5.767   1.600   1.547 -0.5780 -0.5570  0.0010
   78MOL   C16928043   5.627   1.387   1.522 -0.2478  0.4266 -0.1419
   78MOL   H17028044   5.584   1.265   1.939  0.2919 -0.0297 -0.4900
   78MOL   H17128045   5.564   1.401   1.838 -0.0799  0.7593  0.3747
   78MOL   H17228046   5.693   1.221   1.740  0.8990  0.9539 -1.9103
   78MOL   H17328047   5.857   1.488   1.761  0.1968 -0.5347  0.0106
   78MOL   H17428048   5.871   1.367   1.644  0.2471 -2.3275  2.0976
   78MOL   H17528049   5.614   1.526   1.683 -0.4449 -1.1572 -0.3527
   78MOL   H17628050   5.832   1.556   1.471 -3.4985 -0.1344 -2.8271
   78MOL   H17728051   5.821   1.663   1.618 -0.5281 -1.2246  0.5616
   78MOL   H17828052   5.703   1.664   1.488 -0.5121 -1.1458 -0.7249
   78MOL   H17928053   5.599   1.288   1.558 -0.8239  0.3893 -0.6950
   78MOL   H18028054   5.704   1.366   1.447  1.6354  1.1475  1.5334
   78MOL   H18128055   5.536   1.433   1.485  0.9384  1.3149 -2.0294
   78MOL   C18228056   5.853   1.215   1.875  0.0667  0.1004 -0.5828
   78MOL   C18328057   5.945   1.130   1.794 -1.2326 -0.3683  0.2076
   78MOL   C18428058   6.057   1.055   1.876  0.5056  0.2456 -0.7754
   78MOL   C18528059   6.147   1.156   1.962 -0.4282  0.2267 -0.6428
   78MOL   C18628060   6.261   1.081   2.036 -0.1278  0.7312  0.0848
   78MOL   C18728061   6.210   1.267   1.875 -0.0243 -0.2346  0.7463
   78MOL   H18828062   5.804   1.146   1.944  0.0969 -0.1444 -0.8065
   78MOL   H18928063   5.913   1.285   1.933  1.2884 -1.7886  0.4724
   78MOL   H19028064   5.996   1.198   1.725  2.1599 -0.5175  2.4539
   78MOL   H19128065   6.132   0.998   1.820  1.2801  0.4555  0.0262
   78MOL   H19228066   6.003   0.979   1.932  1.7125  1.1476  1.7056
   78MOL   H19328067   6.075   1.200   2.031 -0.9678  1.3154 -1.8787
   78MOL   H19428068   6.215   1.007   2.101 -2.2691  1.3180 -0.7350
   78MOL   H19528069   6.307   1.151   2.106  0.7954 -0.8706  1.1210
   78MOL   H19628070   6.337   1.046   1.966 -1.5890  0.8363 -1.5971
   78MOL   H19728071   6.146   1.353   1.855  0.0769 -0.8387 -2.4138
   78MOL   H19828072   6.248   1.243   1.775  0.0899  0.7263  0.5538
   78MOL   H19928073   6.301   1.297   1.926  0.2596  0.8583 -0.3614
   78MOL   C20028074   5.875   1.025   1.708  0.9142  0.7620  0.0880
   78MOL   C20128075   5.940   0.978   1.574  0.3143  0.6252  0.0758
   78MOL   C20228076   5.918   1.069   1.453 -0.8606 -0.2653  0.2490
   78MOL   C20328077   6.007   1.064   1.327 -0.4751  0.6996  1.2801
   78MOL   C20428078   5.947   1.143   1.209  0.3035 -0.2618  0.1589
   78MOL   C20528079   6.152   1.098   1.354 -0.1496 -0.2540  0.3664
   78MOL   H20628080   5.773   1.057   1.686  0.8878  0.6628  0.0691
   78MOL   H20728081   5.862   0.948   1.784  1.0689  1.3996  0.7614
   78MOL   H20828082   6.045   0.968   1.603  1.0016  3.0016 -1.4705
   78MOL   H20928083   5.811   1.066   1.431 -0.7005 -1.2133 -0.4592
   78MOL   H21028084   5.931   1.170   1.489 -1.7609  0.0160 -0.1828
   78MOL   H21128085   5.995   0.962   1.291 -0.5154  1.0995  0.1263
   78MOL   H21228086   5.850   1.113   1.170 -0.8483  1.9425  1.2232
   78MOL   H21328087   6.026   1.162   1.136  0.0701 -0.4124 -0.1327
   78MOL   H21428088   5.911   1.238   1.248 -1.4565 -0.8224 -0.0668
   78MOL   H21528089   6.167   1.191   1.409 -2.7680  0.2121  0.3742
   78MOL   H21628090   6.203   1.084   1.259  0.5561 -1.7969  0.9602
   78MOL   H21728091   6.194   1.018   1.415  0.3768  0.1413  0.5207
   78MOL   C21828092   5.887   0.841   1.537  0.1987  0.0433 -0.0919
   78MOL   C21928093   5.986   0.721   1.574 -0.0625 -0.4045  0.5748
   78MOL   C22028094   5.919   0.590   1.530  0.4505 -0.2098  0.1184
   78MOL   C22128095   5.860   0.569   1.385 -0.4140  0.0062 -0.0537
   78MOL   C22228096   5.965   0.514   1.294 -0.0804  0.0113 -0.5408
   78MOL   C22328097   5.738   0.477   1.388 -0.5058 -0.1669  0.0633
   78MOL   H22428098   5.787   0.821   1.574  0.6766 -1.2129  0.5513
   78MOL   H22528099   5.872   0.831   1.429  0.5153 -1.7537  0.0159
   78MOL   H22628100   6.075   0.738   1.515  0.3370 -0.1563  1.2375
   78MOL   H22728101   5.991   0.513   1.556  0.6304 -0.4092 -0.9566
   78MOL   H22828102   5.839   0.587   1.604  0.7426 -2.5606  0.3572
   78MOL   H22928103   5.828   0.659   1.333  0.4439 -0.0809 -0.7479
   78MOL   H23028104   5.950   0.518   1.186 -0.6066 -0.9410 -0.5057
   78MOL   H23128105   6.057   0.573   1.302  0.1813 -0.1507 -2.1250
   78MOL   H23228106   5.981   0.408   1.314 -2.1396 -0.4923 -1.4896
   78MOL   H23328107   5.683   0.455   1.297 -0.2523 -1.2108  0.1615
   78MOL   H23428108   5.764   0.378   1.425 -0.3858 -0.0209  0.3726
   78MOL   H23528109   5.664   0.509   1.462 -0.7485 -1.4189  0.3804
   78MOL   C23628110   6.020   0.711   1.726 -0.3427 -0.7045  0.3584
   78MOL   C23728111   6.113   0.601   1.781  0.3111  0.3862 -0.0616
   78MOL   C23828112   6.148   0.626   1.933  0.0086  0.0749 -0.0323
   78MOL   C23928113   6.029   0.647   2.027 -0.4686 -0.1109  0.0576
   78MOL   C24028114   5.942   0.514   2.037 -0.0242  0.4856 -0.3034
   78MOL   C24128115   6.063   0.684   2.177 -0.5024 -0.2967  0.2621
   78MOL   H24228116   5.926   0.705   1.782 -0.4320 -1.3224  0.1443
   78MOL   H24328117   6.066   0.803   1.763 -0.7475 -0.7850  1.0780
   78MOL   H24428118   6.062   0.505   1.771 -0.3096  0.3653  2.8112
   78MOL   H24528119   6.207   0.718   1.937  1.3448 -0.5736 -3.1064
   78MOL   H24628120   6.219   0.551   1.968  0.2922 -0.0662 -0.9071
   78MOL   H24728121   5.962   0.722   1.986  0.9153  1.0528 -0.0868
   78MOL   H24828122   5.867   0.523   2.116 -0.3052 -0.6463 -0.4433
   78MOL   H24928123   6.011   0.433   2.059 -1.3124 -0.3610  0.7204
   78MOL   H25028124   5.883   0.493   1.948  0.8013 -0.4137 -0.6358
   78MOL   H25128125   6.135   0.611   2.213 -2.2657 -1.1946  2.0804
   78MOL   H25228126   5.980   0.680   2.248 -1.4618  1.7330 -0.6870
   78MOL   H25328127   6.098   0.787   2.181 -0.3842 -0.3163 -0.2592
   78MOL   C25428128   6.241   0.597   1.690  0.1414 -0.4285  0.1627
   78MOL   C25528129   6.357   0.503   1.742  0.3206 -0.0551  0.1408
   78MOL   C25628130   6.297   0.363   1.774  0.5940  1.0817 -0.3625
   78MOL   C25728131   6.376   0.265   1.868  0.1748 -0.1376 -0.0174
   78MOL   C25828132   6.313   0.124   1.854  0.0763  0.2516  0.5834
   78MOL   C25928133   6.379   0.310   2.015  0.0351  1.1535  0.1112
   78MOL   H26028134   6.208   0.561   1.593 -0.4954 -1.8314  0.8736
   78MOL   H26128135   6.273   0.696   1.657  0.3784 -0.1742  1.1171
   78MOL   H26228136   6.393   0.557   1.829  0.0497 -0.1304  0.2992
   78MOL   H26328137   6.282   0.315   1.678  0.0276  2.4235 -0.9496
   78MOL   H26428138   6.198   0.364   1.819  0.4969 -0.3531 -0.5258
   78MOL   H26528139   6.476   0.261   1.825  0.2043  0.7804 -0.0428
   78MOL   H26628140   6.223   0.107   1.913 -0.2759  2.7616  0.8310
   78MOL   H26728141   6.387   0.047   1.879  0.5449  0.2513 -0.7641
   78MOL   H26828142   6.290   0.101   1.751  1.2446 -0.6360  0.5055
   78MOL   H26928143   6.407   0.415   2.010  1.5844  0.7731  0.4054
   78MOL   H27028144   6.284   0.302   2.069  0.1054  3.0658  0.5779
   78MOL   H27128145   6.454   0.257   2.073 -0.4481  0.9061  0.5170
   78MOL   C27228146   6.474   0.488   1.640  0.5222 -0.2213  0.6770
   78MOL   C27328147   6.561   0.616   1.617  0.1973  0.3315  0.3338
   78MOL   C27428148   6.636   0.657   1.751  0.0007 -0.1533  0.0387
   78MOL   C27528149   6.641   0.802   1.800 -0.1264 -0.8425  0.6296
   78MOL   C27628150   6.746   0.818   1.911  0.4484 -0.0678  0.4841
   78MOL   C27728151   6.507   0.864   1.840  0.1145  0.1776 -0.3606
   78MOL   H27828152   6.535   0.398   1.642 -0.2769 -0.8654 -1.7826
   78MOL   H27928153   6.426   0.480   1.543  1.3039 -3.7437  0.5209
   78MOL   H28028154   6.501   0.706   1.600 -2.4783 -1.5462 -0.6222
   78MOL   H28128155   6.735   0.610   1.746 -0.9223 -2.0280 -0.9274
   78MOL   H28228156   6.609   0.595   1.837 -1.1892 -1.3249 -1.1608
   78MOL   H28328157   6.676   0.866   1.719 -1.8010  0.5300  0.9553
   78MOL   H28428158   6.724   0.757   1.998  0.5603 -1.3515 -0.3865
   78MOL   H28528159   6.846   0.797   1.871  0.7198 -0.1188  1.1772
   78MOL   H28628160   6.752   0.923   1.941  1.6497  0.3094 -1.0081
   78MOL   H28728161   6.457   0.800   1.913  2.1281 -1.5119 -0.4281
   78MOL   H28828162   6.505   0.963   1.885  1.3723  0.0794 -0.0737
   78MOL   H28928163   6.445   0.872   1.751  1.2425 -0.6483 -1.2333
   78MOL   C29028164   6.652   0.604   1.497 -0.0405 -0.0487  0.2993
   78MOL   C29128165   6.674   0.742   1.426 -0.2830 -0.1435  0.5389
   78MOL   C29228166   6.804   0.739   1.347  0.2061 -0.3233  0.0338
   78MOL   C29328167   6.936   0.704   1.426  0.0184 -0.1440 -0.4109
   78MOL   C29428168   6.992   0.572   1.382 -0.1460 -0.1777 -0.4948
   78MOL   C29528169   7.031   0.819   1.427  0.5904  0.0675  0.3254
   78MOL   H29628170   6.742   0.561   1.541  0.0520  1.2230  1.3953
   78MOL   H29728171   6.614   0.535   1.422  1.0038  1.2952 -1.5310
   78MOL   H29828172   6.689   0.809   1.511  2.8669  1.8418 -1.5092
   78MOL   H29928173   6.820   0.832   1.292  0.1782  0.1612  0.8458
   78MOL   H30028174   6.779   0.668   1.268  0.4955 -1.1594  0.6956
   78MOL   H30128175   6.913   0.692   1.531 -0.2028 -1.2046 -0.5781
   78MOL   H30228176   7.032   0.574   1.281  0.6854 -2.1982 -0.2217
   78MOL   H30328177   6.911   0.499   1.387 -1.2114  0.9678 -0.5262
   78MOL   H30428178   7.076   0.551   1.448 -0.1472 -2.0651 -1.0606
   78MOL   H30528179   6.986   0.904   1.478 -1.5273 -0.5890 -0.4002
   78MOL   H30628180   7.060   0.843   1.324  2.8564  0.4061  1.0303
   78MOL   H30728181   7.127   0.795   1.473  0.1582 -1.3654  0.4870
   78MOL   C30828182   6.559   0.789   1.336  0.0717  0.3737  0.5004
   78MOL   C30928183   6.554   0.942   1.317 -0.5922 -0.4391 -0.6815
   78MOL   C31028184   6.459   0.975   1.206 -0.4717  0.0920 -0.0403
   78MOL   C31128185   6.503   0.941   1.062 -0.0122 -0.7219 -0.5989
   78MOL   C31228186   6.384   0.952   0.960 -0.5598  0.4430  0.5038
   78MOL   C31328187   6.619   1.029   1.016 -0.9021 -0.6170  0.0267
   78MOL   H31428188   6.551   0.738   1.240  1.0654  0.8313  0.1643
   78MOL   H31528189   6.470   0.749   1.384  1.2405 -3.2022 -0.1703
   78MOL   H31628190   6.651   0.970   1.276 -1.2270  1.8169 -0.6837
   78MOL   H31728191   6.433   1.081   1.211  1.2381  0.5440 -0.5048
   78MOL   H31828192   6.363   0.929   1.228 -0.0647 -0.9670 -0.4700
   78MOL   H31928193   6.534   0.837   1.059  2.3589 -0.0703  0.3139
   78MOL   H32028194   6.344   1.053   0.963  0.3727  0.7718  2.2346
   78MOL   H32128195   6.297   0.888   0.976 -1.0644  0.9424 -0.1808
   78MOL   H32228196   6.402   0.922   0.857 -2.2297 -0.2151  0.3772
   78MOL   H32328197   6.649   1.004   0.914  0.1421 -0.7954  0.3680
   78MOL   H32428198   6.600   1.136   1.010  0.7383 -0.4206 -2.1193
   78MOL   H32528199   6.706   1.025   1.083 -1.4577  1.7285  0.9292
   78MOL   C32628200   6.520   1.005   1.457  0.5101 -0.0470 -0.4964
   78MOL   C32728201   6.583   1.146   1.474 -0.3763 -0.0547 -0.2447
   78MOL   C32828202   6.721   1.123   1.534 -0.3167  0.1343  0.1346
   78MOL   C32928203   6.821   1.244   1.511  0.4835 -0.2118 -0.7645
   78MOL   C33028204   6.937   1.227   1.608 -0.2222  0.1295 -0.1527
   78MOL   C33128205   6.869   1.269   1.373  0.1213 -0.2237  0.4003
   78MOL   H33228206   6.544   0.940   1.541  0.7348  1.0201  0.2795
   78MOL   H33328207   6.411   1.004   1.459  0.5154  1.0944  1.6463
   78MOL   H33428208   6.584   1.189   1.373 -0.1025 -0.4867 -0.4303
   78MOL   H33528209   6.725   1.103   1.641 -1.1844 -1.1648 -0.0655
   78MOL   H33628210   6.767   1.032   1.495 -1.8083 -0.5450 -0.0415
   78MOL   H33728211   6.770   1.334   1.543 -1.9717 -1.6319 -0.5625
   78MOL   H33828212   6.914   1.203   1.712 -0.5727 -1.9090 -0.6712
   78MOL   H33928213   6.999   1.316   1.609 -1.1301  0.7822  2.0558
   78MOL   H34028214   7.001   1.148   1.569 -0.1542 -0.2497  0.7264
   78MOL   H34128215   6.951   1.340   1.361  0.3755 -0.4074  1.0160
   78MOL   H34228216   6.903   1.174   1.332  0.3000  1.1481 -2.7518
   78MOL   H34328217   6.783   1.288   1.309  0.8365 -0.2788 -0.5807
   78MOL   C34428218   6.492   1.222   1.562  0.1963 -0.2563 -0.1070
   78MOL   C34528219   6.515   1.375   1.562 -0.0127  0.6601 -0.5880
   78MOL   C34628220   6.406   1.462   1.615  0.8087 -0.6799  0.0946
   78MOL   C34728221   6.454   1.606   1.634 -0.7672 -0.0753  0.9351
   78MOL   C34828222   6.344   1.688   1.703 -1.0404 -0.1827  0.0103
   78MOL   C34928223   6.496   1.665   1.505  0.1716  0.1518 -0.3596
   78MOL   H35028224   6.475   1.199   1.667 -0.0212  1.2210  0.1940
   78MOL   H35128225   6.392   1.202   1.522 -0.3658 -0.3263  1.2944
   78MOL   H35228226   6.544   1.399   1.460  0.3769  0.5964 -0.4921
   78MOL   H35328227   6.314   1.452   1.557  0.0331 -0.4812  1.2794
   78MOL   H35428228   6.380   1.422   1.713  1.2234  2.1177  1.4054
   78MOL   H35528229   6.541   1.606   1.700  0.6272 -1.8648 -0.8670
   78MOL   H35628230   6.259   1.687   1.636 -0.8273  1.3317 -0.2785
   78MOL   H35728231   6.315   1.636   1.794 -0.5326 -0.9349 -0.2497
   78MOL   H35828232   6.372   1.790   1.729  0.1231  0.1590 -2.5010
   78MOL   H35928233   6.425   1.645   1.425 -0.6838  0.7465  0.2480
   78MOL   H36028234   6.592   1.624   1.472 -0.6173  0.0382 -2.6179
   78MOL   H36128235   6.515   1.773   1.501 -0.7221  0.3250  0.1593
   78MOL   H36228236   6.600   1.383   1.631 -1.8323  0.0348  1.8145
   79MOL     C128237   7.473   3.649   5.343 -0.0016  0.4912  0.5266
   79MOL     C228238   7.431   3.568   5.463 -0.2142  0.0864 -0.1806
   79MOL     C328239   7.551   3.547   5.559  0.4502 -0.0005  0.1803
   79MOL     C428240   7.536   3.634   5.684  1.2484  0.7630  0.0293
   79MOL     C528241   7.591   3.771   5.658  0.3053  0.2190  0.1985
   79MOL     C628242   7.605   3.570   5.808 -0.1129  0.4080 -0.1126
   79MOL     H728243   7.508   3.746   5.378  0.9415  0.1771  0.4674
   79MOL     H828244   7.562   3.606   5.296  1.0590  1.2446  1.7991
   79MOL     H928245   7.345   3.617   5.507  0.7525 -0.1882  2.0623
   79MOL    H1028246   7.558   3.446   5.599  0.3758 -0.3955 -0.7905
   79MOL    H1128247   7.645   3.562   5.506  0.2984 -0.8777 -0.3470
   79MOL    H1228248   7.433   3.652   5.716  1.4860  0.7624  0.7986
   79MOL    H1328249   7.535   3.831   5.587  0.1212  0.9663  0.9602
   79MOL    H1428250   7.573   3.822   5.753 -1.3813 -0.6744  0.3699
   79MOL    H1528251   7.698   3.769   5.638  0.3877  0.8968  0.5142
   79MOL    H1628252   7.711   3.552   5.790 -0.4134 -0.4466 -1.0805
   79MOL    H1728253   7.554   3.476   5.832 -3.2583  2.0754 -0.0600
   79MOL    H1828254   7.593   3.631   5.897 -1.1055  2.7349 -1.8066
   79MOL    H1928255   7.398   3.665   5.266  0.8568  0.5869 -0.2991
   79MOL    C2028256   7.369   3.431   5.413 -0.4380  0.5766  0.2980
   79MOL    C2128257   7.269   3.356   5.505 -0.1700  0.0807 -0.3614
   79MOL    C2228258   7.175   3.268   5.422  0.3681  0.8662  0.5662
   79MOL    C2328259   7.046   3.341   5.391  0.6505  0.0221  0.1373
   79MOL    C2428260   6.967   3.273   5.275  0.0712 -0.6418 -0.4879
   79MOL    C2528261   6.941   3.351   5.504 -0.4121  0.6954  0.3921
   79MOL    H2628262   7.320   3.456   5.318 -0.3544  0.0530  0.1177
   79MOL    H2728263   7.438   3.352   5.385 -0.8959 -0.1146  1.1050
   79MOL    H2828264   7.205   3.436   5.540 -0.0743 -0.2771  0.6659
   79MOL    H2928265   7.149   3.174   5.469 -0.5575  0.5351 -0.5817
   79MOL    H3028266   7.223   3.233   5.330 -1.0300  1.0338 -0.2377
   79MOL    H3128267   7.071   3.444   5.368  2.0084 -0.1347  0.8512
   79MOL    H3228268   6.880   3.328   5.239 -0.2526 -0.0321  1.1550
   79MOL    H3328269   6.929   3.180   5.319 -1.6120  0.1544 -0.2234
   79MOL    H3428270   7.038   3.256   5.194  0.7559 -0.1024 -0.0075
   79MOL    H3528271   6.923   3.253   5.549 -2.1494  1.8679  2.3948
   79MOL    H3628272   6.981   3.414   5.584  0.8722 -0.4965  0.7050
   79MOL    H3728273   6.844   3.384   5.466 -0.0942 -0.3694 -1.3757
   79MOL    C3828274   7.329   3.293   5.631  0.0056  0.4002 -0.0431
   79MOL    C3928275   7.246   3.231   5.746  0.7166  0.4238  0.3576
   79MOL    C4028276   7.173   3.347   5.825 -0.3413 -0.1796 -0.0534
   79MOL    C4128277   7.038   3.304   5.887  0.1208  0.4058 -0.4628
   79MOL    C4228278   6.941   3.428   5.907 -0.5472 -0.4606 -0.1653
   79MOL    C4328279   7.037   3.232   6.017  0.2468 -0.0485  0.4104
   79MOL    H4428280   7.389   3.361   5.692 -2.4948  0.8202  2.0349
   79MOL    H4528281   7.404   3.220   5.600  0.8647  1.0040  0.5812
   79MOL    H4628282   7.168   3.167   5.706  0.6502 -0.6234  2.0730
   79MOL    H4728283   7.153   3.430   5.758 -2.4461 -1.6785 -1.3293
   79MOL    H4828284   7.235   3.395   5.901 -0.8743  2.3488 -1.1676
   79MOL    H4928285   6.982   3.242   5.816 -0.8516 -1.5597  1.9237
   79MOL    H5028286   6.937   3.483   5.812  1.0159 -0.9404 -0.5206
   79MOL    H5128287   6.839   3.392   5.917 -0.1958 -1.5648 -0.5022
   79MOL    H5228288   6.970   3.491   5.990  0.8026  0.8842 -1.6212
   79MOL    H5328289   7.085   3.306   6.081 -1.8874  1.9472 -0.2109
   79MOL    H5428290   7.083   3.133   6.024  0.0624 -0.1921 -0.3430
   79MOL    H5528291   6.935   3.240   6.054  0.3823  0.9580  0.5905
   79MOL    C5628292   7.345   3.154   5.839  0.2544 -0.3662 -0.1530
   79MOL    C5728293   7.393   3.009   5.795  0.8771  0.1937 -0.5097
   79MOL    C5828294   7.285   2.905   5.850  0.5336 -0.0107  0.0765
   79MOL    C5928295   7.233   2.817   5.736 -0.6007 -1.0566  0.8482
   79MOL    C6028296   7.137   2.894   5.641 -0.2341  0.2758  0.2881
   79MOL    C6128297   7.167   2.687   5.780  0.2035  0.5866  0.5296
   79MOL    H6228298   7.305   3.150   5.941  1.4766 -2.1975  0.2672
   79MOL    H6328299   7.433   3.216   5.855 -0.3317  0.3731  0.2622
   79MOL    H6428300   7.393   3.008   5.686 -0.0057 -0.7764 -0.5099
   79MOL    H6528301   7.339   2.842   5.920  2.7120 -0.5709 -2.0558
   79MOL    H6628302   7.201   2.942   5.910 -0.1280  2.6408 -2.3812
   79MOL    H6728303   7.313   2.793   5.666 -1.0566 -0.8198  0.2320
   79MOL    H6828304   7.054   2.921   5.705 -0.9699 -0.8085 -0.1902
   79MOL    H6928305   7.096   2.833   5.560  2.1487  0.1096 -0.8429
   79MOL    H7028306   7.184   2.974   5.583 -1.3945  0.4422 -0.4557
   79MOL    H7128307   7.109   2.642   5.699 -1.4926  2.0676  0.8973
   79MOL    H7228308   7.092   2.714   5.853  0.3624  0.1458  0.8577
   79MOL    H7328309   7.232   2.612   5.825  1.0657  0.9037 -0.1635
   79MOL    C7428310   7.538   2.986   5.837 -0.1936 -0.3200 -0.6936
   79MOL    C7528311   7.622   2.869   5.765 -0.1276 -0.6368  0.2744
   79MOL    C7628312   7.619   2.732   5.839 -0.6094  0.0089  0.2700
   79MOL    C7728313   7.702   2.706   5.978 -0.0965  0.2506  0.2425
   79MOL    C7828314   7.676   2.560   6.020 -0.2792 -0.4248 -0.1404
   79MOL    C7928315   7.678   2.806   6.089  0.3753  0.2353 -0.3296
   79MOL    H8028316   7.540   2.973   5.945 -0.9855  1.5569 -0.4431
   79MOL    H8128317   7.589   3.080   5.815 -1.3518  0.5293  0.1909
   79MOL    H8228318   7.576   2.854   5.667 -0.2932  2.0755 -0.0948
   79MOL    H8328319   7.513   2.714   5.859 -0.5382 -1.2753 -0.4806
   79MOL    H8428320   7.632   2.650   5.769  0.0946 -2.0374  2.7321
   79MOL    H8528321   0.057   2.712   5.961 -0.0709 -1.0240 -0.0435
   79MOL    H8628322   7.698   2.494   5.937 -2.0357 -0.8640 -0.2661
   79MOL    H8728323   7.573   2.539   6.049 -0.6813 -1.0927 -2.0200
   79MOL    H8828324   7.741   2.533   6.103 -0.0176  1.3886  0.2695
   79MOL    H8928325   7.573   2.809   6.118  0.4458 -0.9865  0.0927
   79MOL    H9028326   7.716   2.777   6.187  0.5886  1.5598 -0.0106
   79MOL    H9128327   7.720   2.906   6.077 -0.2640  0.9361  2.6972
   79MOL    C9228328   0.017   2.896   5.731  0.5563 -0.2845  0.3388
   79MOL    C9328329   0.040   3.003   5.621  0.0136 -0.1506  0.1917
   79MOL    C9428330   0.139   3.101   5.686  0.4557  0.4815 -0.3463
   79MOL    C9528331   0.164   3.227   5.604 -0.7746  0.4830 -0.2358
   79MOL    C9628332   0.039   3.305   5.575  0.4547 -0.3195  0.4081
   79MOL    C9728333   0.263   3.321   5.674 -0.3798  0.0748  0.0906
   79MOL    H9828334   0.061   2.906   5.831 -0.2811  1.0776  0.5950
   79MOL    H9928335   0.061   2.802   5.699  0.8594 -0.7777  2.1184
   79MOL   H10028336   7.695   3.044   5.592  0.8412  2.0712  0.4572
   79MOL   H10128337   0.238   3.057   5.691  0.1122 -0.3921 -0.9966
   79MOL   H10228338   0.098   3.124   5.784 -0.4444  2.9396 -1.2566
   79MOL   H10328339   0.213   3.209   5.508  1.8449 -0.9784  1.3343
   79MOL   H10428340   0.064   3.395   5.519 -2.2419 -0.8021 -1.6524
   79MOL   H10528341   7.751   3.333   5.672 -0.4816 -1.7570  0.4570
   79MOL   H10628342   7.713   3.255   5.518  1.8386 -1.2333 -0.7080
   79MOL   H10728343   0.310   3.394   5.608 -1.6885  0.0412 -0.9009
   79MOL   H10828344   0.341   3.265   5.726  1.7200  0.3907 -2.6007
   79MOL   H10928345   0.217   3.391   5.744 -1.0580  2.0785 -2.2893
   79MOL   C11028346   0.096   2.943   5.488  0.0218 -0.7048  0.1636
   79MOL   C11128347   7.736   2.892   5.395 -0.0645  0.8070 -0.4731
   79MOL   C11228348   7.675   3.013   5.316 -0.1425 -0.0207 -0.0191
   79MOL   C11328349   7.558   2.975   5.223  0.0867  0.3470 -0.2782
   79MOL   C11428350   7.527   3.100   5.136  0.1198 -0.3764 -0.0857
   79MOL   C11528351   7.429   2.932   5.297  0.1850  0.1807 -0.0588
   79MOL   H11628352   0.174   2.869   5.508  2.2093  1.4305 -0.2245
   79MOL   H11728353   0.171   3.008   5.441  0.6065 -1.6062 -0.1622
   79MOL   H11828354   7.653   2.846   5.449  0.9477 -2.4922 -1.5929
   79MOL   H11928355   7.750   3.058   5.251 -0.8505 -0.3058 -1.0484
   79MOL   H12028356   7.638   3.089   5.386 -1.6739 -1.3008  0.5917
   79MOL   H12128357   7.583   2.900   5.148 -1.8477  0.1981 -0.8039
   79MOL   H12228358   7.436   3.074   5.083  1.3420 -1.3258 -1.7915
   79MOL   H12328359   7.603   3.126   5.062 -1.0316 -0.9843 -1.4979
   79MOL   H12428360   7.501   3.179   5.206  1.4029 -0.6612  0.7281
   79MOL   H12528361   7.430   2.831   5.337 -2.3174 -0.1595 -0.8024
   79MOL   H12628362   7.340   2.936   5.235  0.5726 -0.6051 -0.6755
   79MOL   H12728363   7.411   3.000   5.380 -0.5268 -1.5380  1.1982
   79MOL   C12828364   0.044   2.778   5.298 -0.5011  0.1741  0.3784
   79MOL   C12928365   0.105   2.651   5.365 -0.1710 -0.1344  0.0662
   79MOL   C13028366   0.158   2.560   5.253  0.4648  0.1782  0.1806
   79MOL   C13128367   0.259   2.622   5.157  0.0019 -0.3017 -0.5405
   79MOL   C13228368   0.376   2.691   5.232  0.6977 -0.2617  0.5650
   79MOL   C13328369   0.307   2.508   5.064  0.0349 -0.1042 -0.1960
   79MOL   H13428370   0.114   2.830   5.233 -0.1397 -0.5212  0.1987
   79MOL   H13528371   7.714   2.753   5.231 -1.2054 -0.1678  1.3520
   79MOL   H13628372   0.192   2.663   5.429  0.5147  0.9826 -1.0498
   79MOL   H13728373   0.203   2.473   5.300 -1.6414 -0.6269  0.7617
   79MOL   H13828374   0.073   2.526   5.195  1.0593 -1.3267  0.1794
   79MOL   H13928375   0.219   2.702   5.095 -0.3180  0.6709  0.8947
   79MOL   H14028376   0.408   2.617   5.305 -0.1018  0.7475  1.9797
   79MOL   H14128377   0.352   2.789   5.273 -1.3810 -0.6957  0.4647
   79MOL   H14228378   0.455   2.717   5.162  0.6900  0.1515  0.7092
   79MOL   H14328379   0.369   2.547   4.983  0.3558  1.1231  0.6323
   79MOL   H14428380   0.377   2.432   5.098 -0.2981  1.0098  3.0630
   79MOL   H14528381   0.219   2.458   5.023 -0.4033  0.4022  0.1286
   79MOL   C14628382   0.005   2.581   5.455 -0.1510  0.1174 -0.1098
   79MOL   C14728383   0.058   2.459   5.535  0.6161  0.5996  0.0194
   79MOL   C14828384   7.697   2.367   5.568  0.5742 -0.8198  0.4366
   79MOL   C14928385   7.735   2.232   5.627  0.3941 -0.0328  1.0586
   79MOL   C15028386   7.606   2.176   5.689 -0.5162  1.0930  0.5795
   79MOL   C15128387   0.037   2.125   5.528 -1.1022  0.2007 -0.2114
   79MOL   H15228388   7.674   2.546   5.394  0.4215  0.2407 -0.9676
   79MOL   H15328389   7.713   2.656   5.521 -1.1360 -1.1261  0.6620
   79MOL   H15428390   0.124   2.401   5.471 -1.2257 -0.7330 -0.7273
   79MOL   H15528391   7.628   2.416   5.636 -1.0489  0.3078 -1.9685
   79MOL   H15628392   7.629   2.354   5.484  2.1718  0.9638 -1.1871
   79MOL   H15728393   0.052   2.249   5.709 -0.5277  2.1554  1.4192
   79MOL   H15828394   7.629   2.083   5.739 -2.6510  0.4313  0.3837
   79MOL   H15928395   7.528   2.154   5.616  0.2237 -0.0234  0.1136
   79MOL   H16028396   7.573   2.231   5.777  0.8220  0.4717  1.4878
   79MOL   H16128397   0.143   2.149   5.521 -1.6640  2.4588 -1.3572
   79MOL   H16228398   7.740   2.130   5.432 -0.9860  0.5847 -0.2506
   79MOL   H16328399   0.037   2.026   5.573 -0.7516  0.6265  0.7468
   79MOL   C16428400   0.137   2.514   5.666 -0.0664 -0.3252  0.0314
   79MOL   C16528401   0.295   2.529   5.667  0.5119  0.3005  0.1600
   79MOL   C16628402   0.354   2.609   5.787  0.2480 -0.4333  0.2600
   79MOL   C16728403   0.368   2.761   5.767 -0.2249  0.0086  0.1530
   79MOL   C16828404   0.368   2.841   5.905  0.1059 -0.4949  0.2794
   79MOL   C16928405   0.483   2.794   5.679 -0.8571 -0.5008 -0.5688
   79MOL   H17028406   0.107   2.616   5.685 -0.7199 -0.5733  0.3312
   79MOL   H17128407   0.106   2.452   5.750 -1.4491 -1.0871 -1.0202
   79MOL   H17228408   0.313   2.578   5.571  2.5697 -1.9061 -0.6275
   79MOL   H17328409   0.298   2.588   5.878  1.8952 -0.0672  1.3680
   79MOL   H17428410   0.455   2.576   5.811  0.3410  0.1483  0.6704
   79MOL   H17528411   0.284   2.798   5.707  0.4704  0.1501 -0.7323
   79MOL   H17628412   0.279   2.830   5.967  1.0261 -0.7250  1.5765
   79MOL   H17728413   0.383   2.949   5.898 -1.1278 -0.2068  1.6667
   79MOL   H17828414   0.452   2.799   5.961  1.4500  3.1132  1.1209
   79MOL   H17928415   0.454   2.739   5.589  0.4143 -3.8252  0.9793
   79MOL   H18028416   0.579   2.752   5.709 -0.5506  2.2852  2.6441
   79MOL   H18128417   0.485   2.902   5.664  1.3008 -0.4731 -0.2511
   79MOL   C18228418   0.348   2.385   5.666 -0.0811  0.4078 -0.1384
   79MOL   C18328419   0.499   2.364   5.621  0.6234 -0.3459  0.2705
   79MOL   C18428420   0.543   2.223   5.667  0.1659 -0.2433 -0.0315
   79MOL   C18528421   0.564   2.211   5.820  0.1643 -0.7221  0.2135
   79MOL   C18628422   0.545   2.071   5.872  0.2935  0.2581  0.0424
   79MOL   C18728423   0.704   2.261   5.867 -0.4140  0.4256 -0.3792
   79MOL   H18828424   0.300   2.324   5.589  0.3444  1.7512 -1.5051
   79MOL   H18928425   0.336   2.343   5.765 -0.2796 -0.3196 -0.4657
   79MOL   H19028426   0.560   2.428   5.684 -0.0207  0.9849 -0.4310
   79MOL   H19128427   0.631   2.182   5.618  2.0592  2.9729  0.5233
   79MOL   H19228428   0.475   2.144   5.634  1.9339 -2.1904  0.8199
   79MOL   H19328429   0.497   2.285   5.864 -2.0033 -2.1964 -0.5351
   79MOL   H19428430   0.605   2.006   5.808  0.3358  0.3313  0.0073
   79MOL   H19528431   0.440   2.043   5.874  0.0870  0.7991 -2.4777
   79MOL   H19628432   0.580   2.054   5.974 -0.7006 -1.1161  0.1802
   79MOL   H19728433   0.709   2.368   5.888  0.6226  0.0877  1.1942
   79MOL   H19828434   0.780   2.241   5.791  0.5947 -2.0970  1.2143
   79MOL   H19928435   0.733   2.212   5.960 -2.9980 -1.0384 -0.3002
   79MOL   C20028436   0.531   2.388   5.469 -0.1820  0.4507 -0.0216
   79MOL   C20128437   0.673   2.414   5.436 -0.4251 -0.6090  0.5991
   79MOL   C20228438   0.711   2.556   5.480 -0.5332  0.6516  0.4380
   79MOL   C20328439   0.870   2.574   5.492 -0.0705 -0.2045 -0.5572
   79MOL   C20428440   0.912   2.726   5.502  0.0563  0.4215  0.3374
   79MOL   C20528441   0.942   2.509   5.614  0.7935  0.3989  0.0919
   79MOL   H20628442   0.469   2.469   5.431  0.0249  0.3196 -0.6439
   79MOL   H20728443   0.503   2.303   5.406  0.3085  1.2863 -1.3908
   79MOL   H20828444   0.722   2.344   5.504  0.4417  0.8272  1.4621
   79MOL   H20928445   0.668   2.631   5.413 -0.5504 -0.5329 -0.8790
   79MOL   H21028446   0.660   2.577   5.574 -1.5307  2.8689 -0.5487
   79MOL   H21128447   0.904   2.533   5.397 -0.4683  2.1650 -1.7504
   79MOL   H21228448   0.886   2.776   5.409 -0.1648 -0.3784 -0.0292
   79MOL   H21328449   1.021   2.734   5.500  0.2862 -2.2500  0.4062
   79MOL   H21428450   0.863   2.778   5.584 -2.0532  1.1020 -1.3035
   79MOL   H21528451   1.049   2.529   5.615  0.1208  4.2845 -0.9710
   79MOL   H21628452   0.916   2.403   5.622  1.3001  0.1501 -1.3095
   79MOL   H21728453   0.910   2.544   5.712 -0.1693  2.2362 -0.8678
   79MOL   C21828454   0.704   2.380   5.293  0.0392 -0.4290  0.2243
   79MOL   C21928455   0.708   2.226   5.263  0.2580 -0.0028 -0.0673
   79MOL   C22028456   0.848   2.181   5.231  0.2567 -0.4615  0.1905
   79MOL   C22128457   0.954   2.190   5.340 -0.1856  0.2648  0.5070
   79MOL   C22228458   0.918   2.137   5.479  0.9184  0.4751 -0.2879
   79MOL   C22328459   1.096   2.144   5.293  0.6393 -0.6344  0.7575
   79MOL   H22428460   0.629   2.430   5.232 -0.3435 -1.5735 -0.2750
   79MOL   H22528461   0.798   2.417   5.252  0.3549 -1.0224  0.3973
   79MOL   H22628462   0.688   2.160   5.347  2.0013 -0.4039  0.0557
   79MOL   H22728463   0.840   2.077   5.199  1.5504 -0.3402 -0.5687
   79MOL   H22828464   0.880   2.253   5.155 -0.2332 -1.2085 -0.7429
   79MOL   H22928465   0.966   2.296   5.363  0.0036 -0.0468  1.9091
   79MOL   H23028466   0.999   2.130   5.552  0.8151 -1.2275 -0.3156
   79MOL   H23128467   0.844   2.197   5.532  0.5108 -0.5847  0.3591
   79MOL   H23228468   0.886   2.033   5.472  1.3692  0.2689  0.5184
   79MOL   H23328469   1.132   2.213   5.217 -0.9093  1.0973  1.5582
   79MOL   H23428470   1.164   2.135   5.378  0.7182  0.6831  0.8492
   79MOL   H23528471   1.082   2.046   5.248 -1.9293  1.4187 -3.2453
   79MOL   C23628472   0.607   2.193   5.151  0.0665 -0.1854  0.3490
   79MOL   C23728473   0.549   2.053   5.142 -0.4763 -0.4073  0.4217
   79MOL   C23828474   0.493   2.027   4.997  0.2017 -0.6032  0.0030
   79MOL   C23928475   0.596   2.031   4.880 -0.7217  0.4866 -0.0642
   79MOL   C24028476   0.715   1.927   4.894 -0.0839 -0.8888 -0.2314
   79MOL   C24128477   0.527   2.009   4.751 -0.1913  0.1479  0.0423
   79MOL   H24228478   0.661   2.222   5.061  1.9491 -1.2394  1.1032
   79MOL   H24328479   0.519   2.257   5.158 -0.2544 -0.5955  0.0820
   79MOL   H24428480   0.623   1.977   5.165 -0.5800 -0.4093  0.7574
   79MOL   H24528481   0.408   2.092   4.979  0.8234  0.1850 -0.1195
   79MOL   H24628482   0.447   1.928   4.995  0.7792 -0.8822  0.2804
   79MOL   H24728483   0.648   2.127   4.877  1.0936 -0.4713 -0.2765
   79MOL   H24828484   0.764   1.937   4.991  0.2520 -0.3972 -0.4496
   79MOL   H24928485   0.796   1.938   4.822  1.5567 -0.3446  1.6701
   79MOL   H25028486   0.686   1.824   4.878 -1.0589 -0.5755 -0.5218
   79MOL   H25128487   0.590   2.053   4.674 -1.5338  2.7666  0.3499
   79MOL   H25228488   0.440   2.075   4.740  0.0678  0.8245  1.7972
   79MOL   H25328489   0.525   1.905   4.720 -1.2909  1.5300 -5.0892
   79MOL   C25428490   0.441   2.041   5.253 -0.0818 -0.1453  0.4777
   79MOL   C25528491   0.405   1.895   5.297 -0.1487  0.1827 -0.4144
   79MOL   C25628492   0.492   1.843   5.420 -0.1994  0.2344 -1.1004
   79MOL   C25728493   0.635   1.825   5.406  0.0954 -0.1516  0.7172
   79MOL   C25828494   0.668   1.723   5.291  0.0762  0.2363  0.3260
   79MOL   C25928495   0.707   1.806   5.537  0.7016  0.2727  0.0165
   79MOL   H26028496   0.472   2.089   5.346 -0.3310  1.4020 -0.2159
   79MOL   H26128497   0.356   2.093   5.210  2.0199  1.8277 -1.3942
   79MOL   H26228498   0.417   1.823   5.216 -0.4500  0.0621 -0.3512
   79MOL   H26328499   0.452   1.748   5.455  1.4916  0.1491  0.6660
   79MOL   H26428500   0.463   1.908   5.502  1.3909 -0.6121  0.1453
   79MOL   H26528501   0.665   1.922   5.367  3.1519 -2.0441 -1.9776
   79MOL   H26628502   0.768   1.730   5.249  0.0282  1.0366  0.3367
   79MOL   H26728503   0.605   1.728   5.202  0.8460 -3.0591 -0.4698
   79MOL   H26828504   0.650   1.623   5.331  0.6415  0.4167  1.0381
   79MOL   H26928505   0.671   1.883   5.604  1.2690  0.8453 -0.3295
   79MOL   H27028506   0.683   1.711   5.586 -2.1822  1.1660  0.3692
   79MOL   H27128507   0.812   1.829   5.555  0.3319  1.4598  0.7160
   79MOL   C27228508   0.256   1.891   5.334  0.5742  0.4119  0.1751
   79MOL   C27328509   0.176   1.864   5.201  0.0969  0.0936  0.3625
   79MOL   C27428510   0.136   1.707   5.189 -0.4390 -0.4982  0.2089
   79MOL   C27528511   0.243   1.606   5.144 -0.0733  0.2872  0.3129
   79MOL   C27628512   0.288   1.633   5.001 -0.2240  0.2155  0.9158
   79MOL   C27728513   0.195   1.460   5.160  0.4046  0.3710  0.3818
   79MOL   H27828514   0.229   1.813   5.406 -1.0583  1.4106  0.6717
   79MOL   H27928515   0.232   1.984   5.386  0.1959  0.6519 -0.4242
   79MOL   H28028516   0.246   1.892   5.123 -1.4859  1.3098 -0.6589
   79MOL   H28128517   0.059   1.698   5.112  0.7395  0.8190 -1.1806
   79MOL   H28228518   0.090   1.672   5.281  0.6408 -1.2086  0.4780
   79MOL   H28328519   0.328   1.610   5.212  0.4849  0.1907 -0.3699
   79MOL   H28428520   0.355   1.555   4.965  0.4851  0.9779  0.5580
   79MOL   H28528521   0.199   1.629   4.937 -0.2596  0.9634  0.9142
   79MOL   H28628522   0.333   1.732   4.994  0.5330 -0.1353  0.7499
   79MOL   H28728523   0.284   1.401   5.144  1.6004  1.3093  3.2391
   79MOL   H28828524   0.171   1.445   5.266 -0.5439  1.7644  0.3888
   79MOL   H28928525   0.109   1.432   5.099 -0.4313  1.9752  0.7745
   79MOL   C29028526   0.048   1.953   5.196  0.7172  0.5811 -0.3747
   79MOL   C29128527   7.720   1.972   5.059 -0.4099 -0.2866 -0.4265
   79MOL   C29228528   7.620   2.087   5.098 -0.6485  0.2615  0.5336
   79MOL   C29328529   7.516   2.059   5.211 -0.0636  0.1882  0.5172
   79MOL   C29428530   7.438   2.181   5.256  0.0632  0.0182  0.2028
   79MOL   C29528531   7.421   1.948   5.163 -0.0869 -0.1311 -0.7754
   79MOL   H29628532   7.729   1.907   5.265  2.0137 -1.3714 -0.2853
   79MOL   H29728533   0.071   2.054   5.228 -0.5369  1.6269 -2.6305
   79MOL   H29828534   7.671   1.875   5.049  0.7348 -0.7274 -1.9898
   79MOL   H29928535   7.568   2.121   5.008  0.2086 -0.4817 -0.2479
   79MOL   H30028536   7.677   2.169   5.143 -1.2949  1.8169 -1.3941
   79MOL   H30128537   7.556   2.011   5.300 -0.4450 -5.1371 -1.9877
   79MOL   H30228538   7.380   2.220   5.173  0.3810 -2.6620 -1.3435
   79MOL   H30328539   7.493   2.264   5.300 -2.9549  1.3920  1.5868
   79MOL   H30428540   7.360   2.161   5.330  0.4832  1.8424  1.1600
   79MOL   H30528541   7.378   1.975   5.067  0.3099 -0.5312 -1.0663
   79MOL   H30628542   7.346   1.927   5.240  0.0369 -0.9232 -0.8665
   79MOL   H30728543   7.479   1.858   5.145  0.3338  0.1187 -0.6869
   79MOL   C30828544   0.063   1.995   4.944 -0.0683 -0.7016 -0.0893
   79MOL   C30928545   7.745   2.026   4.812 -0.7499  0.2683  0.5943
   79MOL   C31028546   0.089   2.091   4.712 -0.2070 -0.8742  0.3756
   79MOL   C31128547   0.068   2.242   4.680 -0.1544  1.2630  0.0068
   79MOL   C31228548   0.109   2.318   4.802 -0.4872 -0.1351 -0.3580
   79MOL   C31328549   0.155   2.290   4.563  0.8136  0.3424 -0.6516
   79MOL   H31428550   0.133   2.077   4.963  0.4817 -1.5582  1.7132
   79MOL   H31528551   0.126   1.908   4.926  1.6119  0.3732  0.3909
   79MOL   H31628552   7.667   2.100   4.832  0.3959  1.6386  0.1226
   79MOL   H31728553   0.096   2.040   4.616  1.3777  0.0695 -0.0478
   79MOL   H31828554   0.191   2.088   4.750  0.2679 -1.2110 -0.9069
   79MOL   H31928555   7.719   2.276   4.662 -1.4011 -1.0454  2.4049
   79MOL   H32028556   0.077   2.291   4.902 -2.0815  0.3474 -0.7255
   79MOL   H32128557   0.102   2.426   4.794  0.8643 -0.0833 -0.9553
   79MOL   H32228558   0.216   2.307   4.818 -1.0686  0.8985  4.9797
   79MOL   H32328559   0.252   2.243   4.549  1.8776  2.1437  0.4812
   79MOL   H32428560   0.098   2.261   4.474  1.0320 -2.4912  0.0838
   79MOL   H32528561   0.168   2.398   4.561 -2.9649  0.9029  0.5003
   79MOL   C32628562   7.672   1.899   4.749 -0.1609 -1.1667 -0.2972
   79MOL   C32728563   7.546   1.938   4.667  0.2820 -0.1396 -0.0218
   79MOL   C32828564   7.429   1.968   4.756  0.3914  0.6816 -0.1239
   79MOL   C32928565   7.337   2.087   4.720  0.1977 -0.4397  0.0393
   79MOL   C33028566   7.200   2.079   4.791 -0.3955  0.0984  0.6171
   79MOL   C33128567   7.400   2.228   4.762  0.0533  0.3207  0.7736
   79MOL   H33228568   7.646   1.829   4.829  1.2411 -1.4931 -0.1098
   79MOL   H33328569   0.001   1.854   4.693  0.8456 -1.3825  1.2996
   79MOL   H33428570   7.561   2.030   4.611  0.8353 -0.8882 -1.1321
   79MOL   H33528571   7.377   1.878   4.789  0.4635  1.1964  1.4214
   79MOL   H33628572   7.467   1.988   4.856  0.0312  0.2333  0.1072
   79MOL   H33728573   7.327   2.091   4.612  2.7077  3.0572 -0.1206
   79MOL   H33828574   7.137   2.162   4.758 -0.5313 -0.0286  0.5551
   79MOL   H33928575   7.204   2.094   4.899  0.4713 -0.2769  0.6393
   79MOL   H34028576   7.139   1.991   4.771  1.0179 -0.3485 -1.8476
   79MOL   H34128577   7.498   2.237   4.716  0.3736 -3.3935  0.5777
   79MOL   H34228578   7.345   2.313   4.723 -1.4696 -1.1584 -0.4185
   79MOL   H34328579   7.415   2.246   4.868 -0.2001  0.7173  0.7445
   79MOL   C34428580   7.503   1.839   4.557  0.3315  0.0330  0.2332
   79MOL   C34528581   7.603   1.847   4.440 -0.4950 -0.3679 -0.4148
   79MOL   C34628582   7.582   1.743   4.339 -0.0335  0.0921  0.1374
   79MOL   C34728583   7.706   1.720   4.249  0.5877  0.2694 -0.0887
   79MOL   C34828584   7.686   1.674   4.107  0.2573 -0.4254 -0.3144
   79MOL   C34928585   0.046   1.622   4.314 -0.1018 -0.2610 -0.5164
   79MOL   H35028586   7.407   1.867   4.514  1.1480  1.1265 -0.8988
   79MOL   H35128587   7.497   1.747   4.616  1.2715 -1.5285 -2.0331
   79MOL   H35228588   7.703   1.835   4.482 -0.4965  0.6614 -0.0890
   79MOL   H35328589   7.553   1.648   4.383  0.2454  0.8093  1.9128
   79MOL   H35428590   7.503   1.772   4.270  0.6867  0.9309 -0.3499
   79MOL   H35528591   0.006   1.816   4.248 -1.2727  1.2970 -0.0423
   79MOL   H35628592   7.635   1.578   4.100 -1.0224  0.3135 -1.2707
   79MOL   H35728593   7.623   1.755   4.069  0.8090  0.3718  0.4239
   79MOL   H35828594   0.032   1.683   4.060  0.2238  0.5732 -0.2198
   79MOL   H35928595   0.019   1.525   4.354 -0.0398  0.7357  1.9977
   79MOL   H36028596   0.106   1.667   4.393 -0.1818 -0.7610 -0.1728
   79MOL   H36128597   0.131   1.609   4.246 -0.9963 -0.5980 -1.5835
   79MOL   H36228598   7.593   1.943   4.389 -0.2755 -0.3458 -0.4199
   80MOL     C128599   3.031   7.659   4.690  0.3813  0.2453  0.0096
   80MOL     C228600   2.980   7.552   4.596  0.4300  0.2525  0.3680
   80MOL     C328601   2.828   7.544   4.582  0.3723  0.0369 -0.4709
   80MOL     C428602   2.759   7.664   4.526  0.1172  0.3225  0.4481
   80MOL     C528603   2.612   7.655   4.555  0.3796 -0.1433 -0.1176
   80MOL     C628604   2.792   7.708   4.378  0.0826 -0.0070  0.2749
   80MOL     H728605   2.989   7.679   4.788 -1.0872  0.5938 -0.6765
   80MOL     H828606   3.137   7.639   4.703  0.7140  2.2680  0.5618
   80MOL     H928607   3.021   7.567   4.496  0.7116 -0.7484  0.3252
   80MOL    H1028608   2.793   7.458   4.525 -0.6272 -0.7157  1.2577
   80MOL    H1128609   2.793   7.526   4.683  2.8550 -2.3890  0.0254
   80MOL    H1228610   2.791   7.743   4.593  2.7713  0.3474 -0.7811
   80MOL    H1328611   2.545   7.732   4.518  1.6038  0.4599 -1.1095
   80MOL    H1428612   2.568   7.557   4.534  1.4312 -0.4687 -0.8212
   80MOL    H1528613   2.610   7.674   4.662 -1.3756  1.3160 -0.3826
   80MOL    H1628614   2.764   7.643   4.295  0.3233 -0.6392  0.6876
   80MOL    H1728615   2.901   7.709   4.375  0.1245  0.8129  1.9735
   80MOL    H1828616   2.761   0.057   4.350 -1.9358 -0.9146 -0.9165
   80MOL    H1928617   3.034   0.009   4.653 -1.6319  0.0064 -0.8773
   80MOL    C2028618   3.038   7.415   4.626  0.1761 -0.3270  0.3058
   80MOL    C2128619   3.186   7.382   4.573  0.2119 -0.6440 -0.5251
   80MOL    C2228620   3.245   7.252   4.638 -0.0540 -0.1228 -0.5946
   80MOL    C2328621   3.399   7.233   4.635  0.5688  0.2365 -0.1681
   80MOL    C2428622   3.489   7.333   4.712 -0.5036 -0.7302  0.5475
   80MOL    C2528623   3.441   7.092   4.681 -0.0473 -0.0842  0.4487
   80MOL    H2628624   3.028   7.409   4.735  2.3778 -0.2069  0.5526
   80MOL    H2728625   2.974   7.338   4.583 -0.6186  0.6527 -0.2822
   80MOL    H2828626   3.251   7.464   4.602 -0.3293 -0.5404  0.4048
   80MOL    H2928627   3.197   7.162   4.601  3.6059 -2.1917 -0.5881
   80MOL    H3028628   3.221   7.256   4.744  0.7498 -0.7497 -0.3870
   80MOL    H3128629   3.426   7.243   4.530 -1.6432  1.1237 -0.6829
   80MOL    H3228630   3.469   7.339   4.819 -1.2133 -1.1198  0.4378
   80MOL    H3328631   3.479   7.437   4.681  1.5144  0.2645  3.0055
   80MOL    H3428632   3.595   7.312   4.697 -0.1622  0.6277  0.9528
   80MOL    H3528633   3.369   7.017   4.649 -0.9807  1.5108 -1.2440
   80MOL    H3628634   3.542   7.067   4.648  0.3234  1.4248  0.4151
   80MOL    H3728635   3.449   7.087   4.790 -1.3371 -0.6115  0.5317
   80MOL    C3828636   3.200   7.376   4.423 -0.1996  0.1380 -0.3305
   80MOL    C3928637   3.332   7.442   4.363  0.1955  0.6306  0.3664
   80MOL    C4028638   3.316   7.598   4.346  0.2921 -0.5462  0.1605
   80MOL    C4128639   3.443   7.689   4.349  0.2072 -0.2734 -0.3716
   80MOL    C4228640   3.438   0.040   4.460  0.2725  0.1757  0.7537
   80MOL    C4328641   3.453   0.009   4.218  0.2087 -0.1949  0.2024
   80MOL    H4428642   3.107   7.405   4.374 -0.3329  0.9045  0.3714
   80MOL    H4528643   3.201   7.269   4.401 -0.8224 -0.4457  2.2898
   80MOL    H4628644   3.418   7.427   4.427  1.0576  2.0189 -0.4377
   80MOL    H4728645   3.254   7.625   4.432 -2.5671  1.7603 -2.5328
   80MOL    H4828646   3.259   7.618   4.256 -3.3359 -0.4955  2.3634
   80MOL    H4928647   3.535   7.631   4.357  0.0784 -0.1997  2.0035
   80MOL    H5028648   3.415   7.747   4.556  0.9600 -0.7080  0.5064
   80MOL    H5128649   3.531   0.095   4.473 -1.1945  3.6691 -2.3954
   80MOL    H5228650   3.364   0.116   4.434  0.8815  0.6677  0.4238
   80MOL    H5328651   3.366   0.073   4.201 -0.0198 -0.2031  1.3213
   80MOL    H5428652   3.458   7.689   4.137  0.2359 -0.5927  0.5635
   80MOL    H5528653   3.542   0.071   4.206  0.0985 -0.3692 -1.5663
   80MOL    C5628654   3.367   7.396   4.221 -0.7174  0.9688  0.0154
   80MOL    C5728655   3.464   7.280   4.209 -0.2415  0.5973 -0.0501
   80MOL    C5828656   3.395   7.144   4.228  0.1889 -0.4534 -0.0249
   80MOL    C5928657   3.283   7.100   4.131 -0.0229 -0.3735  0.4466
   80MOL    C6028658   3.230   6.955   4.159  0.0387  0.0357  0.4280
   80MOL    C6128659   3.323   7.119   3.979 -0.3935  0.1968  0.8315
   80MOL    H6228660   3.411   7.478   4.165  1.4184  1.4763  2.3366
   80MOL    H6328661   3.267   7.380   4.181 -0.5392 -0.1301 -0.0064
   80MOL    H6428662   3.490   7.285   4.103 -2.6132 -0.1196 -0.6774
   80MOL    H6528663   3.472   7.067   4.227  1.2706  0.6316 -0.4126
   80MOL    H6628664   3.354   7.136   4.328 -2.3932  1.1654 -0.9039
   80MOL    H6728665   3.196   7.165   4.141  1.2021  1.2456  0.8470
   80MOL    H6828666   3.139   6.930   4.106 -1.1862 -1.7777  3.2503
   80MOL    H6928667   3.209   6.946   4.266 -0.5181  2.5182  0.5462
   80MOL    H7028668   3.298   6.874   4.132  0.8702  0.7242  0.4345
   80MOL    H7128669   3.328   7.225   3.956  0.6046  0.1070  0.6342
   80MOL    H7228670   3.251   7.078   3.908 -0.8271  1.3424  0.5977
   80MOL    H7328671   3.420   7.079   3.952 -1.1895 -0.6877 -0.8431
   80MOL    C7428672   3.601   7.287   4.287 -0.0293 -0.1161 -0.2459
   80MOL    C7528673   3.709   7.193   4.233 -0.1693 -0.0083  0.5568
   80MOL    C7628674   3.727   7.075   4.326  0.0509 -0.5282  0.6390
   80MOL    C7728675   3.777   6.940   4.270 -0.3347 -0.4691 -0.1499
   80MOL    C7828676   3.692   6.881   4.154 -0.5110  0.2939 -0.2365
   80MOL    C7928677   3.806   6.834   4.378  0.2930  0.0939 -0.2330
   80MOL    H8028678   3.591   7.271   4.395  2.6290  1.7869  0.3329
   80MOL    H8128679   3.632   7.391   4.282 -1.2495  0.2631 -0.2618
   80MOL    H8228680   3.675   7.152   4.137  1.4002 -0.5856  0.2268
   80MOL    H8328681   3.802   7.112   4.397 -1.3599  0.1035  1.8344
   80MOL    H8428682   3.637   7.051   4.383 -0.4289  0.4285  0.3033
   80MOL    H8528683   3.876   6.949   4.225 -0.4683 -2.0509 -0.8030
   80MOL    H8628684   3.712   6.776   4.137  0.7840  0.4162  0.4425
   80MOL    H8728685   3.682   6.933   4.059  0.4969  0.5887 -0.1812
   80MOL    H8828686   3.588   6.887   4.188 -0.1811  1.6065  0.5850
   80MOL    H8928687   3.869   6.756   4.336 -0.0621  0.1089 -0.8077
   80MOL    H9028688   3.859   6.887   4.457  2.6263  0.6102 -2.0783
   80MOL    H9128689   3.706   6.806   4.410 -0.2645  1.3764 -0.8066
   80MOL    C9228690   3.846   7.268   4.214  0.7970  0.4748  0.6551
   80MOL    C9328691   3.858   7.373   4.093 -0.0450 -0.2197  0.3003
   80MOL    C9428692   3.962   7.476   4.130  0.1254 -0.2121 -0.2239
   80MOL    C9528693   3.904   7.584   4.231  0.1487 -0.2921  0.4143
   80MOL    C9628694   4.017   7.683   4.271  0.4089  0.0432 -0.2614
   80MOL    C9728695   3.789   7.663   4.170 -0.0473  0.9161  0.2727
   80MOL    H9828696   3.859   7.323   4.308  0.4571 -0.2912  1.1571
   80MOL    H9928697   3.939   7.211   4.214  1.5848  1.7193  2.3199
   80MOL   H10028698   3.763   7.426   4.085  0.1879  0.8915  4.0256
   80MOL   H10128699   3.973   7.525   4.033 -0.4610 -0.4817 -0.4263
   80MOL   H10228700   4.059   7.438   4.162 -0.3900 -0.8940  0.5543
   80MOL   H10328701   3.881   7.536   4.326  0.5467 -0.2316  0.5408
   80MOL   H10428702   3.972   0.017   4.320 -0.7473  0.5041 -2.0940
   80MOL   H10528703   4.059   7.722   4.179  0.3640  0.5846 -0.0494
   80MOL   H10628704   4.098   7.642   4.332  0.6273  3.1133  1.5908
   80MOL   H10728705   3.805   7.687   4.064 -1.8466  0.1804 -0.1776
   80MOL   H10828706   3.768   0.007   4.215 -3.8244  0.6289 -0.7070
   80MOL   H10928707   3.700   7.601   4.183  0.2274  0.6121  0.7111
   80MOL   C11028708   3.895   7.293   3.967 -0.0061  0.7107 -0.7611
   80MOL   C11128709   3.853   7.377   3.847 -0.1469 -0.3949 -0.5679
   80MOL   C11228710   3.927   7.330   3.724 -0.2773  0.0634 -0.6802
   80MOL   C11328711   4.070   7.378   3.706 -0.4929 -0.3455 -0.7678
   80MOL   C11428712   4.076   7.532   3.681  0.3080 -0.3117 -0.1462
   80MOL   C11528713   4.135   7.308   3.588  0.0574  0.2234  0.1698
   80MOL   H11628714   3.841   7.198   3.967  0.7122  0.2870  1.0644
   80MOL   H11728715   3.999   7.262   3.971 -0.3449 -0.4871 -0.8765
   80MOL   H11828716   3.881   7.481   3.861 -0.5255 -0.1289 -1.7076
   80MOL   H11928717   3.870   7.350   3.633  0.1738 -0.3268 -1.0523
   80MOL   H12028718   3.927   7.222   3.712  2.6819  0.1225 -1.6528
   80MOL   H12128719   4.137   7.358   3.789 -1.0371  2.2157  0.3189
   80MOL   H12228720   4.038   7.598   3.760 -1.7964  1.2197 -2.3700
   80MOL   H12328721   4.025   7.560   3.589 -1.0227  1.3614  1.0564
   80MOL   H12428722   4.177   7.570   3.668  0.1595  0.0943 -0.1243
   80MOL   H12528723   4.087   7.357   3.503 -0.8248 -0.7599  0.0973
   80MOL   H12628724   4.117   7.201   3.593 -1.1299  0.4961  2.5957
   80MOL   H12728725   4.243   7.320   3.594 -0.0084  0.6339  0.5927
   80MOL   C12828726   3.704   7.353   3.823  0.3475  0.1506 -0.5806
   80MOL   C12928727   3.635   7.457   3.729 -0.3354  0.2787  0.4392
   80MOL   C13028728   3.610   7.583   3.819  0.2429 -0.0163 -0.0765
   80MOL   C13128729   3.559   7.712   3.744  0.7148  0.0803  0.1949
   80MOL   C13228730   3.498   0.058   3.844  0.1773 -0.0243  0.7735
   80MOL   C13328731   3.667   0.031   3.657 -0.4143 -0.3127  0.3100
   80MOL   H13428732   3.637   7.337   3.908  0.5659 -2.2067 -0.8183
   80MOL   H13528733   3.698   7.252   3.781 -0.9697  0.2353 -0.6264
   80MOL   H13628734   3.701   7.482   3.645  0.7791 -1.1296  0.8865
   80MOL   H13728735   3.543   7.563   3.903  0.3036 -3.1698 -0.7343
   80MOL   H13828736   3.698   7.604   3.880  0.3944  0.0449 -0.3147
   80MOL   H13928737   3.475   7.680   3.682  0.0023 -1.5670  1.9559
   80MOL   H14028738   3.466   0.146   3.788 -0.6300 -1.7935 -1.6035
   80MOL   H14128739   3.556   0.083   3.934 -0.1614  1.0088  0.7156
   80MOL   H14228740   3.404   0.013   3.875 -0.3078  1.8107  2.1216
   80MOL   H14328741   3.745   0.061   3.727 -0.1208 -0.0800 -0.1161
   80MOL   H14428742   3.697   7.722   3.572 -0.3460 -1.5543  1.2240
   80MOL   H14528743   3.634   0.127   3.615 -0.9554 -0.6933 -0.1541
   80MOL   C14628744   3.501   7.406   3.683 -0.4227  0.4499  0.1769
   80MOL   C14728745   3.497   7.325   3.547  0.9497 -0.4303  0.2329
   80MOL   C14828746   3.365   7.357   3.474 -0.0355  0.1169  0.5937
   80MOL   C14928747   3.363   7.494   3.402  0.4799  0.2910  0.4885
   80MOL   C15028748   3.411   7.490   3.256  0.1512 -0.1678  0.4721
   80MOL   C15128749   3.229   7.570   3.417 -0.2461  0.1837 -0.1947
   80MOL   H15228750   3.429   7.486   3.672 -2.7020 -1.5496  0.2400
   80MOL   H15328751   3.454   7.349   3.763 -0.4461  0.4756  0.1809
   80MOL   H15428752   3.571   7.378   3.486 -3.8098  4.8189 -1.3350
   80MOL   H15528753   3.334   7.281   3.403  2.0218 -1.6286  1.4862
   80MOL   H15628754   3.289   7.348   3.551 -0.2012 -1.6381  0.2362
   80MOL   H15728755   3.430   7.556   3.461 -0.0912  0.5689  0.8522
   80MOL   H15828756   3.510   7.451   3.232 -0.0744 -0.2068 -0.4341
   80MOL   H15928757   3.400   7.590   3.213 -2.1705 -0.4961  0.2118
   80MOL   H16028758   3.350   7.419   3.200  0.5049  0.1320 -0.2942
   80MOL   H16128759   3.155   7.520   3.355 -1.8322  0.3025  1.5777
   80MOL   H16228760   3.234   7.668   3.369  0.2724  0.4432  0.3854
   80MOL   H16328761   3.202   7.592   3.520 -0.6046 -1.9132  0.1730
   80MOL   C16428762   3.531   7.178   3.545 -0.5224 -0.1707  0.4881
   80MOL   C16528763   3.593   7.129   3.415  0.3198 -0.1962  1.3130
   80MOL   C16628764   3.742   7.181   3.412 -0.8902 -0.6382  0.8791
   80MOL   C16728765   3.816   7.186   3.278  0.0861  0.4780  0.7421
   80MOL   C16828766   3.731   7.249   3.172  0.1117 -0.7399 -0.4581
   80MOL   C16928767   3.945   7.265   3.281  0.2826  0.4364  0.2887
   80MOL   H17028768   3.596   7.147   3.626  1.0155  1.1042 -0.2228
   80MOL   H17128769   3.439   7.123   3.565 -0.0476 -1.6438 -1.2203
   80MOL   H17228770   3.539   7.172   3.331  3.5754  1.4365 -0.0707
   80MOL   H17328771   3.762   7.282   3.449 -0.7702 -1.2682  2.5587
   80MOL   H17428772   3.805   7.113   3.469 -0.0440  0.5734  1.4248
   80MOL   H17528773   3.846   7.087   3.244 -2.1847  0.3911 -1.1867
   80MOL   H17628774   3.689   7.344   3.204  2.2220  0.0021  0.2241
   80MOL   H17728775   3.645   7.185   3.149 -0.4751 -0.2106  0.2434
   80MOL   H17828776   3.782   7.267   3.078 -2.2138  0.9272 -1.4502
   80MOL   H17928777   3.922   7.366   3.317 -0.8214  0.5894 -0.8397
   80MOL   H18028778   3.986   7.267   3.180 -1.0905  1.1161 -0.2775
   80MOL   H18128779   4.012   7.211   3.348  1.7290  0.8318 -0.8246
   80MOL   C18228780   3.569   6.974   3.401 -0.1235  0.5630 -0.5476
   80MOL   C18328781   3.426   6.938   3.351  0.8960 -0.4218 -0.2288
   80MOL   C18428782   3.426   6.851   3.223  0.3169  0.0460 -0.3075
   80MOL   C18528783   3.436   6.933   3.088  0.6331 -0.0041 -0.3808
   80MOL   C18628784   3.450   6.838   2.973  0.0720 -0.9761  0.4483
   80MOL   C18728785   3.326   7.034   3.065  0.6783  0.0886 -0.4398
   80MOL   H18828786   3.587   6.916   3.491 -1.6122  1.3837  0.3109
   80MOL   H18928787   3.646   6.946   3.329 -0.6686 -0.8866 -0.5730
   80MOL   H19028788   3.369   7.029   3.328  0.5529 -0.9251 -1.4447
   80MOL   H19128789   3.337   6.788   3.227  0.1860  0.2186 -0.4343
   80MOL   H19228790   3.502   6.774   3.236  1.1678  0.8551 -0.4359
   80MOL   H19328791   3.523   6.998   3.099 -0.5706  1.7258 -0.9296
   80MOL   H19428792   3.541   6.780   2.990  0.3737 -0.0932  1.8975
   80MOL   H19528793   3.445   6.898   2.882 -0.1075 -0.2441  0.9365
   80MOL   H19628794   3.365   6.773   2.955  0.0296 -0.8377  0.1392
   80MOL   H19728795   3.227   6.988   3.064  1.1839 -1.0111 -0.8917
   80MOL   H19828796   3.325   7.077   2.965  0.2750 -1.2755 -1.0273
   80MOL   H19928797   3.327   7.109   3.144 -0.6604 -1.1279  0.7785
   80MOL   C20028798   3.335   6.876   3.460 -0.5229 -0.3627  0.3381
   80MOL   C20128799   3.179   6.902   3.450  0.0784  0.0522 -0.1781
   80MOL   C20228800   3.135   7.038   3.514 -0.0699  0.4548  0.5951
   80MOL   C20328801   3.002   7.100   3.480  0.0657  0.0491 -0.1253
   80MOL   C20428802   2.972   7.210   3.583  0.8045 -0.1046 -0.1323
   80MOL   C20528803   2.998   7.165   3.338  0.0178 -0.3644 -0.0724
   80MOL   H20628804   3.369   6.912   3.557  4.1735 -0.8493 -0.9882
   80MOL   H20728805   3.349   6.770   3.481  0.3438 -0.1013  1.1416
   80MOL   H20828806   3.162   6.904   3.343 -1.0563  0.5008  0.0108
   80MOL   H20928807   3.148   7.030   3.622 -1.2272  1.7835  0.8574
   80MOL   H21028808   3.197   7.119   3.474  1.4583 -1.4735 -1.0349
   80MOL   H21128809   2.919   7.030   3.492  0.8602 -0.6321  1.5762
   80MOL   H21228810   2.985   7.184   3.688  0.8683 -2.7307 -0.7586
   80MOL   H21328811   2.868   7.245   3.583  0.5653 -0.8014  0.9730
   80MOL   H21428812   3.035   7.298   3.572  1.5206 -0.7313 -1.1064
   80MOL   H21528813   3.022   7.095   3.258 -0.2074  0.9311 -1.3071
   80MOL   H21628814   3.061   7.254   3.340  2.6565 -2.1762 -0.4225
   80MOL   H21728815   2.899   7.199   3.307  0.5234  2.1919  0.9531
   80MOL   C21828816   3.086   6.786   3.491 -0.7552 -0.4090 -0.3634
   80MOL   C21928817   3.080   6.672   3.385  0.6408 -1.2322 -0.6005
   80MOL   C22028818   2.932   6.660   3.342  0.3694 -0.0240  0.1091
   80MOL   C22128819   2.879   6.782   3.259  1.1489 -0.6286 -0.3874
   80MOL   C22228820   2.940   6.799   3.124  0.3678 -0.0517 -0.8144
   80MOL   C22328821   2.723   6.780   3.242 -0.2142 -0.3754 -0.2330
   80MOL   H22428822   3.111   6.746   3.589  2.5122 -2.5562 -2.0067
   80MOL   H22528823   2.986   6.830   3.494 -0.7117 -0.2905 -0.6207
   80MOL   H22628824   3.134   6.700   3.295  2.5202 -1.5430  0.4081
   80MOL   H22728825   2.892   6.578   3.283 -1.6109  0.9064  0.1088
   80MOL   H22828826   2.876   6.644   3.435 -0.4523 -0.3103 -0.4327
   80MOL   H22928827   2.907   6.876   3.307 -1.6989 -0.5002  1.1319
   80MOL   H23028828   2.916   6.709   3.066 -1.5426  0.3336 -0.6567
   80MOL   H23128829   2.886   6.884   3.083  2.2404  1.9113  0.7446
   80MOL   H23228830   3.046   6.825   3.123 -0.3277  2.9482  0.0615
   80MOL   H23328831   2.666   6.730   3.320 -1.9208  1.3633 -0.3342
   80MOL   H23428832   2.706   6.887   3.232 -3.2043 -0.7488  0.6130
   80MOL   H23528833   2.699   6.725   3.151 -2.3990  0.8137 -0.4009
   80MOL   C23628834   3.145   6.546   3.442 -0.6435  0.3164 -0.4762
   80MOL   C23728835   3.145   6.425   3.351  0.1748  0.5011 -0.5925
   80MOL   C23828836   3.177   6.298   3.423  0.4279  0.2050  0.1403
   80MOL   C23928837   3.062   6.237   3.512 -0.6983 -0.8498 -0.2312
   80MOL   C24028838   3.021   6.096   3.464 -0.1332  0.2968 -0.8019
   80MOL   C24128839   3.090   6.238   3.663 -0.1825 -0.6538 -0.4903
   80MOL   H24228840   3.090   6.528   3.534 -0.6666  0.3682 -0.4799
   80MOL   H24328841   3.244   6.570   3.481 -1.9677 -0.5155  3.6144
   80MOL   H24428842   3.054   6.401   3.296  1.0276 -1.4197 -1.2019
   80MOL   H24528843   3.272   6.308   3.476  0.1601  1.3091  0.4146
   80MOL   H24628844   3.206   6.216   3.357  1.4416 -1.4486  2.5460
   80MOL   H24728845   2.971   6.297   3.506  0.3634  0.8062 -0.0554
   80MOL   H24828846   2.989   6.084   3.361 -0.0350 -0.0025 -0.7965
   80MOL   H24928847   2.945   6.054   3.530 -1.8238  0.7840 -2.4055
   80MOL   H25028848   3.107   6.030   3.476 -0.5444  0.2895  2.7716
   80MOL   H25128849   3.178   6.180   3.693  0.2770  0.9921  1.4375
   80MOL   H25228850   3.015   6.194   3.728  1.2279 -0.2221  1.4966
   80MOL   H25328851   3.112   6.339   3.698  1.9146 -1.1701 -0.2457
   80MOL   C25428852   3.250   6.449   3.229 -0.2378  0.7968  0.0834
   80MOL   C25528853   3.216   6.365   3.109 -0.7516 -0.3049 -0.5839
   80MOL   C25628854   3.098   6.418   3.028  0.1040 -0.5361 -0.4471
   80MOL   C25728855   3.023   6.302   2.949 -0.0094 -0.2540  0.1190
   80MOL   C25828856   2.926   6.353   2.844  0.3610 -0.3970  0.1452
   80MOL   C25928857   2.947   6.205   3.047  0.7813 -0.1332  0.3111
   80MOL   H26028858   3.260   6.553   3.195 -0.8159  0.6917 -0.4195
   80MOL   H26128859   3.351   6.427   3.263 -0.6569 -0.0661  0.7734
   80MOL   H26228860   3.194   6.266   3.149 -0.4156  0.3602  1.2879
   80MOL   H26328861   3.129   6.498   2.962 -0.8805 -1.5925 -2.2410
   80MOL   H26428862   3.020   6.472   3.083  2.5523  1.5733  1.0551
   80MOL   H26528863   3.082   6.226   2.898 -1.4473 -0.7978 -0.7730
   80MOL   H26628864   2.891   6.266   2.788  0.8676 -0.5827  0.1075
   80MOL   H26728865   2.979   6.409   2.766 -0.6987  0.8589  0.3195
   80MOL   H26828866   2.851   6.413   2.895  0.6521 -0.3266  0.4938
   80MOL   H26928867   3.014   6.146   3.109 -2.1300 -1.6811  2.1131
   80MOL   H27028868   2.878   6.249   3.119 -0.2919  0.5662 -1.1315
   80MOL   H27128869   2.893   6.134   2.983 -0.3910 -1.3115  2.5311
   80MOL   C27228870   3.346   6.346   3.021  0.3550 -0.1788 -0.1690
   80MOL   C27328871   3.436   6.225   3.061 -0.1394  0.5052 -0.7725
   80MOL   C27428872   3.362   6.079   3.043  0.1507  0.1006 -0.3766
   80MOL   C27528873   3.416   5.969   3.126  0.6507  0.5601  0.4427
   80MOL   C27628874   3.370   5.825   3.077 -0.4251  0.0544 -0.4480
   80MOL   C27728875   3.358   5.984   3.265 -0.0403 -0.2804 -0.1733
   80MOL   H27828876   3.318   6.320   2.919 -2.0464 -1.2429  0.6979
   80MOL   H27928877   3.408   6.435   3.021 -1.1711  0.9204  0.9106
   80MOL   H28028878   3.452   6.238   3.167  0.7801 -1.9098 -0.5706
   80MOL   H28128879   3.372   6.051   2.938  0.7896  1.5958 -0.7301
   80MOL   H28228880   3.253   6.082   3.049  0.0638  0.0793 -1.7991
   80MOL   H28328881   3.525   5.968   3.126  0.6427  0.0770  0.7670
   80MOL   H28428882   3.418   5.817   2.980 -0.0418 -1.9468 -0.1065
   80MOL   H28528883   3.412   5.745   3.138  2.5312  1.6815 -0.2423
   80MOL   H28628884   3.261   5.827   3.072 -0.4523 -0.5142 -0.1115
   80MOL   H28728885   3.379   6.082   3.307  1.0659  1.6710 -4.9478
   80MOL   H28828886   3.253   5.956   3.261 -0.3208  0.8597 -1.3163
   80MOL   H28928887   3.402   5.906   3.327 -0.4776 -1.1109 -0.8906
   80MOL   C29028888   3.575   6.229   2.999 -0.4420  0.1668  0.3520
   80MOL   C29128889   3.687   6.273   3.100  0.3800 -0.2697  0.2823
   80MOL   C29228890   3.830   6.246   3.038 -0.2240  0.0265 -0.1348
   80MOL   C29328891   3.866   6.095   3.039 -0.6973 -0.4621 -0.2879
   80MOL   C29428892   3.986   6.063   2.939 -0.0199 -0.3836  0.1837
   80MOL   C29528893   3.909   6.045   3.177  0.3261 -0.0768  0.4737
   80MOL   H29628894   3.586   6.125   2.970 -4.3349  0.0260 -0.9163
   80MOL   H29728895   3.579   6.297   2.914 -1.3706 -0.5523 -0.2666
   80MOL   H29828896   3.678   6.206   3.185 -0.8390 -0.6654 -0.1487
   80MOL   H29928897   3.907   6.305   3.088 -1.4579 -0.7643  2.8106
   80MOL   H30028898   3.826   6.275   2.934 -2.2854  0.2221 -0.0190
   80MOL   H30128899   3.778   6.038   3.010  0.7184 -2.1658 -1.3558
   80MOL   H30228900   3.984   5.955   2.925 -0.1054 -0.1107 -2.0375
   80MOL   H30328901   4.087   6.103   2.942  0.0094 -0.3057 -1.4898
   80MOL   H30428902   3.961   6.100   2.840  1.4440 -1.4727 -0.6216
   80MOL   H30528903   3.830   6.056   3.252 -0.3808 -0.2503 -0.2449
   80MOL   H30628904   3.987   6.112   3.214 -0.8814  1.6987 -0.1440
   80MOL   H30728905   3.937   5.939   3.176  1.1509  0.1457 -1.6774
   80MOL   C30828906   3.681   6.420   3.139 -0.5332 -0.0232 -0.1873
   80MOL   C30928907   3.736   6.456   3.279  0.1055  0.2181 -0.3370
   80MOL   C31028908   3.756   6.603   3.302 -0.0475 -0.0048 -0.5407
   80MOL   C31128909   3.892   6.656   3.252 -0.1328 -0.3327  0.8582
   80MOL   C31228910   3.885   6.804   3.236 -0.3772  0.2579 -0.0994
   80MOL   C31328911   4.017   6.610   3.335 -0.1737 -0.0437  0.1336
   80MOL   H31428912   3.733   6.480   3.064  1.6838  1.1877  2.2253
   80MOL   H31528913   3.580   6.457   3.124 -0.1284  0.9594 -0.5496
   80MOL   H31628914   3.828   6.398   3.281 -0.7605 -1.1693  1.8351
   80MOL   H31728915   3.748   6.625   3.409 -0.9479 -0.6416 -0.4700
   80MOL   H31828916   3.676   6.655   3.250 -1.0389 -0.8028  0.1560
   80MOL   H31928917   3.905   6.607   3.156 -1.2035  0.6196  0.2218
   80MOL   H32028918   3.817   6.826   3.155  0.7352  0.4427 -0.9980
   80MOL   H32128919   3.981   6.850   3.211  0.2339 -0.4598  0.8967
   80MOL   H32228920   3.857   6.844   3.334 -2.6571  0.4691 -0.8173
   80MOL   H32328921   4.009   6.503   3.352  1.3165 -0.0930  0.5994
   80MOL   H32428922   4.105   6.620   3.271  0.6808 -0.2829  1.2409
   80MOL   H32528923   4.032   6.669   3.426  0.2913 -0.7678  0.5311
   80MOL   C32628924   3.631   6.412   3.387  0.0659 -0.1489 -0.3576
   80MOL   C32728925   3.692   6.379   3.526 -0.1129 -0.8956  0.3932
   80MOL   C32828926   3.780   6.254   3.517 -0.8008 -0.1362 -0.6514
   80MOL   C32928927   3.870   6.205   3.636 -0.9481 -0.4519 -0.5700
   80MOL   C33028928   3.921   6.067   3.609 -0.4205  0.3042 -0.4602
   80MOL   C33128929   3.993   6.300   3.660  0.4946  0.4143 -0.5342
   80MOL   H33228930   3.576   6.321   3.364  1.3627 -1.4411  1.5226
   80MOL   H33328931   3.555   6.489   3.399  0.4425  0.1370  0.2108
   80MOL   H33428932   3.751   6.468   3.546 -1.7506  0.2069  0.4426
   80MOL   H33528933   3.708   6.178   3.488 -2.8137  1.6319 -0.4105
   80MOL   H33628934   3.847   6.260   3.431 -0.4552  0.2984 -0.3593
   80MOL   H33728935   3.813   6.202   3.728 -0.8628  0.4447 -0.4918
   80MOL   H33828936   3.994   6.036   3.684  0.5498 -3.4181 -2.8043
   80MOL   H33928937   3.973   6.070   3.513  2.8845  0.6510  1.2539
   80MOL   H34028938   3.834   6.002   3.597 -1.1332  0.3202  3.9438
   80MOL   H34128939   4.059   6.277   3.744 -2.2041  0.2086  1.6193
   80MOL   H34228940   4.057   6.309   3.573 -0.8066  2.7283 -1.3031
   80MOL   H34328941   3.960   6.403   3.679 -1.4552 -0.0519 -1.3249
   80MOL   C34428942   3.583   6.380   3.639 -0.3660  0.5101  0.5564
   80MOL   C34528943   3.535   6.515   3.697 -0.3714 -0.1176 -0.7013
   80MOL   C34628944   3.434   6.515   3.809 -0.7064 -0.0622 -0.2851
   80MOL   C34728945   3.368   6.651   3.839 -0.2241  0.3012 -0.5818
   80MOL   C34828946   3.472   6.761   3.872 -0.3795 -0.4063  0.7600
   80MOL   C34928947   3.270   6.635   3.956 -0.1822 -0.8581  0.1203
   80MOL   H35028948   3.628   6.323   3.720 -0.7099 -0.9888 -0.3015
   80MOL   H35128949   3.498   6.329   3.593 -0.2862  0.9469 -0.0804
   80MOL   H35228950   3.472   6.548   3.615 -1.7060  0.0018  0.3491
   80MOL   H35328951   3.369   6.431   3.779 -1.1628 -0.1876  1.0411
   80MOL   H35428952   3.481   6.475   3.898  0.8937  0.9788 -0.6408
   80MOL   H35528953   3.322   6.680   3.745 -0.3143 -0.6446 -0.8311
   80MOL   H35628954   3.433   6.862   3.880  1.9122  0.5752 -0.1971
   80MOL   H35728955   3.513   6.737   3.970  0.6204  0.9550  0.6854
   80MOL   H35828956   3.551   6.764   3.798 -2.0258  0.7529 -1.0070
   80MOL   H35928957   3.202   6.551   3.938 -3.3012  1.5081  0.4547
   80MOL   H36028958   3.204   6.721   3.965  0.1309 -0.6671  0.5822
   80MOL   H36128959   3.328   6.606   4.044  1.0592 -0.3678 -0.5402
   80MOL   H36228960   3.614   6.589   3.698 -1.3079  0.8853 -0.2251
   81MOL     C128961   5.116   5.137   6.433 -0.2482 -0.0708 -0.5299
   81MOL     C228962   5.243   5.143   6.521  0.1922 -0.6924  0.8888
   81MOL     C328963   5.349   5.051   6.468 -0.3941  0.0225  0.5661
   81MOL     C428964   5.417   5.098   6.334 -0.5448 -0.0418  0.1702
   81MOL     C528965   5.516   4.993   6.271 -0.5980 -0.1353  0.4558
   81MOL     C628966   5.495   5.229   6.354  0.7794 -0.1069  0.7263
   81MOL     H728967   5.069   5.039   6.427 -0.2682 -0.1927  1.2345
   81MOL     H828968   5.035   5.200   6.470  0.6054  0.6731  0.0893
   81MOL     H928969   5.279   5.246   6.518  2.0673 -1.3213  0.8761
   81MOL    H1028970   5.431   5.036   6.538 -1.0477 -0.1341  1.3053
   81MOL    H1128971   5.307   4.951   6.457  1.1632 -0.6999  1.0690
   81MOL    H1228972   5.338   5.108   6.259  0.6026 -1.5214 -1.2598
   81MOL    H1328973   5.565   5.021   6.178 -1.1249  0.2756  0.3021
   81MOL    H1428974   5.599   4.984   6.341 -0.3260 -1.8680 -0.0717
   81MOL    H1528975   5.458   4.901   6.259  0.9918 -0.7894 -2.7283
   81MOL    H1628976   5.424   5.308   6.380  0.6284  0.4748 -1.3405
   81MOL    H1728977   5.539   5.258   6.259 -0.3509  1.0784  0.5457
   81MOL    H1828978   5.569   5.235   6.433 -1.1463 -0.1040  2.5784
   81MOL    H1928979   5.148   5.169   6.334  3.9661 -0.5387  0.6092
   81MOL    C2028980   5.215   5.111   6.667  0.6044 -0.9366  0.9711
   81MOL    C2128981   5.321   5.162   6.768  0.1091  0.1931 -0.0820
   81MOL    C2228982   5.307   5.312   6.788 -0.4147 -0.2674  0.3701
   81MOL    C2328983   5.429   5.390   6.835 -0.3891  0.6078  0.8388
   81MOL    C2428984   5.534   5.412   6.721 -0.1384  0.2810  0.6865
   81MOL    C2528985   5.389   5.518   6.901 -0.2568  0.0401  0.6049
   81MOL    H2628986   5.120   5.145   6.708 -0.9789 -3.0033 -0.8196
   81MOL    H2728987   5.193   5.005   6.668 -0.4426 -0.7992 -2.2291
   81MOL    H2828988   5.417   5.137   6.723 -0.2990 -1.3621 -0.1158
   81MOL    H2928989   5.229   5.334   6.861 -2.3481  1.5235 -2.1320
   81MOL    H3028990   5.268   5.354   6.696 -0.3253  3.3975  1.9145
   81MOL    H3128991   5.482   5.335   6.913 -0.8481  2.2630  2.3485
   81MOL    H3228992   5.624   5.446   6.773  1.1392 -0.4704 -0.9717
   81MOL    H3328993   5.504   5.481   6.643  0.3456 -0.4779 -0.1737
   81MOL    H3428994   5.552   5.318   6.668 -1.6769 -0.0128  0.6685
   81MOL    H3528995   5.478   5.570   6.936 -0.4702  0.0103  1.1886
   81MOL    H3628996   5.346   5.573   6.817 -1.8849 -1.9629  0.0871
   81MOL    H3728997   5.321   5.514   6.986  0.6811  1.5448  1.4568
   81MOL    C3828998   5.315   5.098   6.905  0.5688  0.0109 -0.8379
   81MOL    C3928999   5.350   4.945   6.903 -0.2186 -0.3998 -0.6628
   81MOL    C4029000   5.282   4.877   7.025  0.4880 -0.3368  0.4440
   81MOL    C4129001   5.150   4.812   6.993  0.4664 -0.3469  0.0632
   81MOL    C4229002   5.094   4.760   7.130  1.0761  0.3828 -0.1933
   81MOL    C4329003   5.174   4.683   6.902 -0.8066 -0.0076 -0.3853
   81MOL    H4429004   5.217   5.118   6.947  2.2065  0.2805  3.1706
   81MOL    H4529005   5.391   5.147   6.967  0.4364  0.4061 -0.9903
   81MOL    H4629006   5.307   4.899   6.814  0.0285 -2.4252  0.2386
   81MOL    H4729007   5.270   4.950   7.105 -2.1877  0.5661 -0.7335
   81MOL    H4829008   5.342   4.799   7.072 -0.3288 -1.2238  0.0505
   81MOL    H4929009   5.077   4.881   6.950  1.1289  0.1075 -0.3381
   81MOL    H5029010   5.169   4.706   7.188 -0.0655  0.1236  1.0777
   81MOL    H5129011   5.049   4.832   7.198 -1.9981 -0.1823 -1.5138
   81MOL    H5229012   5.018   4.687   7.100  0.6577  0.8868 -0.3665
   81MOL    H5329013   5.215   4.711   6.804 -0.3684 -0.8560 -0.4493
   81MOL    H5429014   5.089   4.626   6.864 -1.1711  1.2425 -1.4897
   81MOL    H5529015   5.239   4.609   6.949  0.3300  0.5465 -1.0494
   81MOL    C5629016   5.504   4.925   6.890 -0.8318  0.3399 -0.0811
   81MOL    C5729017   5.547   4.781   6.858 -0.1444  0.0578 -0.2846
   81MOL    C5829018   5.680   4.748   6.917  0.0888  0.0876  0.3546
   81MOL    C5929019   5.671   4.722   7.070 -0.1588 -0.4464  0.7031
   81MOL    C6029020   5.792   4.772   7.149  0.2708 -0.4966  0.4344
   81MOL    C6129021   5.632   4.584   7.100 -0.4751 -0.5273  0.3511
   81MOL    H6229022   5.544   4.966   6.983  1.4584 -1.2093 -0.3563
   81MOL    H6329023   5.533   4.987   6.806 -0.8910  1.1670  0.5037
   81MOL    H6429024   5.472   4.714   6.901 -0.6334  1.1743  0.6493
   81MOL    H6529025   5.727   4.664   6.866 -2.4401 -1.7519  0.9672
   81MOL    H6629026   5.748   4.832   6.903 -1.0394  0.9876  0.1762
   81MOL    H6729027   5.578   4.770   7.103 -0.4443  0.2847 -1.1504
   81MOL    H6829028   5.868   4.697   7.132 -0.4377 -0.8373 -1.2673
   81MOL    H6929029   5.775   4.774   7.257 -1.5054 -2.0347  0.2122
   81MOL    H7029030   5.825   4.873   7.123 -1.5383  0.1984  0.7479
   81MOL    H7129031   5.633   4.560   7.207 -1.9045 -0.1480  0.4574
   81MOL    H7229032   5.698   4.513   7.051 -2.8936 -2.6757  0.0607
   81MOL    H7329033   5.528   4.565   7.073 -0.0347 -2.5778  0.0334
   81MOL    C7429034   5.541   4.748   6.710  0.1627  0.7562 -0.0888
   81MOL    C7529035   5.566   4.598   6.653  0.0163 -0.0576  0.4937
   81MOL    C7629036   5.622   4.589   6.503 -0.0373  0.0842 -1.2262
   81MOL    C7729037   5.766   4.637   6.477  0.6731  0.2402 -0.1955
   81MOL    C7829038   5.802   4.662   6.333 -0.6220  0.1285  0.2286
   81MOL    C7929039   5.865   4.543   6.553 -0.1114  0.0424 -0.4706
   81MOL    H8029040   5.619   4.802   6.656  2.1326 -0.9384  0.9801
   81MOL    H8129041   5.446   4.786   6.671 -0.8879 -1.3227  0.3740
   81MOL    H8229042   5.638   4.550   6.719  1.7902 -1.0443 -2.0978
   81MOL    H8329043   5.620   4.484   6.477  0.3471  0.1646 -1.5793
   81MOL    H8429044   5.553   4.641   6.436 -1.5377 -0.8703 -0.4651
   81MOL    H8529045   5.776   4.739   6.515 -1.2120 -0.2889  1.8778
   81MOL    H8629046   5.819   4.564   6.288 -1.7252 -0.0201  0.1444
   81MOL    H8729047   5.887   4.730   6.323 -1.1223  0.5323 -1.3851
   81MOL    H8829048   5.726   4.698   6.265 -1.2716 -0.0185  0.8734
   81MOL    H8929049   5.965   4.569   6.518 -0.1505 -0.1963 -0.7643
   81MOL    H9029050   5.868   4.562   6.660 -0.4435  0.2257 -0.4919
   81MOL    H9129051   5.844   4.437   6.540 -1.4545  0.0180  1.8061
   81MOL    C9229052   5.436   4.513   6.665  0.1467 -1.1494  0.1368
   81MOL    C9329053   5.475   4.370   6.690 -0.4217 -0.4787 -0.6808
   81MOL    C9429054   5.492   4.330   6.849  0.2104  0.9745 -0.4826
   81MOL    C9529055   5.602   4.230   6.892 -0.3059 -0.1530  0.0790
   81MOL    C9629056   5.748   4.266   6.862  0.2976 -0.0218  0.0819
   81MOL    C9729057   5.601   4.207   7.042  0.3527  0.1505 -0.0344
   81MOL    H9829058   5.379   4.548   6.751  0.5473  0.4791 -0.2569
   81MOL    H9929059   5.373   4.531   6.578  0.4876 -2.0201 -0.2930
   81MOL   H10029060   5.565   4.337   6.638 -1.4198 -2.5645 -1.1375
   81MOL   H10129061   5.402   4.286   6.891  0.5452  0.0208 -0.7451
   81MOL   H10229062   5.497   4.420   6.910 -0.1777  1.4162 -1.0927
   81MOL   H10329063   5.588   4.131   6.847  3.4907 -2.1075  2.8273
   81MOL   H10429064   5.775   4.268   6.756  1.7602 -0.4497  0.4267
   81MOL   H10529065   5.817   4.201   6.916  0.5855 -0.3797 -0.7168
   81MOL   H10629066   5.778   4.367   6.892 -1.3555  0.5924 -0.2788
   81MOL   H10729067   5.660   4.124   7.079  0.8123  1.1998  1.6473
   81MOL   H10829068   5.506   4.156   7.055 -0.4370  1.2969 -1.1701
   81MOL   H10929069   5.619   4.289   7.112  2.1602  0.4363 -0.8225
   81MOL   C11029070   5.372   4.273   6.625 -0.7779 -0.3631  0.2263
   81MOL   C11129071   5.370   4.265   6.469 -0.2508 -0.2870  0.0334
   81MOL   C11229072   5.457   4.149   6.411 -0.6072 -0.2356 -0.4348
   81MOL   C11329073   5.509   4.153   6.268 -0.8737  0.2218  0.2884
   81MOL   C11429074   5.595   4.027   6.241 -0.1738 -0.0058  0.6066
   81MOL   C11529075   5.608   4.277   6.245  0.1256  0.8511 -0.0543
   81MOL   H11629076   5.273   4.297   6.663 -0.8603 -0.5006  0.0975
   81MOL   H11729077   5.388   4.172   6.662  1.6381 -0.5405 -1.2260
   81MOL   H11829078   5.421   4.356   6.437  0.3948 -0.0957  1.5307
   81MOL   H11929079   5.410   4.054   6.434 -1.0820 -0.3630 -1.8631
   81MOL   H12029080   5.547   4.154   6.473 -0.1364  0.3301 -1.1424
   81MOL   H12129081   5.433   4.168   6.192  0.1195 -0.3519 -0.8296
   81MOL   H12229082   5.680   4.024   6.309  0.1146 -0.8789  0.2176
   81MOL   H12329083   5.620   4.032   6.135 -0.3276  0.0684  0.5743
   81MOL   H12429084   5.540   3.933   6.256  1.9112 -1.0938  1.7655
   81MOL   H12529085   5.550   4.369   6.256 -0.5434  0.8395 -3.2287
   81MOL   H12629086   5.655   4.278   6.147  1.0672 -1.0422  0.3422
   81MOL   H12729087   5.688   4.283   6.320  0.9857  2.6711 -1.0921
   81MOL   C12829088   5.231   4.254   6.411 -0.4122  0.3663  0.0184
   81MOL   C12929089   5.161   4.383   6.363  0.7016 -0.2647  0.4284
   81MOL   C13029090   5.087   4.456   6.480  0.0558  0.1449  0.7131
   81MOL   C13129091   5.045   4.593   6.451  0.0753  0.5639 -0.4425
   81MOL   C13229092   4.943   4.634   6.563  0.4628 -0.2948 -0.2782
   81MOL   C13329093   5.167   4.686   6.464 -0.0180  0.4126  0.1917
   81MOL   H13429094   5.177   4.202   6.490 -0.0838 -1.8034 -1.1433
   81MOL   H13529095   5.232   4.181   6.330  0.7059 -0.6616  0.9282
   81MOL   H13629096   5.229   4.459   6.324 -1.9852  1.2902 -1.3928
   81MOL   H13729097   4.999   4.394   6.497  0.4877 -0.9421 -0.8785
   81MOL   H13829098   5.142   4.456   6.574 -0.1561  2.9731  0.8938
   81MOL   H13929099   4.988   4.606   6.359 -0.6556 -1.0836 -0.2277
   81MOL   H14029100   4.899   4.730   6.537  1.6754  0.7428  1.3727
   81MOL   H14129101   4.997   4.658   6.655 -0.8517  0.3383  0.3366
   81MOL   H14229102   4.862   4.563   6.577  1.6066 -1.6854 -0.4979
   81MOL   H14329103   5.251   4.654   6.402 -1.3508 -0.4996 -1.1812
   81MOL   H14429104   5.137   4.790   6.450 -1.3410 -0.0590 -0.5461
   81MOL   H14529105   5.209   4.689   6.564 -0.1290 -0.0616  0.2521
   81MOL   C14629106   5.062   4.347   6.246 -0.6121 -0.4605 -0.2229
   81MOL   C14729107   5.128   4.379   6.109 -0.0215 -0.1134  0.0730
   81MOL   C14829108   5.131   4.535   6.080 -0.3498  0.3241  0.0558
   81MOL   C14929109   5.243   4.589   5.982  0.4845  0.6888 -0.2567
   81MOL   C15029110   5.390   4.574   6.034  0.5507 -0.1735  0.5156
   81MOL   C15129111   5.234   4.537   5.840 -0.2616  0.4538 -0.0143
   81MOL   H15229112   4.974   4.409   6.259 -0.1935  0.1395 -0.2332
   81MOL   H15329113   5.029   4.243   6.250 -0.0707 -0.6949 -1.5357
   81MOL   H15429114   5.233   4.351   6.103  0.3859  0.8400  2.3081
   81MOL   H15529115   5.033   4.571   6.049 -0.2746 -0.0331 -0.6133
   81MOL   H15629116   5.146   4.593   6.170  0.5937 -1.2523  0.9339
   81MOL   H15729117   5.230   4.696   5.972  1.3443  0.7234 -1.0325
   81MOL   H15829118   5.399   4.468   6.057  1.8630 -1.0606 -3.7055
   81MOL   H15929119   5.386   4.625   6.130 -0.5386 -1.3848  1.1244
   81MOL   H16029120   5.473   4.605   5.971  0.8260 -0.0631  0.9313
   81MOL   H16129121   5.302   4.596   5.779 -0.9087  1.1066 -0.1002
   81MOL   H16229122   5.134   4.546   5.800  0.5414  1.7013 -1.7886
   81MOL   H16329123   5.261   4.431   5.837 -1.2914  0.1502  1.0665
   81MOL   C16429124   5.041   4.308   6.002 -0.3005  0.0655  0.3174
   81MOL   C16529125   5.078   4.159   5.977 -0.2337  1.1227 -0.4217
   81MOL   C16629126   4.963   4.097   5.887 -0.0917  0.3405  0.0348
   81MOL   C16729127   4.825   4.075   5.953  0.3401  0.0325 -0.3140
   81MOL   C16829128   4.718   4.015   5.851 -0.2847  0.1777  0.2943
   81MOL   C16929129   4.838   3.990   6.080 -0.3361  0.3328 -0.6985
   81MOL   H17029130   4.935   4.333   6.008  0.2398  2.9638 -1.0861
   81MOL   H17129131   5.055   4.361   5.908 -0.6212  0.3854  0.4514
   81MOL   H17229132   5.085   4.109   6.074 -0.0464  1.2500 -0.3707
   81MOL   H17329133   4.941   4.151   5.795 -2.0675 -0.6738 -0.1211
   81MOL   H17429134   4.994   4.000   5.849  0.4913  0.6568 -0.2960
   81MOL   H17529135   4.788   4.173   5.986 -0.1565  0.4319 -2.0435
   81MOL   H17629136   4.729   3.909   5.831  0.2675  0.0801  1.0793
   81MOL   H17729137   4.733   4.072   5.759  1.1944 -1.2298 -0.3610
   81MOL   H17829138   4.622   4.032   5.900  0.3427 -2.2700  2.4784
   81MOL   H17929139   4.888   4.053   6.153 -0.9908 -0.6445  0.6238
   81MOL   H18029140   4.895   3.900   6.059  2.3460  1.5964  0.9874
   81MOL   H18129141   4.739   3.965   6.118  0.9011 -1.3087  1.5020
   81MOL   C18229142   5.215   4.130   5.911  0.1250  0.0736 -0.8732
   81MOL   C18329143   5.288   3.994   5.892  0.2887 -0.3733  0.2340
   81MOL   C18429144   5.419   4.010   5.825  0.1141 -0.3443 -0.0264
   81MOL   C18529145   5.481   3.893   5.749 -0.5859 -0.8928 -0.7124
   81MOL   C18629146   5.405   3.872   5.613  1.0043  0.5182 -1.0672
   81MOL   C18729147   5.631   3.927   5.722  0.1747  0.8667 -0.3463
   81MOL   H18829148   5.297   4.199   5.930 -0.2057  0.3966 -0.6314
   81MOL   H18929149   5.213   4.165   5.808  2.0530 -0.9153 -1.2862
   81MOL   H19029150   5.219   3.947   5.822  0.1769 -1.3947  1.0087
   81MOL   H19129151   5.491   4.050   5.895 -2.5267 -0.2478  2.7524
   81MOL   H19229152   5.403   4.095   5.759 -1.7677 -1.9235 -1.6905
   81MOL   H19329153   5.471   3.800   5.804 -2.1291 -0.9694 -1.1082
   81MOL   H19429154   5.421   3.768   5.584  1.6436  0.2621  0.1670
   81MOL   H19529155   5.446   3.923   5.526  1.2560 -1.1015 -1.9264
   81MOL   H19629156   5.298   3.889   5.614  1.1054  1.1721  1.0568
   81MOL   H19729157   5.683   3.945   5.816 -0.5634  0.4841  0.1484
   81MOL   H19829158   5.648   4.010   5.654  1.0484 -0.8098 -2.2131
   81MOL   H19929159   5.671   3.841   5.668 -1.0993  1.9372 -3.0639
   81MOL   C20029160   5.297   3.897   6.012  0.1349 -0.1060  0.4391
   81MOL   C20129161   5.183   3.800   6.010 -0.0569  0.1898  0.4864
   81MOL   C20229162   5.147   3.745   6.152 -0.0886 -0.2888 -1.0476
   81MOL   C20329163   5.238   3.642   6.223  0.8432  0.3954 -0.0401
   81MOL   C20429164   5.377   3.694   6.254 -0.7585 -0.0716  0.5948
   81MOL   C20529165   5.178   3.580   6.351 -0.9081  0.4318 -0.3715
   81MOL   H20629166   5.283   3.959   6.100  0.9455 -0.8514  1.1085
   81MOL   H20729167   5.395   3.850   6.023 -0.6205 -1.6653  0.6645
   81MOL   H20829168   5.097   3.865   5.993 -0.7205 -0.3493  1.7014
   81MOL   H20929169   5.132   3.828   6.221  2.1083 -1.2881  0.6899
   81MOL   H21029170   5.048   3.706   6.133 -0.1230  0.2852 -2.0712
   81MOL   H21129171   5.239   3.556   6.157  0.3752  1.5588 -1.5899
   81MOL   H21229172   5.425   3.620   6.317  0.2313 -1.0495 -1.2561
   81MOL   H21329173   5.378   3.783   6.317  1.0650  0.0464  0.4415
   81MOL   H21429174   5.443   3.718   6.170 -0.6009  1.4281  1.1325
   81MOL   H21529175   5.074   3.556   6.331 -0.1582 -0.6618 -3.1548
   81MOL   H21629176   5.179   3.651   6.434  1.2598 -0.2776  0.2505
   81MOL   H21729177   5.226   3.489   6.386 -4.2298  0.1181  3.7282
   81MOL   C21829178   5.203   3.698   5.900 -0.5622  0.0309  0.3990
   81MOL   C21929179   5.082   3.623   5.858  0.0558 -0.0002 -0.1201
   81MOL   C22029180   5.124   3.487   5.794  0.4321  0.1075  0.3264
   81MOL   C22129181   5.191   3.382   5.886 -0.4824 -0.0779 -0.1156
   81MOL   C22229182   5.093   3.349   6.011  0.6398  0.6509 -0.6981
   81MOL   C22329183   5.216   3.247   5.820  0.6840  0.7617 -0.7672
   81MOL   H22429184   5.250   3.740   5.811 -0.9233  0.5908  0.4700
   81MOL   H22529185   5.283   3.631   5.930  0.6415  0.0464 -2.5873
   81MOL   H22629186   5.031   3.615   5.954  0.7541 -1.1243  0.1600
   81MOL   H22729187   5.034   3.442   5.753  0.5202  0.4968 -0.2870
   81MOL   H22829188   5.192   3.510   5.712 -0.0270  1.9400  0.4381
   81MOL   H22929189   5.285   3.429   5.916 -0.1698  0.2535 -1.6162
   81MOL   H23029190   5.076   3.434   6.078  1.2772 -0.5327  0.9984
   81MOL   H23129191   4.998   3.309   5.978  0.4439 -0.8548  1.5376
   81MOL   H23229192   5.149   3.275   6.068 -2.6329 -0.9140  0.6016
   81MOL   H23329193   5.130   3.185   5.795  0.2395  0.1182  2.1865
   81MOL   H23429194   5.262   3.258   5.722  2.2802  1.0622 -0.0001
   81MOL   H23529195   5.277   3.182   5.883 -0.2578 -0.5974 -1.2459
   81MOL   C23629196   4.983   3.696   5.766 -0.2807 -0.7179 -0.1143
   81MOL   C23729197   4.838   3.632   5.735 -0.3724 -0.2674 -0.4615
   81MOL   C23829198   4.765   3.696   5.612  1.3187  0.0359 -0.3142
   81MOL   C23929199   4.828   3.683   5.476 -0.1832  0.3226 -0.0057
   81MOL   C24029200   4.840   3.534   5.433  0.1010 -0.3621 -0.5386
   81MOL   C24129201   4.768   3.782   5.371  0.2316  0.1380 -0.3633
   81MOL   H24229202   5.027   3.726   5.670  0.9742 -1.6048  0.1746
   81MOL   H24329203   4.952   3.793   5.805  0.0208  0.0720 -1.7967
   81MOL   H24429204   4.847   3.527   5.708 -0.8824 -0.6028  0.6504
   81MOL   H24529205   4.759   3.801   5.640  0.1336  0.9603 -3.7942
   81MOL   H24629206   4.660   3.669   5.604  0.8206  1.8897 -0.3045
   81MOL   H24729207   4.934   3.703   5.493  0.5493 -3.9200  1.0736
   81MOL   H24829208   4.860   3.521   5.327  0.3345 -2.2167 -0.2907
   81MOL   H24929209   4.752   3.479   5.465 -0.0831  0.3053  0.1089
   81MOL   H25029210   4.927   3.485   5.477 -0.4035  0.4971  1.4730
   81MOL   H25129211   4.792   3.887   5.386 -2.1209  0.3371  2.4469
   81MOL   H25229212   4.660   3.772   5.363  0.2106  0.3886 -0.4048
   81MOL   H25329213   4.806   3.751   5.274  0.2666  0.8928 -0.5921
   81MOL   C25429214   4.751   3.632   5.867 -0.2213  0.1847  0.3471
   81MOL   C25529215   4.716   3.493   5.926 -0.0007  0.3242  0.4072
   81MOL   C25629216   4.667   3.492   6.073 -1.0315 -0.2518 -0.0838
   81MOL   C25729217   4.777   3.527   6.173 -0.1246  0.6112  0.3182
   81MOL   C25829218   4.787   3.426   6.289 -0.8570 -0.4324 -0.5119
   81MOL   C25929219   4.747   3.662   6.230  0.8407 -0.5330 -0.0478
   81MOL   H26029220   4.801   3.697   5.939  3.0299  0.7738 -2.3326
   81MOL   H26129221   4.654   3.675   5.840 -1.3484 -2.8632 -0.6785
   81MOL   H26229222   4.805   3.430   5.926  0.7219  1.3262  0.4557
   81MOL   H26329223   4.627   3.393   6.097  1.1121 -1.0314  0.3849
   81MOL   H26429224   4.575   3.551   6.076 -2.3875 -2.1887 -1.6155
   81MOL   H26529225   4.877   3.547   6.135 -0.4508  2.4600  0.3545
   81MOL   H26629226   4.826   3.330   6.256 -0.9428 -1.5281  2.4681
   81MOL   H26729227   4.688   3.411   6.332 -0.8828  1.2185  0.0356
   81MOL   H26829228   4.855   3.462   6.366 -1.8817 -0.3917  0.3868
   81MOL   H26929229   4.668   3.672   6.304  0.8039  2.8322 -0.4557
   81MOL   H27029230   4.838   3.690   6.283  1.0878 -0.9547 -0.2532
   81MOL   H27129231   4.728   3.730   6.146 -0.2475 -0.2677  0.4001
   81MOL   C27229232   4.603   3.438   5.841  0.2131 -0.2246  0.3334
   81MOL   C27329233   4.613   3.289   5.821 -0.2460 -0.4972 -0.1613
   81MOL   C27429234   4.479   3.219   5.794 -0.4341 -0.7834  0.3020
   81MOL   C27529235   4.378   3.199   5.915 -0.0008 -0.2325 -0.4204
   81MOL   C27629236   4.422   3.079   5.991  0.0508 -0.0240 -0.4174
   81MOL   C27729237   4.229   3.189   5.880 -0.4060  0.2429 -0.9066
   81MOL   H27829238   4.503   3.466   5.875  0.0753  0.7154 -0.8221
   81MOL   H27929239   4.587   3.484   5.744 -2.1637 -0.0871  0.7587
   81MOL   H28029240   4.648   3.254   5.918 -0.6166  0.1201  0.1951
   81MOL   H28129241   4.482   3.131   5.730  3.5647  0.9877 -2.1290
   81MOL   H28229242   4.436   3.299   5.733  0.0676 -1.8328 -1.4655
   81MOL   H28329243   4.392   3.293   5.969  0.2963 -0.4281 -0.1593
   81MOL   H28429244   4.343   3.069   6.065 -2.6531  0.8055 -3.0984
   81MOL   H28529245   4.428   2.988   5.931  0.4975 -0.6432  0.5563
   81MOL   H28629246   4.518   3.101   6.039  1.3101 -3.7041 -1.0594
   81MOL   H28729247   4.198   3.263   5.807  2.0475  1.2849 -0.9564
   81MOL   H28829248   4.209   3.091   5.837 -0.1953 -0.0166 -0.4194
   81MOL   H28929249   4.158   3.191   5.963  0.7698  3.5211  0.0832
   81MOL   C29029250   4.725   3.259   5.714  0.5964  0.1827 -0.4790
   81MOL   C29129251   4.777   3.109   5.717  0.5323 -0.2714  0.1610
   81MOL   C29229252   4.874   3.074   5.598 -0.3661 -0.2427 -0.2025
   81MOL   C29329253   4.822   3.103   5.457 -0.2585 -0.0142 -0.1620
   81MOL   C29429254   4.936   3.066   5.364 -0.3553  0.7770 -0.0898
   81MOL   C29529255   4.699   3.006   5.425 -0.4449 -0.0650  0.6442
   81MOL   H29629256   4.688   3.279   5.614 -0.4918 -1.5117 -0.4382
   81MOL   H29729257   4.798   3.338   5.730 -0.2655  0.6893  1.0143
   81MOL   H29829258   4.687   3.051   5.700  0.0972 -0.2126  2.1129
   81MOL   H29929259   4.926   2.979   5.606  0.9170  0.3893 -0.8314
   81MOL   H30029260   4.962   3.137   5.611 -0.7921  0.6696 -1.6398
   81MOL   H30129261   4.811   3.209   5.436 -0.3247  0.0804  0.3568
   81MOL   H30229262   4.952   2.958   5.364  2.1671  1.1173 -0.7981
   81MOL   H30329263   5.027   3.122   5.387  0.9780 -0.7402 -1.5455
   81MOL   H30429264   4.909   3.093   5.262  0.3025  1.1822 -0.1576
   81MOL   H30529265   4.610   3.019   5.487 -0.2671  0.4487  0.7863
   81MOL   H30629266   4.728   2.900   5.427  0.1728  0.0722 -0.6139
   81MOL   H30729267   4.671   3.030   5.323 -0.1591  2.0540  1.0541
   81MOL   C30829268   4.841   3.074   5.857  0.3856  0.6556  1.0157
   81MOL   C30929269   4.845   2.912   5.876 -0.4053  0.0257 -0.1298
   81MOL   C31029270   4.952   2.875   5.986 -0.6202  0.6348 -1.3356
   81MOL   C31129271   5.095   2.878   5.929 -0.5087 -0.2070  0.2295
   81MOL   C31229272   5.207   2.924   6.022  0.5838 -0.0723  0.2507
   81MOL   C31329273   5.124   2.742   5.875 -0.3105  0.3616  0.0695
   81MOL   H31429274   4.941   3.115   5.872  0.6447  0.2718  0.3682
   81MOL   H31529275   4.795   3.115   5.947  1.4846  1.3411  1.2701
   81MOL   H31629276   4.878   2.865   5.783 -0.7824  0.6429 -0.5788
   81MOL   H31729277   4.929   2.778   6.031 -1.6427  2.0095  1.2126
   81MOL   H31829278   4.948   2.942   6.072  1.2342 -1.3278  0.3454
   81MOL   H31929279   5.102   2.943   5.842  1.7680 -2.1586 -1.0871
   81MOL   H32029280   5.308   2.932   5.982  0.1963  2.1785 -0.3602
   81MOL   H32129281   5.188   2.856   6.104 -0.7505  1.7949  1.5106
   81MOL   H32229282   5.185   3.021   6.068  0.4165  1.0243 -2.0618
   81MOL   H32329283   5.222   2.748   5.827 -1.7387 -1.9709 -3.3740
   81MOL   H32429284   5.119   2.657   5.943  1.6478  1.2907  1.4170
   81MOL   H32529285   5.056   2.719   5.793 -0.4397 -0.4512  0.3955
   81MOL   C32629286   4.707   2.867   5.918  0.5450 -0.2672 -0.2225
   81MOL   C32729287   4.683   2.709   5.940 -0.4351  0.7040 -0.5641
   81MOL   C32829288   4.747   2.621   5.832 -0.0380 -0.2403  0.4086
   81MOL   C32929289   4.693   2.639   5.693  0.6702 -0.0901  0.1697
   81MOL   C33029290   4.799   2.673   5.584 -0.2169 -0.3032  0.2697
   81MOL   C33129291   4.615   2.516   5.647 -0.0580 -0.7232  0.1507
   81MOL   H33229292   4.641   2.899   5.838 -1.6228 -1.6753  0.9370
   81MOL   H33329293   4.674   2.925   6.004 -2.0658  0.9878 -1.9916
   81MOL   H33429294   4.738   2.683   6.030  1.7704  0.5532 -1.9128
   81MOL   H33529295   4.851   2.655   5.826 -0.5700  1.1162 -1.8997
   81MOL   H33629296   4.747   2.517   5.862 -1.2880  0.1262  1.7571
   81MOL   H33729297   4.620   2.721   5.695  0.0796 -0.6038 -0.0207
   81MOL   H33829298   4.886   2.609   5.592  0.7282  0.5801 -2.3581
   81MOL   H33929299   4.827   2.778   5.587 -2.1589  0.2337  0.6726
   81MOL   H34029300   4.757   2.659   5.484  0.3487  1.1179 -0.1715
   81MOL   H34129301   4.684   2.431   5.650  0.6208 -0.2313 -1.0537
   81MOL   H34229302   4.530   2.497   5.711 -1.4726  2.3900 -0.7202
   81MOL   H34329303   4.584   2.516   5.542 -1.0305 -0.6283  0.4419
   81MOL   C34429304   4.537   2.671   5.970 -0.6502 -0.0202  0.2347
   81MOL   C34529305   4.485   2.724   6.099 -0.3093 -0.2315  0.2064
   81MOL   C34629306   4.331   2.719   6.102 -0.1061 -0.6474 -0.6683
   81MOL   C34729307   4.266   2.721   6.245  0.3408  0.0181  0.9862
   81MOL   C34829308   4.116   2.670   6.252 -0.0761  0.4152  0.6819
   81MOL   C34929309   4.274   2.859   6.308  0.1868  0.1085  0.2797
   81MOL   H35029310   4.528   2.563   5.984  1.3326 -0.2322  0.0546
   81MOL   H35129311   4.482   2.687   5.877  0.7953  1.3407 -0.4071
   81MOL   H35229312   4.508   2.830   6.114  2.0735 -0.5462 -0.9882
   81MOL   H35329313   4.291   2.794   6.035  0.2257  0.3292  0.2063
   81MOL   H35429314   4.311   2.619   6.063  1.1949 -0.9505 -0.6056
   81MOL   H35529315   4.322   2.654   6.310 -0.1208 -0.9481  0.4052
   81MOL   H35629316   4.069   2.703   6.159 -1.9582 -1.5508  0.9128
   81MOL   H35729317   4.120   2.562   6.259 -0.4617  0.3863  0.4806
   81MOL   H35829318   4.065   2.713   6.338  2.0954  2.0080  1.2030
   81MOL   H35929319   4.232   2.930   6.237  2.3072  0.4080 -0.7035
   81MOL   H36029320   4.376   2.882   6.338  0.2817 -0.4431  0.3852
   81MOL   H36129321   4.208   2.865   6.395 -0.8733  0.6133 -0.5428
   81MOL   H36229322   4.531   2.664   6.177  1.3701 -0.3662 -0.8732
   82MOL     C129323   0.318   3.120   4.940 -0.0518 -0.4034 -0.7399
   82MOL     C229324   0.447   3.130   5.020  0.4736  0.2447 -0.0421
   82MOL     C329325   0.420   3.119   5.172  0.4698  0.0052  0.8514
   82MOL     C429326   0.541   3.113   5.266 -0.7762  0.3333 -0.1085
   82MOL     C529327   0.626   2.984   5.241 -0.3796  0.4934  0.7024
   82MOL     C629328   0.486   3.115   5.412 -0.0592  0.1559 -0.0772
   82MOL     H729329   0.264   3.029   4.964 -0.4299  0.5985  2.4419
   82MOL     H829330   0.255   3.208   4.953  0.6034 -0.3372  2.4102
   82MOL     H929331   0.507   3.043   4.990  2.5423  0.7394  2.4020
   82MOL    H1029332   0.342   3.190   5.201 -0.2499 -0.1302 -0.7067
   82MOL    H1129333   0.366   3.024   5.180  0.4781 -0.1518 -0.8735
   82MOL    H1229334   0.598   3.206   5.258 -3.7087  2.2302  0.2526
   82MOL    H1329335   0.681   2.979   5.147  1.1895 -0.1752  1.6389
   82MOL    H1429336   0.705   2.967   5.314  0.8474 -3.4291 -1.3919
   82MOL    H1529337   0.565   2.893   5.237  1.6935 -0.9579  1.1965
   82MOL    H1629338   0.401   3.048   5.422  0.6008 -0.8568 -1.0416
   82MOL    H1729339   0.449   3.217   5.418 -1.9153 -0.6188  2.1137
   82MOL    H1829340   0.574   3.094   5.472 -0.7774 -2.1297  0.2380
   82MOL    H1929341   0.330   3.112   4.832  2.5084 -0.5333 -0.4794
   82MOL    C2029342   0.522   3.261   4.988 -0.8381  0.3122 -0.0514
   82MOL    C2129343   0.581   3.285   4.842  0.0996 -0.9166  0.8614
   82MOL    C2229344   0.661   3.418   4.834 -0.5904 -0.4153  0.1920
   82MOL    C2329345   0.575   3.545   4.876  0.1322 -0.0942  0.0282
   82MOL    C2429346   0.663   3.663   4.904 -0.5817 -0.4088 -0.1447
   82MOL    C2529347   0.476   3.581   4.772  0.2064  0.2503 -0.5091
   82MOL    H2629348   0.459   3.343   5.024  0.0639  0.8952  0.2174
   82MOL    H2729349   0.612   3.273   5.048  0.8017 -0.2521 -2.3331
   82MOL    H2829350   0.500   3.286   4.770  1.0667 -2.6270 -0.2727
   82MOL    H2929351   0.693   3.435   4.732 -1.1560 -1.4251 -0.1663
   82MOL    H3029352   0.754   3.407   4.890  0.3778 -2.6647 -1.7633
   82MOL    H3129353   0.516   3.525   4.965 -1.5259  3.0222 -0.2917
   82MOL    H3229354   0.696   3.700   4.806  1.8556 -0.0429  0.7717
   82MOL    H3329355   0.751   3.632   4.960  0.0100  0.0601 -0.7899
   82MOL    H3429356   0.620   3.748   4.956  1.2065  1.2808 -1.3213
   82MOL    H3529357   0.410   3.656   4.816 -0.5255 -1.4668  1.4037
   82MOL    H3629358   0.511   3.606   4.672 -1.3072 -1.0002 -1.3629
   82MOL    H3729359   0.410   3.498   4.748  2.5908 -0.9946 -3.0637
   82MOL    C3829360   0.670   3.176   4.785  0.1995  0.4805 -0.0318
   82MOL    C3929361   0.688   3.179   4.632 -0.1327 -0.0376  0.1422
   82MOL    C4029362   0.577   3.107   4.557 -0.2778  0.2492 -0.6526
   82MOL    C4129363   0.549   3.170   4.426 -0.0938 -0.2537  0.1660
   82MOL    C4229364   0.482   3.315   4.426  0.2931  0.3180 -0.0310
   82MOL    C4329365   0.474   3.069   4.339 -0.2467  0.8923  0.5995
   82MOL    H4429366   0.643   3.077   4.823  2.0613  0.9417  2.5926
   82MOL    H4529367   0.767   3.173   4.834  0.0749 -0.1114  0.1855
   82MOL    H4629368   0.695   3.283   4.599 -3.1167  0.6154  1.4565
   82MOL    H4729369   0.485   3.111   4.615  0.6194  1.9159  0.7035
   82MOL    H4829370   0.595   3.000   4.559 -1.0723  0.1127 -0.3922
   82MOL    H4929371   0.642   3.189   4.374  0.3452  0.9460  1.3534
   82MOL    H5029372   0.388   3.318   4.480  0.6050  0.3078  0.5082
   82MOL    H5129373   0.551   3.384   4.475  1.5521  0.3612 -1.7848
   82MOL    H5229374   0.480   3.350   4.322 -0.4091 -1.8478 -0.7659
   82MOL    H5329375   0.466   3.101   4.235  0.8293 -0.7707 -0.0135
   82MOL    H5429376   0.378   3.039   4.382 -0.6278  0.4294 -0.5441
   82MOL    H5529377   0.527   2.974   4.329 -2.2102 -0.4193  2.3196
   82MOL    C5629378   0.827   3.119   4.595  0.1573 -0.6132 -0.2167
   82MOL    C5729379   0.951   3.210   4.596 -0.7792  0.1602 -0.1149
   82MOL    C5829380   0.956   3.317   4.477 -0.0381 -0.1744  0.4548
   82MOL    C5929381   1.030   3.445   4.511  0.3987  0.0416 -0.3414
   82MOL    C6029382   0.941   3.538   4.598 -0.3092 -0.6650 -0.0571
   82MOL    C6129383   1.088   3.516   4.391 -0.1391 -0.4043  0.6768
   82MOL    H6229384   0.835   3.075   4.496 -0.1136 -0.5634 -0.2617
   82MOL    H6329385   0.836   3.038   4.667  2.2361 -0.5299 -0.3538
   82MOL    H6429386   0.939   3.265   4.689  1.1357  0.2368  0.0989
   82MOL    H6529387   1.013   3.273   4.395 -0.6454  2.2265 -1.2789
   82MOL    H6629388   0.855   3.336   4.442  0.6758  1.8527 -0.5623
   82MOL    H6729389   1.116   3.414   4.570  0.9811  0.7868 -0.7907
   82MOL    H6829390   0.905   3.491   4.690  0.1495  0.1347  0.5367
   82MOL    H6929391   0.849   3.564   4.546  0.1507  0.6648 -0.2050
   82MOL    H7029392   0.999   3.625   4.630  0.1480  0.6302 -4.2145
   82MOL    H7129393   1.014   3.555   4.321 -0.2265  0.0565  1.0201
   82MOL    H7229394   1.164   3.456   4.342 -0.1220 -0.4501  0.7589
   82MOL    H7329395   1.127   3.609   4.432  0.0198 -0.4077  0.5344
   82MOL    C7429396   1.074   3.117   4.605  0.7568  0.6635  0.5665
   82MOL    C7529397   1.095   3.055   4.751 -0.2916 -0.8294  0.2696
   82MOL    C7629398   1.207   3.123   4.826 -0.2431  0.4822 -0.0331
   82MOL    C7729399   1.194   3.268   4.883 -0.4467  0.6849 -1.0674
   82MOL    C7829400   1.329   3.327   4.911 -0.6212 -0.0463 -0.4344
   82MOL    C7929401   1.091   3.276   4.997  0.1323 -0.1777  0.0401
   82MOL    H8029402   1.159   3.183   4.587  1.3569 -0.5175 -1.0193
   82MOL    H8129403   1.091   3.046   4.525 -0.5682  1.5037 -0.4694
   82MOL    H8229404   1.008   3.079   4.813 -0.9527 -1.8346 -0.2485
   82MOL    H8329405   1.229   3.072   4.920 -1.3256  0.4764  0.2170
   82MOL    H8429406   1.300   3.119   4.768  0.0273 -1.3950  0.5119
   82MOL    H8529407   1.152   3.327   4.802 -3.1280 -0.0918 -0.2915
   82MOL    H8629408   1.366   3.291   5.007 -1.2405  0.8314  0.1414
   82MOL    H8729409   1.322   3.436   4.908  1.7720  0.1527  0.2198
   82MOL    H8829410   1.404   3.302   4.836  0.1787  0.7294  0.0979
   82MOL    H8929411   1.071   3.376   5.035  0.8903 -0.6624  1.7822
   82MOL    H9029412   0.996   3.240   4.957  0.9262 -2.4761  0.1578
   82MOL    H9129413   1.122   3.215   5.082  0.1407 -1.8196 -1.1176
   82MOL    C9229414   1.125   2.908   4.744  0.1713  0.4107  0.4016
   82MOL    C9329415   1.116   2.821   4.871 -0.8689  0.4444 -0.3477
   82MOL    C9429416   0.978   2.797   4.915 -0.2748  0.4063 -0.4042
   82MOL    C9529417   0.946   2.799   5.067 -0.1878 -0.3584 -0.2311
   82MOL    C9629418   0.953   2.935   5.134 -0.2734  0.3775 -0.1977
   82MOL    C9729419   0.815   2.721   5.099  0.8111  0.2335  0.0492
   82MOL    H9829420   1.066   2.862   4.665 -0.9463  3.2153 -0.4699
   82MOL    H9929421   1.228   2.890   4.713  0.8940  3.4748  0.8860
   82MOL   H10029422   1.171   2.871   4.950  2.9007 -2.8866 -0.6741
   82MOL   H10129423   0.940   2.705   4.872 -2.0729  1.0476 -0.2595
   82MOL   H10229424   0.918   2.872   4.863  0.7652  1.2537 -0.4019
   82MOL   H10329425   1.013   2.733   5.121  0.9109  1.5941  0.8638
   82MOL   H10429426   1.047   2.989   5.137 -0.8477  1.3811 -0.0300
   82MOL   H10529427   0.918   2.928   5.237 -2.0871  0.0272 -0.8190
   82MOL   H10629428   0.895   3.013   5.085 -2.0563 -1.4436 -1.0584
   82MOL   H10729429   0.837   2.626   5.051  0.7756  0.5001 -0.4973
   82MOL   H10829430   0.726   2.762   5.051 -1.0629 -3.1442  0.5164
   82MOL   H10929431   0.794   2.695   5.202  0.0491  0.5727 -0.0210
   82MOL   C11029432   1.198   2.682   4.842  0.0255 -0.2429 -0.2664
   82MOL   C11129433   1.269   2.612   4.961 -0.3823  0.3380 -0.2212
   82MOL   C11229434   1.312   2.465   4.923 -0.8415 -0.5987  0.4586
   82MOL   C11329435   1.190   2.367   4.899  0.2082  0.5165  0.2242
   82MOL   C11429436   1.065   2.384   4.978 -0.3326  0.3216  0.4650
   82MOL   C11529437   1.258   2.223   4.929 -0.3897 -0.1111  0.6237
   82MOL   H11629438   1.262   2.695   4.755 -1.5252  1.1825 -1.2498
   82MOL   H11729439   1.122   2.617   4.798  0.5474 -0.4480 -0.8663
   82MOL   H11829440   1.199   2.609   5.045  0.5158 -1.0603  0.5032
   82MOL   H11929441   1.378   2.429   5.002 -1.9476 -2.6048  0.4945
   82MOL   H12029442   1.377   2.479   4.836 -1.8528 -0.1673 -0.2304
   82MOL   H12129443   1.161   2.364   4.794 -0.7779 -2.0814  0.5189
   82MOL   H12229444   1.017   2.476   4.943 -3.5921 -0.7104  2.0247
   82MOL   H12329445   1.085   2.396   5.084  1.9019 -2.4111  0.3872
   82MOL   H12429446   0.986   2.310   4.967 -2.0152  1.9350  1.2700
   82MOL   H12529447   1.278   2.207   5.035  0.1190  1.3796  0.7633
   82MOL   H12629448   1.347   2.204   4.868  0.9828  1.1763  2.1866
   82MOL   H12729449   1.188   2.142   4.906  0.2778 -1.1551  2.1862
   82MOL   C12829450   1.396   2.700   4.984 -0.2149 -0.5909 -0.6339
   82MOL   C12929451   1.441   2.685   5.133  0.0003 -0.5292  0.2138
   82MOL   C13029452   1.350   2.769   5.232  0.1176  0.1517  0.4806
   82MOL   C13129453   1.351   2.724   5.380 -0.4885  0.2254  0.6844
   82MOL   C13229454   1.295   2.832   5.471 -0.1312 -0.6038 -0.2496
   82MOL   C13329455   1.275   2.596   5.387 -0.3176 -0.1183  0.9962
   82MOL   H13429456   1.383   2.806   4.962  1.7937  0.4274  2.8108
   82MOL   H13529457   1.474   2.662   4.918  1.5020 -0.4837  1.2773
   82MOL   H13629458   1.425   2.579   5.155 -1.3969 -0.5476 -0.8420
   82MOL   H13729459   1.388   2.871   5.230 -0.6931  0.4557  0.5948
   82MOL   H13829460   1.247   2.777   5.198 -0.0320  2.4696  1.3594
   82MOL   H13929461   1.447   2.695   5.422 -0.8609  0.3005  1.5901
   82MOL   H14029462   1.215   2.894   5.432  1.5557  0.9392 -1.3410
   82MOL   H14129463   1.381   2.884   5.513  0.2077  0.7647 -2.5391
   82MOL   H14229464   1.258   2.792   5.566 -1.2012 -2.7086 -1.5106
   82MOL   H14329465   1.233   2.571   5.484 -1.2244 -0.3672  0.5560
   82MOL   H14429466   1.190   2.605   5.319  1.1776  0.9861 -0.7738
   82MOL   H14529467   1.340   2.512   5.364 -0.0549  0.3961 -0.1866
   82MOL   C14629468   1.586   2.744   5.163  0.1379 -0.1575  0.0078
   82MOL   C14729469   1.700   2.674   5.096  0.7057 -0.2876  0.2365
   82MOL   C14829470   1.713   2.517   5.131 -0.0165 -0.1207 -0.1053
   82MOL   C14929471   1.780   2.428   5.026  0.0845 -0.2777  0.6613
   82MOL   C15029472   1.895   2.342   5.078 -0.3031  0.7659  0.3554
   82MOL   C15129473   1.677   2.358   4.936 -0.8515 -0.0790  0.0931
   82MOL   H15229474   1.602   2.742   5.271  0.0969  0.6446  0.0323
   82MOL   H15329475   1.590   2.847   5.128 -0.5541 -0.6129 -1.4218
   82MOL   H15429476   1.673   2.679   4.990 -0.6098 -0.9771  0.5219
   82MOL   H15529477   1.773   2.506   5.222 -1.1743  0.5133  0.7490
   82MOL   H15629478   1.617   2.470   5.151 -0.9252 -0.0765 -4.0162
   82MOL   H15729479   1.817   2.498   4.951 -1.7575  0.5366  0.4788
   82MOL   H15829480   1.921   2.275   4.996 -0.4060  1.1369  0.0177
   82MOL   H15929481   1.878   2.285   5.169  0.7799 -0.7260 -0.3559
   82MOL   H16029482   1.984   2.405   5.084 -0.9451  1.7010  0.0635
   82MOL   H16129483   1.731   2.299   4.862 -0.3467 -2.1800  2.0744
   82MOL   H16229484   1.610   2.417   4.874  0.4242  1.5602  0.2237
   82MOL   H16329485   1.616   2.290   4.995 -1.0569 -0.0566 -0.0947
   82MOL   C16429486   1.835   2.740   5.107 -0.1044 -0.4335  0.4734
   82MOL   C16529487   1.849   2.879   5.039  0.6236  0.5604  0.1857
   82MOL   C16629488   1.907   2.993   5.132 -0.1183  0.3519 -0.1270
   82MOL   C16729489   1.802   3.044   5.235 -0.2153 -0.2079  0.2698
   82MOL   C16829490   1.870   3.126   5.337  0.0615  0.1870 -0.6262
   82MOL   C16929491   1.710   3.145   5.164  0.3140  0.7020 -0.6500
   82MOL   H17029492   1.871   2.747   5.210 -1.6546 -2.4490  1.1901
   82MOL   H17129493   1.918   2.677   5.074  1.4097  0.9241  1.6243
   82MOL   H17229494   1.756   2.924   5.004  0.7286 -1.0851 -2.3093
   82MOL   H17329495   1.991   2.944   5.182 -0.1691 -0.1050 -0.4887
   82MOL   H17429496   1.945   3.076   5.073  0.9706 -1.5960 -2.2025
   82MOL   H17529497   1.749   2.962   5.284 -1.4584 -0.7864 -1.9754
   82MOL   H17629498   1.932   3.205   5.295  3.2962 -1.8854  0.0270
   82MOL   H17729499   1.950   3.065   5.379 -0.1446 -1.2580 -2.2547
   82MOL   H17829500   1.812   3.163   5.421 -1.1422 -0.1516 -1.3041
   82MOL   H17929501   1.640   3.099   5.093 -1.0080  0.5192  0.7497
   82MOL   H18029502   1.769   3.216   5.105  0.2291 -0.9525 -2.8216
   82MOL   H18129503   1.645   3.194   5.236 -0.7945 -0.1147 -1.0727
   82MOL   C18229504   1.945   2.872   4.913 -0.3991  0.5838  0.8042
   82MOL   C18329505   1.894   2.817   4.777  0.0351 -0.2727  0.4399
   82MOL   C18429506   1.785   2.915   4.718 -0.0328 -0.0562 -0.4969
   82MOL   C18529507   1.638   2.867   4.741 -0.5526 -0.7869  0.2838
   82MOL   C18629508   1.541   2.989   4.734 -0.5140  0.4227 -0.3090
   82MOL   C18729509   1.601   2.757   4.638  0.8540  0.3733  0.3224
   82MOL   H18829510   2.033   2.817   4.947 -0.5839  0.1068  0.5070
   82MOL   H18929511   1.972   2.975   4.890 -0.1255 -0.0347 -1.7837
   82MOL   H19029512   1.861   2.715   4.795 -0.2405 -0.0516  1.2210
   82MOL   H19129513   1.820   2.935   4.617  1.2127  1.3531  0.1866
   82MOL   H19229514   1.793   3.010   4.772  1.4400 -1.6712  2.2804
   82MOL   H19329515   1.632   2.839   4.846  0.4142  0.2548  0.6315
   82MOL   H19429516   1.577   3.057   4.812  1.5728 -1.7604  0.7016
   82MOL   H19529517   1.442   2.959   4.768  0.7219 -2.7114  0.7175
   82MOL   H19629518   1.536   3.037   4.637  2.8391  0.9155 -0.3116
   82MOL   H19729519   1.658   2.666   4.659  0.2234  0.0708  0.7352
   82MOL   H19829520   1.626   2.793   4.538 -0.1690 -1.0708 -0.4741
   82MOL   H19929521   1.493   2.741   4.633  0.9269 -0.9913  2.3950
   82MOL   C20029522   2.008   2.807   4.679  0.4887  0.8796 -0.3708
   82MOL   C20129523   1.978   2.714   4.559 -0.4431  0.4608 -0.0453
   82MOL   C20229524   1.994   2.568   4.597  0.2883  0.1771 -0.3761
   82MOL   C20329525   2.139   2.523   4.620 -0.3433  0.5931 -0.3799
   82MOL   C20429526   2.176   2.507   4.767 -0.4208  0.3250  0.4664
   82MOL   C20529527   2.169   2.398   4.536 -0.1016 -0.3399  0.0480
   82MOL   H20629528   2.103   2.775   4.723  0.6483 -0.7072 -1.8331
   82MOL   H20729529   2.016   2.910   4.645 -2.7426  1.7995  1.4214
   82MOL   H20829530   1.870   2.718   4.543 -0.4602  0.4131  0.0592
   82MOL   H20929531   1.929   2.529   4.675 -0.8318 -0.3350 -1.5622
   82MOL   H21029532   1.954   2.503   4.520  0.6379  1.8191 -1.9902
   82MOL   H21129533   2.198   2.604   4.578 -1.1824  0.1958 -2.3427
   82MOL   H21229534   2.171   2.606   4.812 -0.3401  1.3309 -1.6552
   82MOL   H21329535   2.279   2.475   4.784 -0.1679 -0.4011 -2.1896
   82MOL   H21429536   2.099   2.448   4.817 -2.4158  2.4231 -0.0745
   82MOL   H21529537   2.274   2.370   4.533 -0.3208 -1.5263  2.2312
   82MOL   H21629538   2.127   2.389   4.436 -1.6543  1.2321  0.5302
   82MOL   H21729539   2.122   2.310   4.580 -3.1155  0.3182 -1.7369
   82MOL   C21829540   2.040   2.765   4.428 -0.2259 -0.0957  0.1362
   82MOL   C21929541   1.962   2.773   4.290  0.0621 -0.5644 -1.0493
   82MOL   C22029542   1.855   2.883   4.306  0.3581 -0.4308 -0.1307
   82MOL   C22129543   1.898   3.031   4.344  0.2158  0.1444 -0.3495
   82MOL   C22229544   1.995   3.084   4.240 -0.2740 -0.4733 -0.0175
   82MOL   C22329545   1.773   3.119   4.355 -0.0989 -0.3957  0.0896
   82MOL   H22429546   2.104   2.852   4.432 -0.9327  0.4826 -0.8481
   82MOL   H22529547   2.115   2.694   4.392  0.6099  0.9241 -0.1377
   82MOL   H22629548   2.034   2.806   4.215  1.6501 -2.6859 -0.4843
   82MOL   H22729549   1.794   2.884   4.216  1.5037  0.2994 -0.9053
   82MOL   H22829550   1.780   2.847   4.377 -2.2610 -0.5778 -2.8547
   82MOL   H22929551   1.937   3.044   4.445  0.9511 -0.0192 -0.6125
   82MOL   H23029552   2.005   3.192   4.239  0.1586 -0.4985  0.9883
   82MOL   H23129553   2.095   3.048   4.264  0.7892  1.3801 -1.5181
   82MOL   H23229554   1.960   3.040   4.146 -0.6629 -1.2832  0.5017
   82MOL   H23329555   1.686   3.064   4.390  0.6415 -2.7427 -1.6431
   82MOL   H23429556   1.787   3.200   4.426  0.0608  0.5023 -0.9630
   82MOL   H23529557   1.734   3.167   4.265 -0.9472  0.9785  1.1873
   82MOL   C23629558   1.911   2.632   4.246  0.4339  0.4272 -0.7924
   82MOL   C23729559   1.851   2.640   4.102 -0.0265 -0.2701 -0.3329
   82MOL   C23829560   1.802   2.499   4.068  0.5680 -0.0299 -0.1350
   82MOL   C23929561   1.653   2.472   4.111 -0.7566  0.1183  1.1114
   82MOL   C24029562   1.549   2.564   4.045 -0.3294  0.0650 -0.0620
   82MOL   C24129563   1.615   2.320   4.092 -0.2197  0.2844 -0.8829
   82MOL   H24229564   1.846   2.587   4.321 -2.8456  1.7950 -2.6929
   82MOL   H24329565   1.995   2.564   4.232 -0.1357 -0.5231  0.3306
   82MOL   H24429566   1.759   2.699   4.108  0.1947 -0.1933  3.3251
   82MOL   H24529567   1.872   2.426   4.108 -1.5658 -0.8745  2.1722
   82MOL   H24629568   1.803   2.475   3.962  0.3303 -0.2500 -0.0866
   82MOL   H24729569   1.643   2.498   4.216 -0.5337  0.0991  1.1393
   82MOL   H24829570   1.564   2.562   3.937 -0.4973  1.1609 -0.1093
   82MOL   H24929571   1.563   2.670   4.067 -0.1865 -0.1667  1.0017
   82MOL   H25029572   1.448   2.537   4.075  0.4293 -2.8282  0.0900
   82MOL   H25129573   1.516   2.296   4.131 -0.7010  1.7268 -1.1851
   82MOL   H25229574   1.689   2.257   4.140  0.6038  0.0676 -2.4086
   82MOL   H25329575   1.620   2.289   3.988 -1.1973 -1.7286 -0.3476
   82MOL   C25429576   1.948   2.672   3.987  0.3887  0.0046  0.9553
   82MOL   C25529577   1.878   2.735   3.859  0.4569 -0.9574 -0.1781
   82MOL   C25629578   1.825   2.875   3.891  0.1123  0.2047 -0.7867
   82MOL   C25729579   1.733   2.937   3.783  0.6252  0.0587 -0.2486
   82MOL   C25829580   1.728   3.093   3.803  0.0494  0.2350 -0.0079
   82MOL   C25929581   1.596   2.862   3.785  0.3341 -0.1915 -0.3716
   82MOL   H26029582   2.014   2.753   4.020  1.8031 -1.1555  0.9867
   82MOL   H26129583   1.999   2.580   3.958 -3.0704 -1.1943 -1.6924
   82MOL   H26229584   1.788   2.674   3.845 -1.6835  1.9928  0.2841
   82MOL   H26329585   1.908   2.943   3.910  1.0712 -1.3528  0.7400
   82MOL   H26429586   1.761   2.882   3.979 -0.5245 -0.5213 -1.1831
   82MOL   H26529587   1.791   2.934   3.690  0.1798  0.6621 -0.5513
   82MOL   H26629588   1.827   3.135   3.820 -0.3673  1.7782 -1.2639
   82MOL   H26729589   1.673   3.104   3.896  0.9796 -0.8965  0.6900
   82MOL   H26829590   1.679   3.164   3.737  0.9987 -1.4041 -2.5451
   82MOL   H26929591   1.599   2.766   3.732 -1.6496 -0.2534 -0.3936
   82MOL   H27029592   1.556   2.866   3.886  0.5135  1.7023 -0.3665
   82MOL   H27129593   1.524   2.911   3.719  1.4900 -1.4903 -2.6786
   82MOL   C27229594   1.960   2.712   3.735 -0.6057 -0.6866  0.5913
   82MOL   C27329595   2.081   2.805   3.709 -0.1236  0.2602  0.0210
   82MOL   C27429596   2.216   2.745   3.777  0.1808 -0.5664  0.0408
   82MOL   C27529597   2.307   2.843   3.848  0.3597 -0.1585 -0.3109
   82MOL   C27629598   2.443   2.775   3.857 -0.3384  0.3613  0.3232
   82MOL   C27729599   2.256   2.884   3.986 -0.1150 -0.6682 -0.0151
   82MOL   H27829600   1.989   2.607   3.727  0.3530 -0.4946  1.4358
   82MOL   H27929601   1.887   2.727   3.656  2.9343  0.4591 -2.6062
   82MOL   H28029602   2.064   2.900   3.761  0.5311  0.8472 -0.8224
   82MOL   H28129603   2.271   2.688   3.702 -1.0099 -0.0031 -1.3096
   82MOL   H28229604   2.190   2.671   3.852 -1.1222  0.4626  0.6364
   82MOL   H28329605   2.331   2.936   3.796 -2.3679 -0.0447 -1.4449
   82MOL   H28429606   2.452   2.687   3.921  0.7807 -0.2063 -0.6021
   82MOL   H28529607   2.478   2.754   3.756 -0.3704  1.6784  0.0365
   82MOL   H28629608   2.515   2.848   3.895  1.5956 -0.3951 -1.7678
   82MOL   H28729609   2.333   2.942   4.037  1.6944 -2.1895 -0.9726
   82MOL   H28829610   2.167   2.947   3.978  0.8894  0.9795  1.3989
   82MOL   H28929611   2.228   2.803   4.053  1.6944  0.3522  2.0578
   82MOL   C29029612   2.104   2.829   3.558  0.0525 -0.8021  0.1540
   82MOL   C29129613   2.162   2.970   3.516  0.4526  0.2090 -0.1284
   82MOL   C29229614   2.204   2.963   3.368  0.0027 -0.4844  0.5721
   82MOL   C29329615   2.349   2.948   3.328  0.2210  0.2765 -0.6255
   82MOL   C29429616   2.363   2.910   3.185 -0.2337 -0.4811  0.9844
   82MOL   C29529617   2.437   3.062   3.370  0.0310  0.1167  0.2722
   82MOL   H29629618   2.169   2.752   3.517 -0.0235 -0.7700 -0.0239
   82MOL   H29729619   2.011   2.816   3.503  0.0459 -1.1333  0.2444
   82MOL   H29829620   2.247   2.984   3.583  0.1546  0.6780  0.1551
   82MOL   H29929621   2.164   3.051   3.318  0.1172  0.1391  1.5556
   82MOL   H30029622   2.137   2.894   3.315  0.3227 -1.6839  1.6854
   82MOL   H30129623   2.387   2.865   3.387 -1.8002  0.6955  1.3465
   82MOL   H30229624   2.323   2.984   3.116  1.5125 -1.0873 -0.7348
   82MOL   H30329625   2.315   2.815   3.163 -1.1360 -0.1285  1.4301
   82MOL   H30429626   2.467   2.893   3.156 -0.6367 -0.7044 -0.3760
   82MOL   H30529627   2.543   3.038   3.364 -0.3081 -1.6651  0.9927
   82MOL   H30629628   2.416   3.092   3.473  0.1865  0.3566  0.2334
   82MOL   H30729629   2.413   3.149   3.310  0.6705 -0.3002 -0.5949
   82MOL   C30829630   2.048   3.075   3.535 -0.3185  0.5424  0.1798
   82MOL   C30929631   2.105   3.219   3.537 -0.5847  0.1121 -0.0643
   82MOL   C31029632   1.988   3.316   3.507 -0.2543 -0.4226 -0.5055
   82MOL   C31129633   1.939   3.309   3.357  0.2713  0.0722  1.3470
   82MOL   C31229634   1.822   3.405   3.353  0.2133 -0.3742 -0.5310
   82MOL   C31329635   2.050   3.349   3.262  0.8562  0.8874 -0.1601
   82MOL   H31429636   1.963   3.061   3.469  0.4397  0.4401 -0.7833
   82MOL   H31529637   1.994   3.061   3.629  1.0815  0.7956  1.0428
   82MOL   H31629638   2.178   3.235   3.458 -0.0416 -1.1304  0.1737
   82MOL   H31729639   2.011   3.412   3.553  0.0762 -2.1859  3.1915
   82MOL   H31829640   1.906   3.289   3.573  0.6962 -1.5414  0.2199
   82MOL   H31929641   1.902   3.209   3.337 -0.3349  0.0970  2.3060
   82MOL   H32029642   1.844   3.500   3.403  0.0573  0.3040 -1.7284
   82MOL   H32129643   1.738   3.361   3.407 -0.6641 -1.2176 -2.5652
   82MOL   H32229644   1.792   3.422   3.250  0.8750 -0.8728 -0.8085
   82MOL   H32329645   2.022   3.389   3.165 -0.3782 -0.4064 -0.3470
   82MOL   H32429646   2.103   3.431   3.310  0.9496  0.6954  0.0661
   82MOL   H32529647   2.121   3.270   3.237 -1.2570 -0.6500 -1.5043
   82MOL   C32629648   2.169   3.257   3.675  0.1887 -0.0787 -0.0018
   82MOL   C32729649   2.299   3.350   3.690  0.2973 -0.5182  0.4436
   82MOL   C32829650   2.382   3.355   3.823  0.3651 -1.1890 -0.0482
   82MOL   C32929651   2.440   3.227   3.883 -0.1163  0.6373 -0.1857
   82MOL   C33029652   2.555   3.169   3.810 -0.4676 -0.0276  0.0883
   82MOL   C33129653   2.483   3.253   4.028  0.4472  0.6650 -0.4771
   82MOL   H33229654   2.201   3.159   3.709 -1.3867 -1.5477 -2.5693
   82MOL   H33329655   2.089   3.294   3.738  0.8922 -0.5787  1.1904
   82MOL   H33429656   2.364   3.314   3.611  0.8466  1.4752 -0.0403
   82MOL   H33529657   2.468   3.421   3.827  1.8460 -2.9807 -1.7815
   82MOL   H33629658   2.306   3.393   3.892  2.0273 -0.9644  1.7015
   82MOL   H33729659   2.365   3.149   3.885  0.6183 -0.0465  0.6575
   82MOL   H33829660   2.645   3.228   3.826 -0.0028 -0.7814  0.3074
   82MOL   H33929661   2.550   3.135   3.706  2.2350 -1.2514  0.2881
   82MOL   H34029662   2.576   3.078   3.866  2.7967  0.0409 -0.9276
   82MOL   H34129663   2.503   3.160   4.082 -2.3279 -0.0480 -0.5768
   82MOL   H34229664   2.575   3.309   4.029 -0.5561  2.3360 -0.1754
   82MOL   H34329665   2.416   3.319   4.083 -0.8220  0.5290 -1.8293
   82MOL   C34429666   2.258   3.500   3.643 -0.3734  0.1102 -0.9328
   82MOL   C34529667   2.370   3.599   3.639  0.4675  0.2375 -0.2382
   82MOL   C34629668   2.313   3.737   3.608  0.5311  0.3823 -0.3069
   82MOL   C34729669   2.425   3.841   3.586 -0.0519 -0.2037  0.0684
   82MOL   C34829670   2.511   3.869   3.712  0.1292  0.1984  0.3894
   82MOL   C34929671   2.370   3.972   3.525  0.1907  0.2628 -0.0868
   82MOL   H35029672   2.175   3.526   3.709  1.1755  3.7131 -0.2734
   82MOL   H35129673   2.217   3.495   3.541  0.5911 -2.3252 -1.2157
   82MOL   H35229674   2.443   3.571   3.562 -0.2305 -0.6943 -0.5675
   82MOL   H35329675   2.253   3.733   3.518 -1.1323 -0.6229  0.8071
   82MOL   H35429676   2.240   3.771   3.681  0.6797  0.0237  0.0117
   82MOL   H35529677   2.493   3.799   3.511  0.1101 -1.2442  0.7770
   82MOL   H35629678   2.564   3.786   3.759 -0.9687  1.3226  3.7323
   82MOL   H35729679   2.577   3.955   3.701  1.9541 -1.3467 -0.9624
   82MOL   H35829680   2.441   3.890   3.792  0.1388 -1.0328  0.7286
   82MOL   H35929681   2.301   4.022   3.592  2.3054  0.4162  2.0636
   82MOL   H36029682   2.317   3.970   3.430 -2.1579  0.3156  1.1792
   82MOL   H36129683   2.440   4.055   3.525 -0.8888  1.2619 -4.2834
   82MOL   H36229684   2.424   3.595   3.733 -1.6634 -0.4862  0.9785
   83MOL     C129685   0.036   7.367   2.834 -0.9701 -0.1107 -0.1419
   83MOL     C229686   7.654   7.311   2.887  0.0109  0.2617  0.0794
   83MOL     C329687   7.616   7.393   3.014  0.4153 -0.2054  0.6802
   83MOL     C429688   7.461   7.409   3.040  0.4837 -0.1048  0.3403
   83MOL     C529689   7.394   7.488   2.934  0.3386  0.7081  0.6149
   83MOL     C629690   7.439   7.476   3.179  0.0941 -0.3108  0.0101
   83MOL     H729691   0.073   7.309   2.750 -1.1300 -1.0523  0.4403
   83MOL     H829692   0.039   7.470   2.797  0.9102  0.5141  1.6844
   83MOL     H929693   7.587   7.334   2.805 -1.1932 -0.3287  0.8798
   83MOL    H1029694   7.663   7.346   3.101  1.0031  1.8963  1.5357
   83MOL    H1129695   7.665   7.490   3.021 -1.1668  0.5843  0.8899
   83MOL    H1229696   7.417   7.310   3.051  1.4796 -0.6217 -0.3530
   83MOL    H1329697   7.285   7.491   2.940  0.2623 -0.8312  0.3240
   83MOL    H1429698   7.433   7.589   2.942 -2.4964  2.0700 -1.6190
   83MOL    H1529699   7.421   7.444   2.837  3.8481  0.7384  1.5378
   83MOL    H1629700   7.500   7.429   3.256 -0.2123 -0.0035  0.4477
   83MOL    H1729701   7.335   7.479   3.213  0.6430  1.6180  1.6895
   83MOL    H1829702   7.472   7.580   3.180  1.4035 -0.6855 -2.2945
   83MOL    H1929703   0.119   7.356   2.903 -0.9352 -0.2832 -0.2113
   83MOL    C2029704   7.647   7.160   2.906  0.2518 -0.1931 -1.1581
   83MOL    C2129705   7.591   7.079   2.785 -1.1006  0.2111 -0.6768
   83MOL    C2229706   7.607   6.925   2.795 -0.1690 -0.2912 -0.1770
   83MOL    C2329707   7.749   6.862   2.813 -0.3179 -1.2864 -0.0891
   83MOL    C2429708   7.736   6.712   2.798  0.0001 -0.0449  0.2072
   83MOL    C2529709   0.108   6.925   2.727  0.1779  0.5188 -0.6863
   83MOL    H2629710   7.747   7.125   2.931  0.0702  0.9197  1.2450
   83MOL    H2729711   7.580   7.142   2.990  2.6047  2.5549  1.4112
   83MOL    H2829712   7.648   7.118   2.701 -2.0951  1.0630 -0.9629
   83MOL    H2929713   7.566   6.891   2.700  1.9341 -0.2138 -1.1446
   83MOL    H3029714   7.549   6.893   2.882 -0.2718  2.5241  0.8385
   83MOL    H3129715   0.024   6.879   2.917 -0.2424 -0.2803 -0.2638
   83MOL    H3229716   7.668   6.682   2.878  0.8415 -3.8141 -0.4168
   83MOL    H3329717   0.075   6.653   2.807  0.7193  0.8040 -1.3587
   83MOL    H3429718   7.699   6.680   2.701 -0.1501 -2.2755  0.9750
   83MOL    H3529719   0.093   6.916   2.619 -1.5925  0.0874 -0.4254
   83MOL    H3629720   0.130   7.028   2.753 -1.7867  1.1863 -1.5193
   83MOL    H3729721   0.200   6.876   2.758 -0.7032 -0.7376 -0.0127
   83MOL    C3829722   7.435   7.114   2.783  0.2159  0.5350 -0.9612
   83MOL    C3929723   7.373   7.094   2.636  0.4378  0.0242  0.4805
   83MOL    C4029724   7.408   7.219   2.552  0.2271 -0.5392 -0.6583
   83MOL    C4129725   7.455   7.179   2.408  0.3867 -0.3448  0.4894
   83MOL    C4229726   7.592   7.116   2.395  0.6955 -0.1712  0.7861
   83MOL    C4329727   7.440   7.309   2.329  0.1714 -0.0393  0.3337
   83MOL    H4429728   7.426   7.218   2.815  0.5523 -0.4963  2.7615
   83MOL    H4529729   7.383   7.060   2.862  0.1741  0.4074 -1.0751
   83MOL    H4629730   7.421   7.007   2.590 -0.2634 -0.7106  1.1415
   83MOL    H4729731   7.470   7.285   2.612 -1.8811  0.7604  0.1340
   83MOL    H4829732   7.320   7.281   2.535  0.9059  1.0655  1.4549
   83MOL    H4929733   7.390   7.103   2.366 -0.0312  1.0138 -1.3832
   83MOL    H5029734   7.600   7.054   2.306 -0.5796  0.3845  0.2757
   83MOL    H5129735   7.673   7.187   2.378  0.6817 -0.0950  1.0347
   83MOL    H5229736   7.616   7.048   2.477 -0.8846 -0.6055  0.9049
   83MOL    H5329737   7.343   7.322   2.281  0.3230 -0.3524 -0.0628
   83MOL    H5429738   7.504   7.302   2.242  0.2913  2.0703  0.2231
   83MOL    H5529739   7.456   7.396   2.392 -0.8166 -0.1075  0.6923
   83MOL    C5629740   7.220   7.074   2.650 -0.1634  0.3284  0.0962
   83MOL    C5729741   7.174   6.935   2.703 -0.3383  0.2316  0.4572
   83MOL    C5829742   7.185   6.830   2.593 -0.6092 -0.2963  0.4766
   83MOL    C5929743   7.198   6.681   2.650  0.1297 -0.1157 -0.2181
   83MOL    C6029744   7.324   6.671   2.734  0.0954 -0.1430 -0.0893
   83MOL    C6129745   7.188   6.578   2.537 -0.0773 -0.0281 -0.0750
   83MOL    H6229746   7.174   7.095   2.553  0.8681  1.3237 -0.1882
   83MOL    H6329747   7.170   7.146   2.715 -1.6320 -1.4333  0.9419
   83MOL    H6429748   7.245   6.908   2.781 -2.3383  1.1763  2.6428
   83MOL    H6529749   7.106   6.842   2.519 -1.0796  0.3449  1.0666
   83MOL    H6629750   7.276   6.851   2.536  0.0170  0.0953  1.5883
   83MOL    H6729751   7.117   6.663   2.720  0.8529 -0.2151  0.5931
   83MOL    H6829752   7.336   6.739   2.818  0.4049 -0.6794  0.3027
   83MOL    H6929753   7.406   6.686   2.664  1.2449  3.3179  1.9042
   83MOL    H7029754   7.337   6.574   2.783 -0.3973 -0.6075 -0.8689
   83MOL    H7129755   7.165   6.483   2.585  0.1784  0.5573  1.2179
   83MOL    H7229756   7.275   6.570   2.472 -0.0984 -1.6295  0.0953
   83MOL    H7329757   7.115   6.619   2.466  2.1926  2.6025 -0.9915
   83MOL    C7429758   7.024   6.933   2.761  0.5078  0.2879  0.0141
   83MOL    C7529759   7.014   7.009   2.892 -0.4761 -0.0263  0.4575
   83MOL    C7629760   7.082   6.922   3.006  0.0540  0.1325  0.5368
   83MOL    C7729761   7.087   6.984   3.144 -0.5959 -0.5927 -0.0542
   83MOL    C7829762   7.169   7.118   3.148  0.0235 -0.6110 -0.5137
   83MOL    C7929763   7.152   6.888   3.247 -0.8290 -0.4344 -0.5224
   83MOL    H8029764   6.985   6.832   2.773  0.3374  0.3949  0.3772
   83MOL    H8129765   6.965   6.970   2.677  0.2877 -0.5021 -0.1850
   83MOL    H8229766   7.085   7.092   2.886  0.3662 -0.7765 -0.2656
   83MOL    H8329767   7.018   6.834   3.010 -1.4823  1.1242 -1.2470
   83MOL    H8429768   7.179   6.875   2.985  0.0365  0.1176  0.4925
   83MOL    H8529769   6.984   7.001   3.173 -0.4579  0.4865 -0.1387
   83MOL    H8629770   7.259   7.128   3.087  0.8272 -1.6418  0.4957
   83MOL    H8729771   7.194   7.138   3.252  1.0431  0.5855 -0.9689
   83MOL    H8829772   7.106   7.199   3.109 -0.2916 -0.6961 -0.1827
   83MOL    H8929773   7.100   6.793   3.244  0.5886 -1.1986 -1.2624
   83MOL    H9029774   7.255   6.878   3.213 -0.5301 -1.2922  0.6263
   83MOL    H9129775   7.163   6.924   3.349 -0.1043 -1.4170 -0.2472
   83MOL    C9229776   6.868   7.069   2.921 -0.6111  0.7553  0.1328
   83MOL    C9329777   6.809   7.174   2.826  0.1019 -0.1929 -0.1798
   83MOL    C9429778   6.652   7.177   2.849 -0.4098 -0.0845 -0.5763
   83MOL    C9529779   6.574   7.065   2.776  0.2141  0.1619  1.0461
   83MOL    C9629780   6.452   7.026   2.861 -0.2201  0.0315  1.0127
   83MOL    C9729781   6.538   7.097   2.628 -0.6063  0.1109  0.0733
   83MOL    H9829782   6.798   6.985   2.927 -0.3711  0.5464 -0.0167
   83MOL    H9929783   6.892   7.109   3.020  2.2656 -1.1793  0.2537
   83MOL   H10029784   6.835   7.137   2.727  0.4157 -1.5277  0.3936
   83MOL   H10129785   6.623   7.281   2.834  2.5678  1.5010  3.8556
   83MOL   H10229786   6.636   7.169   2.956  2.0240  2.3969  0.0494
   83MOL   H10329787   6.638   6.977   2.767  1.5183  1.3958 -3.2331
   83MOL   H10429788   6.422   6.929   2.822  1.0992 -0.4442  1.1569
   83MOL   H10529789   6.370   7.098   2.868  0.3825  0.5708  2.9732
   83MOL   H10629790   6.480   7.017   2.966  0.3845  0.5254  0.8971
   83MOL   H10729791   6.447   7.157   2.631 -0.3064  0.6480 -1.2653
   83MOL   H10829792   6.520   7.011   2.564 -0.1033 -0.6582  0.9560
   83MOL   H10929793   6.608   7.158   2.571 -0.2407 -1.0068 -0.6910
   83MOL   C11029794   6.873   7.314   2.839 -0.7311 -0.1579  0.2310
   83MOL   C11129795   6.850   7.407   2.712 -0.4465  0.9223 -0.0251
   83MOL   C11229796   6.845   7.549   2.759  0.6084 -0.3030  0.1314
   83MOL   C11329797   6.719   7.588   2.836 -0.0643  0.9836 -0.2757
   83MOL   C11429798   6.595   7.580   2.750  0.2192  0.1438  0.0349
   83MOL   C11529799   6.722   7.722   2.908  0.1835  0.5798  0.0654
   83MOL   H11629800   6.980   7.300   2.858 -0.2534  1.6513 -0.9831
   83MOL   H11729801   6.847   7.355   2.936 -0.0451  0.6744  0.0771
   83MOL   H11829802   6.758   7.383   2.660 -0.9086 -0.7274  1.4910
   83MOL   H11929803   6.856   7.614   2.672 -0.0038  0.2143  0.4391
   83MOL   H12029804   6.933   7.569   2.821  1.0354  0.5535 -0.7459
   83MOL   H12129805   6.707   7.514   2.915  1.6675 -1.1583 -1.9427
   83MOL   H12229806   6.580   7.659   2.676 -1.3106  1.3557  1.6093
   83MOL   H12329807   6.515   7.616   2.815  0.0079  0.8301 -0.5978
   83MOL   H12429808   6.559   7.485   2.710 -1.0248 -0.3896  2.3348
   83MOL   H12529809   6.820   7.743   2.952  0.9005 -1.3451 -0.5346
   83MOL   H12629810   6.637   7.742   2.973 -0.4377  3.2865 -1.4937
   83MOL   H12729811   6.714   0.053   2.838  0.9281  1.0939  0.5847
   83MOL   C12829812   6.972   7.392   2.617  0.1912 -0.6187 -0.5205
   83MOL   C12929813   6.958   7.434   2.469 -0.6448 -0.3994 -0.1451
   83MOL   C13029814   6.872   7.334   2.387 -0.0831 -0.2723  0.6917
   83MOL   C13129815   6.738   7.394   2.319 -0.5334 -0.2988  0.4544
   83MOL   C13229816   6.668   7.307   2.216 -0.3978  0.2455 -0.6839
   83MOL   C13329817   6.642   7.456   2.423  0.0409  0.1763 -0.5830
   83MOL   H13429818   7.011   7.290   2.622 -0.3948 -0.7714  1.1511
   83MOL   H13529819   7.053   7.450   2.661  0.1692 -1.1835  0.2793
   83MOL   H13629820   6.901   7.527   2.475 -0.1509  0.0906 -2.3765
   83MOL   H13729821   6.930   7.285   2.309  0.3661 -0.3991  1.0989
   83MOL   H13829822   6.838   7.248   2.447 -1.3470  1.3401  2.3642
   83MOL   H13929823   6.774   7.475   2.256 -1.0877 -1.1196 -0.9427
   83MOL   H14029824   6.738   7.257   2.150  0.3554 -1.5614  1.4085
   83MOL   H14129825   6.600   7.361   2.150 -0.9086  0.4991  0.0439
   83MOL   H14229826   6.611   7.230   2.267 -0.3718 -1.7256 -3.5300
   83MOL   H14329827   6.547   7.490   2.383 -0.9420 -3.5639 -1.6462
   83MOL   H14429828   6.606   7.395   2.506 -0.3026  1.7714  0.4567
   83MOL   H14529829   6.691   7.537   2.476  1.0123  0.7946 -2.3995
   83MOL   C14629830   7.097   7.469   2.406  0.1928  0.0401  0.3305
   83MOL   C14729831   7.100   7.598   2.329  0.0637  0.0773 -0.1729
   83MOL   C14829832   7.210   7.595   2.222 -0.4028 -0.4502 -0.0542
   83MOL   C14929833   7.174   7.499   2.103 -0.7742  0.1801  1.1219
   83MOL   C15029834   7.036   7.514   2.034  0.1333 -0.0465 -0.3488
   83MOL   C15129835   7.285   7.506   1.997 -0.0519 -0.5132  0.2680
   83MOL   H15229836   7.126   7.388   2.340  0.3857  1.0836 -0.8800
   83MOL   H15329837   7.174   7.476   2.484 -0.6782  0.8827  1.1315
   83MOL   H15429838   7.008   7.612   2.273 -0.1284 -1.1833 -0.1822
   83MOL   H15529839   7.222   7.696   2.182  0.4577  0.2532  1.8797
   83MOL   H15629840   7.308   7.569   2.262 -0.3997  0.1164  0.3107
   83MOL   H15729841   7.170   7.402   2.152 -2.3222  0.1421  0.9575
   83MOL   H15829842   7.021   7.611   1.987  0.1605 -0.9327 -2.2380
   83MOL   H15929843   6.956   7.498   2.107  1.9747 -0.4731  1.6343
   83MOL   H16029844   7.023   7.428   1.969  0.6247  0.0612 -0.5935
   83MOL   H16129845   7.302   7.603   1.950  0.5748 -1.3490 -1.2908
   83MOL   H16229846   7.274   7.423   1.928  3.3826 -0.3932 -0.5452
   83MOL   H16329847   7.385   7.488   2.038 -0.0872 -1.4516 -0.0473
   83MOL   C16429848   7.124   7.711   2.423 -0.3214  0.0937  0.3172
   83MOL   C16529849   7.095   0.105   2.370 -0.6329 -0.3592  0.3533
   83MOL   C16629850   7.020   0.189   2.472 -0.3526 -0.1973  0.3410
   83MOL   C16729851   6.876   0.143   2.498  0.4206  0.7334 -0.5786
   83MOL   C16829852   6.815   0.214   2.617  0.1289  0.9907 -0.0041
   83MOL   C16929853   6.784   0.163   2.372  0.3120  0.3522 -0.5629
   83MOL   H17029854   7.070   7.686   2.514  0.0456 -2.4995 -0.1428
   83MOL   H17129855   7.225   7.711   2.463  0.3761 -2.1378 -1.3613
   83MOL   H17229856   7.030   0.105   2.282 -0.8457  2.2285  0.4769
   83MOL   H17329857   7.073   0.175   2.566 -0.0804  2.0503  0.5530
   83MOL   H17429858   7.031   0.296   2.459 -0.9208 -0.0233  1.2298
   83MOL   H17529859   6.872   0.036   2.517 -3.0546  1.0310  0.7507
   83MOL   H17629860   6.818   0.322   2.605  2.0761  0.7231 -2.4170
   83MOL   H17729861   6.870   0.171   2.701  0.9157 -1.1442 -1.5508
   83MOL   H17829862   6.712   0.187   2.638 -0.2464  0.4189 -2.4493
   83MOL   H17929863   6.807   0.092   2.293  2.1501  0.3009 -0.0114
   83MOL   H18029864   6.801   0.267   2.343 -0.4862  0.2319 -1.5063
   83MOL   H18129865   6.680   0.156   2.403  1.4041 -1.6543  2.9044
   83MOL   C18229866   7.234   0.177   2.331  0.4328  0.1269 -0.3282
   83MOL   C18329867   7.228   0.296   2.236 -0.3397  0.9240  0.3368
   83MOL   C18429868   7.351   0.389   2.267  0.4476 -0.6306  0.0784
   83MOL   C18529869   7.332   0.480   2.393 -0.0494 -0.5378 -0.6644
   83MOL   C18629870   7.469   0.517   2.453  0.3762  0.0721  0.2066
   83MOL   C18729871   7.258   0.609   2.351  0.2105  0.0808  0.4286
   83MOL   H18829872   7.312   0.106   2.302 -0.2114 -0.1898 -1.3009
   83MOL   H18929873   7.273   0.222   2.422 -0.6351  0.4906 -0.0465
   83MOL   H19029874   7.130   0.338   2.258 -1.0924 -0.4127 -0.4121
   83MOL   H19129875   7.365   0.461   2.187 -1.4907 -0.6188 -0.2608
   83MOL   H19229876   7.443   0.330   2.273  0.9645  0.2388  0.8455
   83MOL   H19329877   7.268   0.431   2.466 -1.4123  0.1614 -1.3707
   83MOL   H19429878   7.529   0.576   2.383  0.3311 -1.1568 -0.8795
   83MOL   H19529879   7.528   0.426   2.465 -1.0792 -0.6539  2.0538
   83MOL   H19629880   7.469   0.554   2.555  0.4611  1.4961 -0.2928
   83MOL   H19729881   7.169   0.586   2.293  1.0015  1.8880 -1.5479
   83MOL   H19829882   7.325   0.674   2.295 -2.0935  0.5141 -1.8722
   83MOL   H19929883   7.224   0.662   2.440  2.4189  2.0119  0.1594
   83MOL   C20029884   7.224   0.245   2.089  0.2891 -1.0698 -0.0717
   83MOL   C20129885   7.181   0.348   1.991 -0.1984  0.0524  0.0874
   83MOL   C20229886   7.031   0.350   1.946 -0.6091  0.2210  0.0352
   83MOL   C20329887   6.931   0.385   2.051  0.0416  0.2135  0.1449
   83MOL   C20429888   6.944   0.531   2.089 -0.1871  0.3519  0.1063
   83MOL   C20529889   6.781   0.358   2.024  0.1123 -0.6372 -0.1890
   83MOL   H20629890   7.157   0.161   2.069 -2.8133  1.0905  1.0034
   83MOL   H20729891   7.321   0.200   2.067 -0.4605 -4.0419  2.4137
   83MOL   H20829892   7.207   0.446   2.030  1.6136  0.3987 -1.9194
   83MOL   H20929893   7.023   0.419   1.862  1.0130  0.8976  0.4074
   83MOL   H21029894   7.019   0.250   1.903 -0.0061 -0.5237  1.5531
   83MOL   H21129895   6.956   0.318   2.133 -0.4524  0.4284  0.4664
   83MOL   H21229896   7.040   0.557   2.134  1.5812 -0.8954 -2.8492
   83MOL   H21329897   6.874   0.564   2.167 -1.5233 -1.1722 -0.4111
   83MOL   H21429898   6.926   0.590   1.999 -1.1510 -1.3015 -0.8073
   83MOL   H21529899   6.707   0.386   2.099 -0.3394 -0.1374 -0.8129
   83MOL   H21629900   6.761   0.253   1.999 -2.0215 -0.7226  1.7354
   83MOL   H21729901   6.751   0.408   1.931 -2.1596  0.3933  1.0531
   83MOL   C21829902   7.267   0.334   1.861 -0.3438 -0.1713 -0.1906
   83MOL   C21929903   7.403   0.402   1.856 -0.3349 -0.2325  0.4316
   83MOL   C22029904   7.394   0.535   1.783  0.8160  0.5494 -0.1878
   83MOL   C22129905   7.289   0.632   1.831 -0.6716  0.5455  0.3789
   83MOL   C22229906   7.314   0.700   1.965  0.2292 -0.1294 -0.1678
   83MOL   C22329907   7.280   0.749   1.723  0.1150  0.1705  0.0174
   83MOL   H22429908   7.279   0.226   1.849  2.0793 -0.7146  5.5655
   83MOL   H22529909   7.216   0.346   1.765 -0.8890 -3.6490 -0.4237
   83MOL   H22629910   7.431   0.432   1.957 -0.4967 -0.5027  0.5578
   83MOL   H22729911   7.485   0.593   1.775  0.1605  1.8631  1.7179
   83MOL   H22829912   7.362   0.498   1.685  1.7852 -1.8693  0.3565
   83MOL   H22929913   7.194   0.581   1.819 -0.3855  0.8039 -3.6730
   83MOL   H23029914   7.407   0.756   1.954  0.3727 -0.4290 -0.4866
   83MOL   H23129915   7.227   0.763   1.984  0.1421 -0.3372  0.1153
   83MOL   H23229916   7.327   0.632   2.049 -1.1663 -1.6310 -1.1477
   83MOL   H23329917   7.250   0.712   1.625  0.1492  0.6716 -0.1845
   83MOL   H23429918   7.205   0.825   1.746 -0.2271 -0.7781  2.1064
   83MOL   H23529919   7.371   0.809   1.715  0.0964  0.1763 -0.1582
   83MOL   C23629920   7.515   0.312   1.800 -0.6394  0.3652  0.2359
   83MOL   C23729921   7.663   0.361   1.812 -0.0500 -0.0523 -0.2763
   83MOL   C23829922   0.005   0.278   1.718  0.3605  0.1651 -0.2523
   83MOL   C23929923   0.140   0.335   1.683  0.5483 -0.1974  0.1039
   83MOL   C24029924   0.231   0.241   1.605  0.2570  0.3397  0.7757
   83MOL   C24129925   0.118   0.464   1.605  0.1451  0.1523  0.1787
   83MOL   H24229926   7.496   0.283   1.696 -2.9236  1.5777  0.2779
   83MOL   H24329927   7.515   0.216   1.853  1.5149  0.5956  0.6751
   83MOL   H24429928   7.665   0.458   1.762 -1.6033 -0.0401 -0.3322
   83MOL   H24529929   7.700   0.254   1.628  0.7085 -1.9507  0.0846
   83MOL   H24629930   0.038   0.183   1.759 -0.7104 -0.8337 -1.6571
   83MOL   H24729931   0.186   0.357   1.779  0.3050 -2.1917  0.6894
   83MOL   H24829932   0.191   0.236   1.504  0.7454  1.0470  0.5389
   83MOL   H24929933   0.217   0.140   1.644 -3.7215  0.5170 -0.0005
   83MOL   H25029934   0.335   0.273   1.613  1.0711 -1.9371 -0.2627
   83MOL   H25129935   0.211   0.507   1.567 -0.6676  1.0568 -0.8207
   83MOL   H25229936   0.066   0.541   1.662  2.1366  1.7430 -0.0955
   83MOL   H25329937   0.059   0.447   1.514  0.5141  0.9525 -0.2143
   83MOL   C25429938   7.714   0.393   1.954 -0.2178  0.0156 -0.3369
   83MOL   C25529939   0.007   0.273   2.042  0.0639 -0.1098 -0.2857
   83MOL   C25629940   0.110   0.319   2.152  0.6990  0.9945  0.8252
   83MOL   C25729941   0.068   0.423   2.256  0.0482  0.0761 -0.4813
   83MOL   C25829942   0.141   0.559   2.238 -0.5258 -0.5109 -0.0147
   83MOL   C25929943   0.099   0.361   2.395  0.4093 -0.4054  0.1947
   83MOL   H26029944   0.046   0.462   1.954  1.7041 -2.2546  0.4320
   83MOL   H26129945   7.641   0.446   2.016 -2.1558 -2.4742 -0.4047
   83MOL   H26229946   0.063   0.210   1.974 -0.3323 -0.7570 -0.0155
   83MOL   H26329947   0.210   0.341   2.113 -0.4567 -0.3899 -3.1501
   83MOL   H26429948   0.137   0.228   2.206 -1.3923  0.6349  1.2859
   83MOL   H26529949   7.713   0.442   2.253 -0.1327 -0.5359  1.4558
   83MOL   H26629950   0.248   0.553   2.255 -0.3372  0.7014 -0.7955
   83MOL   H26729951   0.102   0.616   2.322 -1.1639  0.0030 -0.6602
   83MOL   H26829952   0.117   0.606   2.143 -0.9621 -1.4263 -0.3659
   83MOL   H26929953   0.088   0.433   2.475 -1.5620 -2.5710  1.9165
   83MOL   H27029954   0.043   0.270   2.417 -1.4717  0.0946 -2.2615
   83MOL   H27129955   0.203   0.328   2.398  0.3235 -0.5434  1.9368
   83MOL   C27229956   7.642   0.192   2.105 -0.5999 -0.4305 -0.3938
   83MOL   C27329957   7.668   0.044   2.095  0.8844  0.3622 -0.1576
   83MOL   C27429958   7.581   7.716   2.200  0.3787 -0.2745 -0.1248
   83MOL   C27529959   7.628   7.738   2.350  0.1240  0.4624 -0.6027
   83MOL   C27629960   0.012   7.674   2.379 -0.1489 -0.0115  0.1880
   83MOL   C27729961   7.531   7.664   2.444  0.8366  0.2222 -0.0461
   83MOL   H27829962   7.634   0.223   2.209 -0.6912  2.1814 -1.1315
   83MOL   H27929963   7.552   0.219   2.050  0.2621  0.2392 -1.4917
   83MOL   H28029964   0.022   0.023   2.106  0.4485 -0.6956  2.5261
   83MOL   H28129965   7.580   7.609   2.177  2.0815 -0.5022  0.7784
   83MOL   H28229966   7.480   0.004   2.205 -0.4333 -2.0879 -1.3638
   83MOL   H28329967   7.626   0.093   2.369 -0.7375  0.1690  1.0110
   83MOL   H28429968   0.011   7.569   2.351 -2.5868  0.1575 -0.5015
   83MOL   H28529969   0.094   7.727   2.330 -0.0761  1.0086  1.3887
   83MOL   H28629970   0.033   7.670   2.486  0.0575  0.5336  0.1718
   83MOL   H28729971   7.561   7.564   2.477  0.4359  0.4224  0.9275
   83MOL   H28829972   7.523   7.708   2.543  1.1818  1.8972 -0.7517
   83MOL   H28929973   7.427   7.663   2.411  0.5281  1.3805  0.8669
   83MOL   C29029974   7.635   7.748   1.955 -0.5170  0.4132 -0.0728
   83MOL   C29129975   7.696   7.606   1.919  0.1989 -0.2891 -0.2045
   83MOL   C29229976   7.633   7.559   1.777  1.2287 -0.1209 -0.0670
   83MOL   C29329977   7.652   7.658   1.662 -0.2143 -0.3035 -0.0188
   83MOL   C29429978   7.701   7.578   1.535  1.0557  0.3114 -0.1295
   83MOL   C29529979   7.540   7.751   1.615  0.0885  0.1738  0.4419
   83MOL   H29629980   7.530   0.007   1.929 -0.0946  1.7559 -1.2911
   83MOL   H29729981   7.675   0.069   1.884 -0.8747  1.2992  0.6241
   83MOL   H29829982   7.653   7.541   1.995 -1.7181  1.0444 -0.1122
   83MOL   H29929983   7.530   7.526   1.788  0.9085  0.8031 -0.2539
   83MOL   H30029984   7.680   7.465   1.750  0.4704 -0.1966 -1.1318
   83MOL   H30129985   7.734   7.721   1.695  1.3437 -2.2104 -0.1687
   83MOL   H30229986   7.746   7.658   1.476  0.1417 -1.2488 -3.0636
   83MOL   H30329987   7.630   7.514   1.483 -1.5431  1.0820  2.3396
   83MOL   H30429988   0.034   7.518   1.565 -0.2276 -0.1994  2.6255
   83MOL   H30529989   7.461   7.694   1.566 -0.2454  0.2436  0.8968
   83MOL   H30629990   7.576   0.075   1.546 -1.1205  0.2281 -0.1440
   83MOL   H30729991   7.493   0.057   1.694 -1.8330 -0.2389 -0.3773
   83MOL   C30829992   0.101   7.601   1.909 -0.0090 -0.0391 -0.0773
   83MOL   C30929993   0.172   7.471   1.963  0.4129 -0.2770  1.1009
   83MOL   C31029994   0.313   7.456   1.895  0.8097  0.3282 -0.0172
   83MOL   C31129995   0.313   7.428   1.741  0.3922  0.5868  0.4383
   83MOL   C31229996   0.461   7.422   1.699  0.1515 -0.0172 -0.7353
   83MOL   C31329997   0.228   7.306   1.702  0.1288 -0.0998  0.4033
   83MOL   H31429998   0.120   7.610   1.802  3.1037 -0.7523  0.3554
   83MOL   H31529999   0.156   7.678   1.963 -0.2724 -0.2163  0.4440
   83MOL   H31630000   0.108   7.388   1.932 -0.7570  0.3562  1.7924
   83MOL   H31730001   0.378   7.382   1.942  0.9657  0.0275 -0.7081
   83MOL   H31830002   0.350   7.558   1.906  1.5573 -0.0436  1.0334
   83MOL   H31930003   0.274   7.511   1.681 -1.6556  0.4970  1.5700
   83MOL   H32030004   0.498   7.322   1.721 -1.9029 -0.6976 -0.1860
   83MOL   H32130005   0.532   7.501   1.723 -1.0450  0.9297 -0.2180
   83MOL   H32230006   0.460   7.411   1.591 -1.6468  0.2471 -0.7748
   83MOL   H32330007   0.260   7.215   1.753  1.3587  0.1884  0.1698
   83MOL   H32430008   0.124   7.329   1.727  0.2897  0.3586  0.6677
   83MOL   H32530009   0.230   7.288   1.595 -3.0148 -0.1144  0.3070
   83MOL   C32630010   0.175   7.462   2.114 -0.1504  0.0225  0.1904
   83MOL   C32730011   0.250   7.339   2.177  0.1893  0.0830  0.1725
   83MOL   C32830012   0.200   7.207   2.114 -0.1955  0.1847 -0.2520
   83MOL   C32930013   0.250   7.071   2.180  0.6677 -0.5454 -0.3555
   83MOL   C33030014   0.176   6.952   2.125 -0.1674  0.4877  0.3024
   83MOL   C33130015   0.402   7.057   2.174 -0.5008  0.7361 -0.2321
   83MOL   H33230016   0.072   7.461   2.148  0.1110 -0.0190  0.9908
   83MOL   H33330017   0.209   7.556   2.157 -0.9057 -0.3195  1.5662
   83MOL   H33430018   0.355   7.333   2.147  0.1820 -1.4538  0.4335
   83MOL   H33530019   0.091   7.210   2.112 -0.1915 -0.5621 -2.7597
   83MOL   H33630020   0.219   7.199   2.007 -1.3446  1.8730 -0.6058
   83MOL   H33730021   0.224   7.070   2.286  1.0233  0.9170 -0.2404
   83MOL   H33830022   0.162   6.954   2.017 -1.4862  0.7149  0.4711
   83MOL   H33930023   0.074   6.955   2.162 -0.5760  0.2717 -0.7655
   83MOL   H34030024   0.218   6.854   2.147 -1.4196 -0.3205 -0.8261
   83MOL   H34130025   0.456   7.139   2.219 -0.5187 -0.7649  2.6551
   83MOL   H34230026   0.429   6.963   2.222 -0.3533  1.1709  0.5375
   83MOL   H34330027   0.435   7.052   2.070 -0.1182 -1.2826 -0.0397
   83MOL   C34430028   0.247   7.332   2.329  1.1594 -0.2825  0.0012
   83MOL   C34530029   0.307   7.458   2.402 -0.1447  0.1512  0.0215
   83MOL   C34630030   0.307   7.457   2.553  0.0942 -0.6216  0.0938
   83MOL   C34730031   0.339   7.598   2.612 -0.2961 -0.5644  0.1105
   83MOL   C34830032   0.491   7.632   2.591 -0.3724 -0.1562  0.3023
   83MOL   C34930033   0.299   7.605   2.758  0.2278 -0.4703 -0.1890
   83MOL   H35030034   0.304   7.247   2.367 -0.7381 -1.2776  0.6983
   83MOL   H35130035   0.143   7.331   2.362  1.4528 -3.3044  1.0181
   83MOL   H35230036   0.256   7.551   2.377 -1.1938 -0.5614 -0.5738
   83MOL   H35330037   0.211   7.429   2.596  0.3350 -2.5543 -0.5750
   83MOL   H35430038   0.375   7.379   2.588  1.2757  0.1291 -0.5069
   83MOL   H35530039   0.286   7.677   2.557  0.2404 -0.9171 -0.9177
   83MOL   H35630040   0.560   7.570   2.650 -0.0944 -0.1307  0.0031
   83MOL   H35730041   0.517   7.629   2.485  1.5703 -0.3564  0.7578
   83MOL   H35830042   0.504   7.733   2.631  0.8084 -0.3846  0.5218
   83MOL   H35930043   0.193   7.591   2.779  0.5399 -0.0749  1.8096
   83MOL   H36030044   0.323   7.698   2.809  2.6018 -1.3396  0.3589
   83MOL   H36130045   0.352   7.522   2.806  1.7010  1.1229  1.0153
   83MOL   H36230046   0.408   7.471   2.364 -1.1060  0.0301 -2.7375
   84MOL     C130047   6.731   0.822   2.772  0.4678 -0.0564  0.0570
   84MOL     C230048   6.582   0.833   2.792 -0.0665  0.7591 -0.2883
   84MOL     C330049   6.553   0.788   2.944  0.6105  0.3605 -1.0938
   84MOL     C430050   6.419   0.826   3.008 -0.4007 -0.4509  0.0923
   84MOL     C530051   6.413   0.976   3.031  0.4429 -0.4087  0.3114
   84MOL     C630052   6.395   0.738   3.131  0.1463  0.3445  0.5855
   84MOL     H730053   6.785   0.881   2.845 -0.8855  2.3673 -0.8405
   84MOL     H830054   6.771   0.720   2.773  1.1991  0.2366  0.7076
   84MOL     H930055   6.557   0.938   2.773  1.4395  0.6518 -3.2411
   84MOL    H1030056   6.554   0.680   2.956 -0.2017  0.6672  2.5230
   84MOL    H1130057   6.624   0.829   3.016 -0.8366  2.7123 -0.9475
   84MOL    H1230058   6.336   0.808   2.940 -0.1030 -1.5352  0.0008
   84MOL    H1330059   6.309   1.011   3.025  0.4393  0.7905  4.8379
   84MOL    H1430060   6.463   1.012   3.121 -3.3147  0.3022  2.2429
   84MOL    H1530061   6.455   1.028   2.945 -2.6031 -0.1927 -1.1254
   84MOL    H1630062   6.297   0.765   3.168 -0.2503  0.0873 -0.2616
   84MOL    H1730063   6.472   0.768   3.202  0.5358  1.5578 -0.3439
   84MOL    H1830064   6.407   0.632   3.108 -1.2847  0.2930  0.0344
   84MOL    H1930065   6.761   0.854   2.672  0.3231  0.7642  0.2786
   84MOL    C2030066   6.498   0.754   2.693  0.0843  0.0539 -0.9638
   84MOL    C2130067   6.523   0.797   2.545  0.0127 -0.0552 -0.2878
   84MOL    C2230068   6.481   0.685   2.445 -0.3612 -0.2080  1.0790
   84MOL    C2330069   6.560   0.551   2.451 -0.3457 -0.6101  0.2616
   84MOL    C2430070   6.523   0.470   2.325 -0.5234  0.0446  0.0637
   84MOL    C2530071   6.716   0.573   2.457  0.2952 -0.2297  0.4259
   84MOL    H2630072   6.523   0.648   2.695 -2.0274 -0.4546  0.8848
   84MOL    H2730073   6.391   0.762   2.716  0.0418  0.1723 -1.2048
   84MOL    H2830074   6.630   0.816   2.529 -0.2631  1.5584 -0.2860
   84MOL    H2930075   6.504   0.712   2.342 -1.1011 -1.2499  0.6388
   84MOL    H3030076   6.373   0.683   2.455 -0.2657 -0.3469  2.1605
   84MOL    H3130077   6.531   0.503   2.545  1.0269  0.8625  1.4699
   84MOL    H3230078   6.416   0.458   2.304 -0.4317  0.9151 -0.9203
   84MOL    H3330079   6.556   0.366   2.331  0.0567 -0.0137 -3.5322
   84MOL    H3430080   6.564   0.501   2.230  0.5777 -0.9363  0.2031
   84MOL    H3530081   6.758   0.628   2.373 -1.2402  0.8512  0.3396
   84MOL    H3630082   6.740   0.626   2.549 -2.6936 -0.1465  1.2179
   84MOL    H3730083   6.781   0.486   2.466  0.7592 -0.2351 -2.6101
   84MOL    C3830084   6.453   0.927   2.508  0.0814 -0.1332 -0.1599
   84MOL    C3930085   6.541   1.053   2.482 -0.0347 -0.4414 -0.1466
   84MOL    C4030086   6.462   1.181   2.527 -0.9093  0.1255 -0.4179
   84MOL    C4130087   6.439   1.215   2.679 -0.0952  0.5095 -0.4014
   84MOL    C4230088   6.320   1.314   2.705  0.3373  0.2582  0.0703
   84MOL    C4330089   6.571   1.254   2.747  0.0887 -0.1986  0.5183
   84MOL    H4430090   6.375   0.943   2.583 -0.0344  0.6581 -0.4433
   84MOL    H4530091   6.391   0.913   2.420 -0.6474 -0.3932  0.3820
   84MOL    H4630092   6.622   1.041   2.553  0.1410 -2.1872 -0.6283
   84MOL    H4730093   6.361   1.178   2.486 -1.1384 -0.9619  0.1900
   84MOL    H4830094   6.512   1.264   2.478 -0.0133  0.0282  0.3348
   84MOL    H4930095   6.417   1.116   2.719  0.2550  0.0597 -1.3392
   84MOL    H5030096   6.346   1.408   2.656 -0.3657  0.0729 -0.6632
   84MOL    H5130097   6.230   1.269   2.664  0.2119  1.1623 -0.6593
   84MOL    H5230098   6.301   1.332   2.811  0.1160  0.5590 -0.0215
   84MOL    H5330099   6.652   1.190   2.714 -1.3431  0.6550 -5.0866
   84MOL    H5430100   6.562   1.266   2.855 -0.3554 -1.8917  0.6776
   84MOL    H5530101   6.588   1.357   2.716  1.5239 -0.1995  1.2663
   84MOL    C5630102   6.590   1.050   2.333  0.2605  0.1580  0.1136
   84MOL    C5730103   6.742   1.084   2.292  1.3550 -0.2737  0.3611
   84MOL    C5830104   6.837   0.980   2.356  0.1485 -0.1861  0.2081
   84MOL    C5930105   6.988   0.976   2.315  0.3492 -0.7901 -0.2902
   84MOL    C6030106   7.001   0.909   2.179  0.5635 -0.1652 -0.1607
   84MOL    C6130107   7.074   0.904   2.420 -0.3448 -0.4422 -0.8473
   84MOL    H6230108   6.526   1.108   2.267 -0.7348 -0.8128  0.2009
   84MOL    H6330109   6.571   0.950   2.294 -0.5591  0.2295  0.3197
   84MOL    H6430110   6.745   1.071   2.183  2.7911 -1.6676  0.5508
   84MOL    H6530111   6.828   0.991   2.464  1.6549 -0.4815  0.3788
   84MOL    H6630112   6.794   0.886   2.321  0.2389 -0.1980  0.1316
   84MOL    H6730113   7.034   1.072   2.293 -3.6249  0.9473 -1.3011
   84MOL    H6830114   6.938   0.955   2.103 -0.9165 -0.9608  0.5583
   84MOL    H6930115   6.976   0.804   2.168 -1.9202  0.0145  3.0152
   84MOL    H7030116   7.107   0.914   2.153  0.2725 -0.6115 -1.4611
   84MOL    H7130117   7.064   0.802   2.383  1.0171 -0.3198 -1.5903
   84MOL    H7230118   7.034   0.897   2.521  1.0330  1.2483 -0.1669
   84MOL    H7330119   7.183   0.908   2.411 -0.2576 -0.1004  0.2565
   84MOL    C7430120   6.790   1.229   2.323  0.6459 -0.2250  0.6868
   84MOL    C7530121   6.726   1.335   2.243  0.0335 -0.3928 -0.4599
   84MOL    C7630122   6.820   1.379   2.124 -0.0180 -0.4212 -0.5225
   84MOL    C7730123   6.751   1.404   1.991 -0.0761  0.0924 -0.1156
   84MOL    C7830124   6.701   1.274   1.923 -0.0652  0.5420 -0.9289
   84MOL    C7930125   6.839   1.483   1.892  0.1707  0.3196  0.7452
   84MOL    H8030126   6.899   1.234   2.334  1.2592 -1.9282 -3.5326
   84MOL    H8130127   6.751   1.238   2.424  0.2420  0.4173  0.4734
   84MOL    H8230128   6.638   1.288   2.200 -0.6025 -0.6047  1.0330
   84MOL    H8330129   6.874   1.468   2.155  0.6661 -0.7984 -0.6249
   84MOL    H8430130   6.904   1.312   2.106  1.9802  1.7925  0.4491
   84MOL    H8530131   6.667   1.471   2.010 -1.3790 -0.8359 -2.3403
   84MOL    H8630132   6.778   1.197   1.930  0.2455  0.8821 -0.5852
   84MOL    H8730133   6.668   1.290   1.820 -1.8851 -2.2332 -0.8306
   84MOL    H8830134   6.615   1.238   1.978 -0.1619  1.8396 -0.2400
   84MOL    H8930135   6.767   1.519   1.818 -0.6174  0.5473  1.6054
   84MOL    H9030136   6.888   1.572   1.933 -0.1359  1.0256 -0.3880
   84MOL    H9130137   6.914   1.422   1.842 -1.0656 -0.1652 -0.5478
   84MOL    C9230138   6.687   1.456   2.331  0.5857  0.3066 -0.6688
   84MOL    C9330139   6.570   1.549   2.288  0.3772 -0.6983 -0.3928
   84MOL    C9430140   6.434   1.476   2.282 -0.0608  0.0523 -0.2934
   84MOL    C9530141   6.305   1.548   2.227  0.6665  1.0221 -0.2941
   84MOL    C9630142   6.308   1.575   2.080 -0.5912  0.1513  0.1167
   84MOL    C9730143   6.188   1.446   2.249  0.3296 -0.7578 -0.2277
   84MOL    H9830144   6.643   1.423   2.425 -1.2693  1.9830 -0.8943
   84MOL    H9930145   6.770   1.515   2.370 -0.7958  1.3497  0.7603
   84MOL   H10030146   6.585   1.564   2.181  5.7460 -0.9238  0.2407
   84MOL   H10130147   6.418   1.435   2.381 -1.5349  0.4089 -0.3755
   84MOL   H10230148   6.449   1.379   2.234  1.8990  0.8283 -1.2976
   84MOL   H10330149   6.283   1.636   2.287 -0.5086 -0.7691  1.9923
   84MOL   H10430150   6.328   1.482   2.027 -0.6116 -0.2260  0.7719
   84MOL   H10530151   6.389   1.637   2.042 -0.3304  0.9733  1.9595
   84MOL   H10630152   6.217   1.622   2.044  0.8001  0.6510 -2.8921
   84MOL   H10730153   6.098   1.497   2.214  0.2377 -0.5860  0.2527
   84MOL   H10830154   6.167   1.431   2.355 -1.5692  0.8348 -0.3361
   84MOL   H10930155   6.203   1.356   2.189  0.9808 -0.9167  0.1703
   84MOL   C11030156   6.556   1.670   2.379  0.2456  0.4131  0.3007
   84MOL   C11130157   6.675   1.774   2.365  0.1943  0.0271 -0.2180
   84MOL   C11230158   6.649   1.893   2.265  0.4358  0.4925  0.1573
   84MOL   C11330159   6.634   1.856   2.110  0.5076 -0.3837 -0.0601
   84MOL   C11430160   6.761   1.794   2.049 -0.6153 -0.0263 -0.1449
   84MOL   C11530161   6.575   1.970   2.028 -0.4764  0.3979  0.5284
   84MOL   H11630162   6.548   1.636   2.483 -1.3163 -1.1713 -0.3051
   84MOL   H11730163   6.470   1.734   2.364 -0.5426 -0.2741  1.7805
   84MOL   H11830164   6.765   1.726   2.327  1.4526  0.1706  2.4819
   84MOL   H11930165   6.737   1.958   2.269  0.3424  0.5584  1.4286
   84MOL   H12030166   6.566   1.958   2.293 -0.2249 -0.6749  0.9417
   84MOL   H12130167   6.557   1.780   2.106 -0.9713  1.0380  0.9050
   84MOL   H12230168   6.849   1.852   2.075 -1.9140  3.3275 -2.9144
   84MOL   H12330169   6.749   1.789   1.941 -0.9426 -0.9839 -0.0736
   84MOL   H12430170   6.758   1.689   2.080 -0.4387 -0.4221 -1.4277
   84MOL   H12530171   6.497   2.030   2.075 -1.2528  0.0172 -0.2765
   84MOL   H12630172   6.534   1.934   1.934 -1.6212 -0.7610  1.4635
   84MOL   H12730173   6.651   2.042   1.997  0.9373 -0.7118  1.3340
   84MOL   C12830174   6.688   1.835   2.508 -0.7618 -0.5943  1.2235
   84MOL   C12930175   6.770   1.747   2.609  0.3023 -0.1068 -0.2126
   84MOL   C13030176   6.721   1.768   2.758  0.4670  0.3773  0.1873
   84MOL   C13130177   6.663   1.642   2.823 -0.0191 -0.7412 -0.0099
   84MOL   C13230178   6.682   1.651   2.975  0.2545 -0.5445  0.2826
   84MOL   C13330179   6.516   1.618   2.796  0.3861  0.3124 -0.3265
   84MOL   H13430180   6.587   1.863   2.537 -1.2475 -2.2944  1.2356
   84MOL   H13530181   6.738   1.932   2.500 -0.7797 -0.7215 -0.6509
   84MOL   H13630182   6.762   1.645   2.572  2.2536 -0.3124 -0.0790
   84MOL   H13730183   6.805   1.797   2.821 -0.4647  2.3830  0.5758
   84MOL   H13830184   6.646   1.847   2.772 -2.6618 -2.4439 -0.1101
   84MOL   H13930185   6.716   1.550   2.798 -1.5081 -1.5456 -0.2264
   84MOL   H14030186   6.607   1.582   3.015 -1.8219  0.7657 -1.1987
   84MOL   H14130187   6.670   1.757   2.999  0.3850 -0.3305 -0.6077
   84MOL   H14230188   6.769   1.600   3.015 -1.0529 -2.0997  1.2448
   84MOL   H14330189   6.454   1.693   2.847  1.7985 -0.1820  2.1935
   84MOL   H14430190   6.492   1.606   2.690 -0.2752 -0.9985 -0.0305
   84MOL   H14530191   6.492   1.520   2.836 -2.7503  1.4185  0.6659
   84MOL   C14630192   6.915   1.791   2.596 -0.1411  0.1169 -0.0638
   84MOL   C14730193   7.017   1.684   2.657 -0.7279 -0.1681 -0.1591
   84MOL   C14830194   7.153   1.745   2.713  0.6688  0.4563  0.3190
   84MOL   C14930195   7.151   1.780   2.859  0.7992  0.3983 -0.5121
   84MOL   C15030196   7.150   1.652   2.950 -0.5112 -0.1874 -0.5466
   84MOL   C15130197   7.271   1.866   2.890 -0.5872 -0.1950 -0.5180
   84MOL   H15230198   6.937   1.890   2.636 -0.3071 -0.5083  1.6583
   84MOL   H15330199   6.949   1.792   2.493 -0.0099 -1.5639 -0.0484
   84MOL   H15430200   6.968   1.634   2.741  0.0228  0.1335  0.4634
   84MOL   H15530201   7.231   1.670   2.700 -0.3860 -0.7206  0.6820
   84MOL   H15630202   7.188   1.836   2.663 -0.6765  0.3907 -0.7739
   84MOL   H15730203   7.063   1.836   2.892 -0.6901 -2.3019  0.2255
   84MOL   H15830204   7.220   1.578   2.910  0.1402  1.0846 -1.7997
   84MOL   H15930205   7.054   1.601   2.962 -1.6708  2.2133  0.8128
   84MOL   H16030206   7.181   1.676   3.052  2.0753 -3.0635 -0.5960
   84MOL   H16130207   7.363   1.817   2.856  0.3360  0.5843  0.8019
   84MOL   H16230208   7.274   1.895   2.995 -0.5468 -0.7119 -0.3732
   84MOL   H16330209   7.270   1.952   2.823 -1.9871  1.4921  1.5915
   84MOL   C16430210   7.063   1.578   2.549  0.0539 -0.3122 -0.0541
   84MOL   C16530211   7.104   1.443   2.611 -0.2739 -0.0159  0.8275
   84MOL   C16630212   6.986   1.365   2.684  0.2732 -0.5481 -0.3196
   84MOL   C16730213   7.029   1.237   2.764  0.8078  0.1318 -0.2035
   84MOL   C16830214   7.069   1.283   2.906  0.3859 -0.2107  0.0472
   84MOL   C16930215   6.921   1.130   2.780  0.3355 -0.5342  0.0312
   84MOL   H17030216   6.975   1.566   2.486  0.2696  0.5567 -0.5166
   84MOL   H17130217   7.146   1.617   2.492  0.1702  0.6065  0.7381
   84MOL   H17230218   7.183   1.471   2.681  0.6165 -0.9585  0.2095
   84MOL   H17330219   6.935   1.429   2.756 -2.0500 -0.7425 -1.7355
   84MOL   H17430220   6.906   1.345   2.613 -0.4854  1.2730  0.0068
   84MOL   H17530221   7.128   1.201   2.736  0.1153 -1.2817 -0.9022
   84MOL   H17630222   6.988   1.340   2.953 -1.5250 -2.9237  0.1346
   84MOL   H17730223   7.164   1.337   2.900  0.0932  0.2522 -0.4493
   84MOL   H17830224   7.106   1.202   2.968 -0.8643 -0.3504  0.6166
   84MOL   H17930225   6.838   1.178   2.833  0.6754 -0.2663  0.3237
   84MOL   H18030226   6.950   1.039   2.831 -0.5893 -0.4460  0.7438
   84MOL   H18130227   6.894   1.097   2.680  2.6006  1.2257 -1.1945
   84MOL   C18230228   7.158   1.353   2.490 -0.1865  0.5530 -0.2730
   84MOL   C18330229   7.306   1.377   2.437 -0.4243 -0.5646  0.7800
   84MOL   C18430230   7.413   1.340   2.550 -0.5010  0.2633 -0.2331
   84MOL   C18530231   7.496   1.465   2.600 -0.7193  0.8000 -0.5262
   84MOL   C18630232   7.591   1.403   2.704 -0.0199  0.4637  0.3742
   84MOL   C18730233   7.570   1.545   2.489  0.3226 -0.3249  0.4750
   84MOL   H18830234   7.076   1.362   2.419  0.5058 -0.5495 -1.2351
   84MOL   H18930235   7.151   1.248   2.518 -1.2174  0.9055  0.8284
   84MOL   H19030236   7.315   1.478   2.398  1.7556 -1.1112 -0.2105
   84MOL   H19130237   7.473   1.258   2.511  0.6901  0.7345  0.5831
   84MOL   H19230238   7.357   1.310   2.639 -2.4195  1.0029 -1.1544
   84MOL   H19330239   7.434   1.533   2.660  1.4489  2.1814  0.2124
   84MOL   H19430240   7.660   1.461   2.765  0.1912  2.0973 -1.3697
   84MOL   H19530241   7.657   1.330   2.658 -0.3614  0.0111  0.6024
   84MOL   H19630242   7.540   1.340   2.777  1.3409  1.0933  1.8948
   84MOL   H19730243   7.638   1.493   2.422  2.2391  4.7723 -1.8036
   84MOL   H19830244   7.635   1.607   2.550 -1.5323  1.0239  1.1297
   84MOL   H19930245   7.508   1.613   2.430  2.1905  0.0821 -1.0724
   84MOL   C20030246   7.323   1.275   2.317 -0.5314 -0.2033 -0.4090
   84MOL   C20130247   7.441   1.305   2.221  0.3389  0.0518 -0.1521
   84MOL   C20230248   7.408   1.411   2.114 -0.0718  0.7258  0.4750
   84MOL   C20330249   7.357   1.372   1.975  0.7578  0.0456  0.7411
   84MOL   C20430250   7.217   1.300   1.971 -0.1627  0.4879  0.0777
   84MOL   C20530251   7.337   1.493   1.882  0.2870 -0.2168  0.1973
   84MOL   H20630252   7.240   1.288   2.247 -0.3423  0.0470 -0.5898
   84MOL   H20730253   7.319   1.175   2.360  0.2906  0.3343  0.9363
   84MOL   H20830254   7.519   1.348   2.285 -0.0981  1.3920 -0.4943
   84MOL   H20930255   7.354   1.492   2.163  0.8665  0.7552  1.4815
   84MOL   H21030256   7.508   1.452   2.095 -0.4566 -0.3481 -4.7864
   84MOL   H21130257   7.429   1.304   1.928  0.4352  0.1077  0.1509
   84MOL   H21230258   7.137   1.365   2.007 -0.1042 -0.9200  2.9163
   84MOL   H21330259   7.221   1.220   2.046 -0.6596  0.6441  0.2754
   84MOL   H21430260   7.184   1.268   1.873  0.6500  1.0972 -0.4020
   84MOL   H21530261   7.250   1.554   1.908 -0.6094 -0.7653 -1.3731
   84MOL   H21630262   7.315   1.459   1.780  0.5411 -1.6396  0.6062
   84MOL   H21730263   7.428   1.549   1.860 -0.3421  0.2116 -1.4195
   84MOL   C21830264   7.507   1.172   2.174  0.5283 -0.2410 -0.3385
   84MOL   C21930265   7.646   1.179   2.115 -0.5209  0.0883 -0.6756
   84MOL   C22030266   7.671   1.059   2.024  0.3004 -0.1780  0.2585
   84MOL   C22130267   7.607   1.061   1.881  0.6040 -0.5059  0.0758
   84MOL   C22230268   7.672   1.173   1.804 -0.0676 -0.6144 -0.3232
   84MOL   C22330269   7.637   0.929   1.819 -0.7805 -0.4687 -0.0485
   84MOL   H22430270   7.510   1.097   2.252  0.5899 -0.0506 -0.1574
   84MOL   H22530271   7.441   1.123   2.102  0.1693  0.1767 -0.3021
   84MOL   H22630272   7.648   1.271   2.057  1.2059 -0.1122 -0.9555
   84MOL   H22730273   0.020   1.017   2.022 -0.2104 -1.4057 -0.6850
   84MOL   H22830274   7.622   0.976   2.076 -1.2509  2.5592  3.3289
   84MOL   H22930275   7.499   1.078   1.886  0.8602  1.4916 -0.7481
   84MOL   H23030276   7.656   1.271   1.849  0.1399 -1.5872  1.9339
   84MOL   H23130277   0.028   1.156   1.802  0.2043  0.3728  3.0017
   84MOL   H23230278   7.627   1.183   1.705 -0.3484  1.8638  0.0177
   84MOL   H23330279   7.743   0.913   1.800 -0.2560  0.8096  1.6002
   84MOL   H23430280   7.586   0.844   1.864  0.4855 -0.8806  0.6367
   84MOL   H23530281   7.585   0.939   1.724 -1.1696 -1.1036  0.0990
   84MOL   C23630282   0.006   1.182   2.220  0.3145  0.4011 -0.4338
   84MOL   C23730283   0.141   1.232   2.167 -0.0504  0.1217  0.0223
   84MOL   C23830284   0.245   1.211   2.281  0.7826  0.2827 -0.4164
   84MOL   C23930285   0.305   1.070   2.297  0.1123  0.8223  0.3894
   84MOL   C24030286   0.329   0.996   2.167 -0.4471  0.0250  0.2047
   84MOL   C24130287   0.425   1.064   2.391 -0.2558 -0.1243  0.1520
   84MOL   H24230288   0.012   1.088   2.275 -1.1466  1.3452  1.3953
   84MOL   H24330289   7.731   1.245   2.304 -0.4190 -0.8472  0.2662
   84MOL   H24430290   0.173   1.168   2.086  1.1593 -0.3487  0.8566
   84MOL   H24530291   0.205   1.247   2.376 -2.2333 -2.2164 -0.6311
   84MOL   H24630292   0.333   1.273   2.268  0.9486  0.0540 -0.3769
   84MOL   H24730293   0.229   1.018   2.354 -0.1499  1.8603  0.9813
   84MOL   H24830294   0.393   0.908   2.175 -0.9042 -0.2756  0.5520
   84MOL   H24930295   0.371   1.075   2.105 -1.9268  1.1185  0.5721
   84MOL   H25030296   0.232   0.964   2.126 -0.2899 -2.5410  1.7225
   84MOL   H25130297   0.450   0.960   2.408  0.6791  0.2216  0.9121
   84MOL   H25230298   0.400   1.115   2.485  0.3692 -0.6487  0.6023
   84MOL   H25330299   0.505   1.119   2.341 -0.6999 -1.0396 -1.6012
   84MOL   C25430300   0.135   1.382   2.122  0.3830 -0.2593 -0.4625
   84MOL   C25530301   0.255   1.470   2.087 -0.3033 -0.4263  0.0577
   84MOL   C25630302   0.355   1.393   1.995 -0.2694  0.1081 -0.2904
   84MOL   C25730303   0.498   1.463   1.976 -0.1402 -0.1476  0.8209
   84MOL   C25830304   0.589   1.394   1.871  0.4045  0.3264  0.1744
   84MOL   C25930305   0.573   1.511   2.105 -0.3109 -0.6941 -0.1741
   84MOL   H26030306   0.078   1.378   2.029 -0.3163  2.0580 -0.1722
   84MOL   H26130307   0.073   1.426   2.200  0.5549 -1.7343  0.5331
   84MOL   H26230308   0.293   1.496   2.186  2.5275 -4.3208  0.1498
   84MOL   H26330309   0.303   1.378   1.900  0.9166  0.5053 -1.0222
   84MOL   H26430310   0.377   1.299   2.045  2.1100  0.7479 -0.0652
   84MOL   H26530311   0.475   1.554   1.920  1.3565 -1.5629 -2.1844
   84MOL   H26630312   0.680   1.447   1.843 -0.4865  0.7389 -2.0457
   84MOL   H26730313   0.526   1.364   1.787 -1.4006 -0.6055  1.8253
   84MOL   H26830314   0.618   1.299   1.917 -1.5422 -0.1792  0.3874
   84MOL   H26930315   0.678   1.528   2.084 -0.2326  0.3418  0.9921
   84MOL   H27030316   0.520   1.598   2.144  0.4569  1.7832 -4.3203
   84MOL   H27130317   0.561   1.426   2.172 -2.0712  1.8517  2.8750
   84MOL   C27230318   0.216   1.603   2.019  0.4583  0.2813 -0.5843
   84MOL   C27330319   0.128   1.690   2.117 -0.4574 -0.1795 -0.7646
   84MOL   C27430320   0.210   1.779   2.213  0.1693 -0.1057 -0.0889
   84MOL   C27530321   0.160   1.786   2.360  0.3148 -0.0488 -0.1213
   84MOL   C27630322   0.186   1.923   2.431  0.8825  0.0402  0.2524
   84MOL   C27730323   0.219   1.676   2.442 -0.3241 -0.2063  0.2485
   84MOL   H27830324   0.308   1.657   1.997  0.5958  0.0455 -0.5941
   84MOL   H27930325   0.168   1.563   1.930 -0.4233  0.0998 -0.0359
   84MOL   H28030326   0.075   1.629   2.189 -0.4810  2.5119  1.6172
   84MOL   H28130327   0.232   1.873   2.163 -0.2258 -0.0656 -0.1865
   84MOL   H28230328   0.309   1.734   2.224  0.8389  1.8036  2.2022
   84MOL   H28330329   0.055   1.763   2.376  0.8085 -1.5360  1.1150
   84MOL   H28430330   0.153   2.006   2.369  0.5123 -0.0997  0.2623
   84MOL   H28530331   0.109   1.934   2.508  1.4426  1.4611  0.6319
   84MOL   H28630332   0.283   1.940   2.478  0.7081 -1.3978  1.1670
   84MOL   H28730333   0.170   1.646   2.534  0.3199 -3.1349 -0.3075
   84MOL   H28830334   0.231   1.580   2.390  0.0489 -0.9560  1.6981
   84MOL   H28930335   0.316   1.715   2.472 -0.9699  0.8326  0.9957
   84MOL   C29030336   0.024   1.781   2.029 -0.3862 -0.0976  0.9360
   84MOL   C29130337   7.682   1.887   2.101 -0.3976  0.2973 -0.2593
   84MOL   C29230338   7.637   1.988   1.994 -0.2517 -0.2244 -0.5215
   84MOL   C29330339   7.739   2.088   1.945 -0.1040 -0.5013  0.5943
   84MOL   C29430340   7.673   2.172   1.840 -0.0719 -0.6550 -0.2333
   84MOL   C29530341   0.046   2.182   2.056  0.8581  0.3475  0.0231
   84MOL   H29630342   0.081   1.830   1.951 -0.8516 -1.0051  0.0042
   84MOL   H29730343   7.716   1.707   1.975  0.5283  0.4187 -0.8487
   84MOL   H29830344   7.732   1.941   2.181 -0.2642  0.4009 -0.4114
   84MOL   H29930345   7.555   2.040   2.043  0.7394 -1.8660  3.0405
   84MOL   H30030346   7.587   1.938   1.911  1.0905 -0.7619 -1.0169
   84MOL   H30130347   0.065   2.029   1.896 -0.5550  0.0755 -0.8489
   84MOL   H30230348   7.585   2.223   1.881 -0.8352 -1.4438 -0.8619
   84MOL   H30330349   7.642   2.117   1.751  1.8340 -1.3477 -0.4748
   84MOL   H30430350   7.732   2.259   1.810 -1.0239  0.6846  1.6522
   84MOL   H30530351   7.721   2.199   2.131  0.5053 -0.4594 -0.1564
   84MOL   H30630352   0.076   2.277   2.011 -1.5729  1.4004  0.5276
   84MOL   H30730353   0.130   2.127   2.098 -0.7362 -1.8542  0.3784
   84MOL   C30830354   7.562   1.815   2.164 -0.1292  0.3942 -0.0862
   84MOL   C30930355   7.476   1.904   2.260  0.3388  0.5054 -0.4080
   84MOL   C31030356   7.339   1.840   2.285  0.7713 -0.0695 -0.3162
   84MOL   C31130357   7.229   1.835   2.173  0.6129  0.0188 -0.2450
   84MOL   C31230358   7.125   1.712   2.193  0.0387 -0.0733  0.6624
   84MOL   C31330359   7.153   1.969   2.157  0.0069 -0.2685 -0.3440
   84MOL   H31430360   7.492   1.774   2.091 -1.0760  1.3893  0.2341
   84MOL   H31530361   7.599   1.735   2.228  1.9365 -0.4880 -2.3183
   84MOL   H31630362   7.453   1.997   2.207 -1.0327  1.2882  1.4919
   84MOL   H31730363   7.297   1.890   2.372  0.5144  0.1696 -0.5718
   84MOL   H31830364   7.344   1.736   2.315 -1.8646  0.2950  1.5965
   84MOL   H31930365   7.271   1.803   2.078 -0.8610  1.4961 -1.4190
   84MOL   H32030366   7.048   1.698   2.118 -0.3349 -0.3955  1.1094
   84MOL   H32130367   7.075   1.723   2.289 -3.4552  1.7649 -1.2576
   84MOL   H32230368   7.181   1.619   2.191 -0.6332 -0.5579  3.1753
   84MOL   H32330369   7.071   1.955   2.087 -2.4241 -1.6562  2.7115
   84MOL   H32430370   7.106   2.002   2.249 -1.7339 -2.1329 -0.5487
   84MOL   H32530371   7.223   2.045   2.120  0.0529 -1.7651 -3.4840
   84MOL   C32630372   7.555   1.926   2.393  0.4384  0.0912  0.1699
   84MOL   C32730373   7.486   2.008   2.504  0.4433  0.6959 -0.2443
   84MOL   C32830374   7.469   2.157   2.466 -0.8678  0.0462  0.0302
   84MOL   C32930375   7.356   2.227   2.543  0.4135 -0.1347 -0.1248
   84MOL   C33030376   7.375   2.378   2.538  0.1358 -0.5797  0.6394
   84MOL   C33130377   7.215   2.200   2.500 -0.5982 -1.2363  0.2496
   84MOL   H33230378   7.654   1.962   2.364 -0.2730  0.4329 -1.9601
   84MOL   H33330379   7.562   1.828   2.439 -1.1716  0.4273  1.1519
   84MOL   H33430380   7.391   1.964   2.535 -0.1929  1.4970 -1.0294
   84MOL   H33530381   7.567   2.203   2.475  0.4347 -2.4507 -1.0517
   84MOL   H33630382   7.452   2.180   2.361  0.6262 -1.8818 -0.6564
   84MOL   H33730383   7.358   2.186   2.643 -1.2253 -4.1062 -1.6006
   84MOL   H33830384   7.478   2.411   2.557 -0.8659  2.3473  1.1851
   84MOL   H33930385   7.310   2.427   2.610  0.3565  0.0359  0.4298
   84MOL   H34030386   7.343   2.426   2.445 -0.4962  0.2931  1.2943
   84MOL   H34130387   7.198   2.207   2.392  1.9192 -1.1846 -0.1804
   84MOL   H34230388   7.201   2.093   2.510  0.5983 -1.4825 -0.5829
   84MOL   H34330389   7.142   2.256   2.559 -0.1491 -0.3747 -0.0045
   84MOL   C34430390   7.564   2.012   2.634  0.4725 -0.2366  0.4602
   84MOL   C34530391   7.608   1.878   2.696  0.3273  0.2036  1.2149
   84MOL   C34630392   7.667   1.899   2.827  0.1388  0.0428  0.3588
   84MOL   C34730393   7.704   1.762   2.900 -0.2920 -0.1732 -0.6247
   84MOL   C34830394   7.728   1.773   3.053  0.3051  0.4486 -0.2163
   84MOL   C34930395   0.073   1.695   2.826 -0.0717  0.6983 -0.7948
   84MOL   H35030396   7.502   2.068   2.704 -0.9859 -0.7467 -0.4057
   84MOL   H35130397   7.655   2.071   2.623  0.2508 -0.0284 -0.3127
   84MOL   H35230398   7.679   1.832   2.627  0.3063  0.3991  1.0621
   84MOL   H35330399   0.004   1.962   2.832 -0.4273  0.9282 -0.4137
   84MOL   H35430400   7.591   1.952   2.885 -0.6051 -1.8544  1.1676
   84MOL   H35530401   7.631   1.681   2.900 -2.5945  1.8353  1.6520
   84MOL   H35630402   7.649   1.832   3.099  0.4744 -0.7176  1.5872
   84MOL   H35730403   7.750   1.685   3.113 -0.2501  0.1515 -0.4418
   84MOL   H35830404   0.060   1.842   3.060 -0.2017  1.0770 -0.1999
   84MOL   H35930405   0.049   1.653   2.729  0.5293 -3.0347  0.5962
   84MOL   H36030406   0.113   1.606   2.874 -4.3915 -1.0031 -0.1404
   84MOL   H36130407   0.154   1.767   2.819 -1.9245  3.0334  0.7247
   84MOL   H36230408   7.529   1.804   2.701  1.1220 -0.9927 -2.4000
   85MOL     C130409   1.641   1.545   0.490  0.4614 -0.3310 -0.3311
   85MOL     C230410   1.695   1.468   0.618  0.0043  0.0631 -0.3512
   85MOL     C330411   1.784   1.359   0.575  0.6217 -0.1304  0.1418
   85MOL     C430412   1.858   1.282   0.686 -0.3066  0.7504  0.1067
   85MOL     C530413   1.947   1.381   0.760  0.3649 -0.1449  0.2370
   85MOL     C630414   1.934   1.156   0.621 -0.3060 -0.3637  0.1835
   85MOL     H730415   1.608   1.647   0.512  0.1308  0.3107 -3.6422
   85MOL     H830416   1.710   1.549   0.406  0.9617 -0.0224  0.0904
   85MOL     H930417   1.751   1.538   0.680  0.1341 -0.9348  0.6742
   85MOL    H1030418   1.727   1.284   0.519 -1.7596  2.8928 -1.6411
   85MOL    H1130419   1.854   1.391   0.497  0.5394 -1.5355 -0.5327
   85MOL    H1230420   1.779   1.241   0.750 -0.2378 -1.8519 -1.3782
   85MOL    H1330421   1.991   1.439   0.679 -0.6931 -0.3407 -0.4824
   85MOL    H1430422   1.891   1.443   0.829  0.4823 -1.2138  1.3176
   85MOL    H1530423   2.025   1.330   0.816 -0.3024  0.0925  1.3886
   85MOL    H1630424   2.012   1.186   0.551  0.0048  3.3067  2.0049
   85MOL    H1730425   1.867   1.085   0.572  1.4139 -2.0400  0.2046
   85MOL    H1830426   1.980   1.097   0.701 -0.5715 -1.1841 -0.2686
   85MOL    H1930427   1.548   1.495   0.463  0.5076 -1.5940  1.7311
   85MOL    C2030428   1.571   1.416   0.707 -0.7709  0.2381 -0.6172
   85MOL    C2130429   1.468   1.525   0.753 -0.1269 -0.4360  0.0858
   85MOL    C2230430   1.322   1.469   0.749  1.0410  0.5393 -0.0139
   85MOL    C2330431   1.269   1.474   0.598  0.0573  0.5341  0.2297
   85MOL    C2430432   1.158   1.379   0.570 -0.9180 -0.4167  0.1222
   85MOL    C2530433   1.219   1.618   0.561 -0.6007  0.3381  0.0699
   85MOL    H2630434   1.512   1.338   0.659 -1.1777 -1.8079  3.0237
   85MOL    H2730435   1.616   1.364   0.791  1.7819  1.7882 -0.9805
   85MOL    H2830436   1.471   1.614   0.691  2.4737 -0.3513  0.2925
   85MOL    H2930437   1.251   1.535   0.799 -0.5130 -1.1464  0.0588
   85MOL    H3030438   1.303   1.374   0.800  0.9443  0.8446  0.5251
   85MOL    H3130439   1.352   1.446   0.533 -1.5256  0.1224 -1.6214
   85MOL    H3230440   1.171   1.284   0.622 -3.3998  0.1159  1.8073
   85MOL    H3330441   1.156   1.348   0.465  0.5755  0.7838 -0.2729
   85MOL    H3430442   1.057   1.418   0.581 -0.0602  1.6245  0.8997
   85MOL    H3530443   1.182   1.615   0.458 -3.9220  1.2617  1.1699
   85MOL    H3630444   1.131   1.640   0.622 -0.3267  1.2084  0.1618
   85MOL    H3730445   1.291   1.698   0.578 -0.4912  0.1470  0.5099
   85MOL    C3830446   1.503   1.565   0.899  0.1174 -0.8639  0.0638
   85MOL    C3930447   1.437   1.684   0.965  0.7945 -0.6451 -0.0039
   85MOL    C4030448   1.404   1.797   0.864  0.4254  0.3841 -0.6541
   85MOL    C4130449   1.323   1.918   0.914 -0.6600  0.4741 -0.2341
   85MOL    C4230450   1.181   1.884   0.974  0.4940  1.1122  0.0927
   85MOL    C4330451   1.296   2.011   0.800  0.5196 -0.2219 -0.0560
   85MOL    H4430452   1.611   1.580   0.907 -0.3109  3.6114 -1.4465
   85MOL    H4530453   1.482   1.475   0.957  0.6074  0.0603  1.7109
   85MOL    H4630454   1.339   1.642   0.986  0.4510 -0.1328 -0.5549
   85MOL    H4730455   1.342   1.749   0.789  1.1494  1.4086 -1.9328
   85MOL    H4830456   1.499   1.831   0.822  0.6930  0.9694  0.3934
   85MOL    H4930457   1.379   1.967   0.993  1.4278 -0.1795 -1.2749
   85MOL    H5030458   1.181   1.823   1.065  0.5633  2.8331  1.2567
   85MOL    H5130459   1.128   1.971   1.011  0.8575  2.1446 -1.7496
   85MOL    H5230460   1.127   1.830   0.896  1.9987  1.5514 -1.2839
   85MOL    H5330461   1.254   1.973   0.707  0.8473 -0.1347 -0.2408
   85MOL    H5430462   1.393   2.053   0.772 -0.4107 -0.1449 -3.4175
   85MOL    H5530463   1.239   2.093   0.844 -0.7604 -1.7202  1.1497
   85MOL    C5630464   1.517   1.735   1.088 -0.0310  0.5349  0.2479
   85MOL    C5730465   1.535   1.636   1.201 -0.4891 -0.1063 -0.0377
   85MOL    C5830466   1.413   1.580   1.274  0.0601  0.5088  0.1556
   85MOL    C5930467   1.420   1.457   1.384 -0.2072  0.3531  0.4607
   85MOL    C6030468   1.492   1.328   1.323 -0.5932 -0.0974  0.6884
   85MOL    C6130469   1.277   1.420   1.428  0.4846 -0.0911 -0.9379
   85MOL    H6230470   1.476   1.829   1.126 -2.5834  0.2131 -1.6278
   85MOL    H6330471   1.616   1.756   1.048  0.5542 -1.0733  0.7829
   85MOL    H6430472   1.573   1.549   1.147  1.3356  0.1495  0.7904
   85MOL    H6530473   1.367   1.661   1.330  0.8536 -1.2180  3.4399
   85MOL    H6630474   1.337   1.558   1.199 -0.0225  0.0707  0.3660
   85MOL    H6730475   1.465   1.483   1.480  0.8958 -2.0515  0.6265
   85MOL    H6830476   1.459   1.235   1.369 -1.0712  1.2769  3.1942
   85MOL    H6930477   1.601   1.329   1.318 -0.6234 -0.0050 -0.0848
   85MOL    H7030478   1.460   1.314   1.220  2.8166  1.1630 -0.5973
   85MOL    H7130479   1.224   1.515   1.439 -0.3120 -0.7626  1.3158
   85MOL    H7230480   1.270   1.373   1.526  1.4696 -1.4624 -1.5181
   85MOL    H7330481   1.230   1.359   1.351  1.7041  1.1352 -2.6864
   85MOL    C7430482   1.645   1.691   1.304 -0.4724  0.0145 -0.3914
   85MOL    C7530483   1.790   1.733   1.255 -0.5699 -0.6205  0.7977
   85MOL    C7630484   1.867   1.620   1.188  0.4264 -0.3470 -0.5116
   85MOL    C7730485   1.968   1.666   1.085  0.3956  0.1162 -0.5319
   85MOL    C7830486   1.919   1.734   0.961 -0.2442  0.5660  0.1182
   85MOL    C7930487   2.054   1.544   1.048  0.4698  0.4166  0.0877
   85MOL    H8030488   1.667   1.620   1.383  2.5943  1.6337  0.3015
   85MOL    H8130489   1.609   1.777   1.361  0.5859  0.2353 -0.0371
   85MOL    H8230490   1.772   1.809   1.178 -0.7928 -0.3107  1.1487
   85MOL    H8330491   1.920   1.556   1.258  0.3967  0.1878  0.0066
   85MOL    H8430492   1.795   1.554   1.140  1.0622 -1.6944  0.3638
   85MOL    H8530493   2.046   1.726   1.132 -0.8816  0.2621  1.4534
   85MOL    H8630494   1.852   1.816   0.986 -1.9270 -0.6232 -0.4322
   85MOL    H8730495   1.853   1.666   0.907  0.9049 -1.9494  1.8073
   85MOL    H8830496   1.997   1.782   0.902 -1.2269  1.1851 -0.6968
   85MOL    H8930497   1.996   1.452   1.035  3.6526 -1.3615 -2.4525
   85MOL    H9030498   2.104   1.552   0.951  0.6801 -0.3229  0.1291
   85MOL    H9130499   2.128   1.536   1.127 -0.9266 -0.9652  1.2920
   85MOL    C9230500   1.877   1.798   1.365 -0.8768 -0.4375  0.3060
   85MOL    C9330501   1.874   1.959   1.360 -0.3588  0.5522  0.2547
   85MOL    C9430502   1.913   2.030   1.491 -0.3023 -0.0123 -0.1736
   85MOL    C9530503   1.798   2.011   1.600  0.6377  0.3322  0.0956
   85MOL    C9630504   1.839   2.085   1.728 -0.0663  1.0221 -0.1299
   85MOL    C9730505   1.651   2.048   1.562  0.3683  0.0594 -0.1061
   85MOL    H9830506   1.833   1.763   1.458 -0.4651  2.4798  1.6375
   85MOL    H9930507   1.983   1.772   1.364 -1.2414 -2.0950  1.5137
   85MOL   H10030508   1.772   1.985   1.333  0.2979  1.5274 -1.3462
   85MOL   H10130509   1.919   2.136   1.467  0.9875 -0.3391 -1.3324
   85MOL   H10230510   2.011   2.003   1.530  0.3371  0.9717 -1.0810
   85MOL   H10330511   1.800   1.904   1.617 -0.3373  0.4317  0.8482
   85MOL   H10430512   1.761   2.075   1.803  0.4423  0.0049  0.2623
   85MOL   H10530513   1.848   2.194   1.720 -2.2802  1.1118 -1.9294
   85MOL   H10630514   1.932   2.051   1.773 -0.9277 -0.1157  0.8030
   85MOL   H10730515   1.656   2.152   1.530 -2.2480  1.0627  2.6030
   85MOL   H10830516   1.581   2.031   1.643  2.1054 -0.1963  1.3825
   85MOL   H10930517   1.632   1.980   1.479 -0.7856 -0.7083  0.7678
   85MOL   C11030518   1.978   2.006   1.254 -0.7432 -0.5003  0.4440
   85MOL   C11130519   1.941   2.142   1.182 -0.5194 -0.3878  0.3555
   85MOL   C11230520   2.066   2.199   1.115  0.3125  0.1389  0.0466
   85MOL   C11330521   2.168   2.269   1.210  0.1830 -0.0533  0.1459
   85MOL   C11430522   2.132   2.418   1.233 -0.7780  0.5251  0.0728
   85MOL   C11530523   2.309   2.273   1.145  1.4004  0.0670 -0.0834
   85MOL   H11630524   1.991   1.938   1.170  0.4460  1.8941 -1.3637
   85MOL   H11730525   2.079   2.008   1.294 -0.1767 -0.4745 -0.9477
   85MOL   H11830526   1.900   2.218   1.249  1.6018  0.7863  0.3437
   85MOL   H11930527   2.048   2.280   1.045 -0.4502  0.5321  0.7020
   85MOL   H12030528   2.123   2.135   1.047  1.1537  1.1354 -0.2006
   85MOL   H12130529   2.175   2.212   1.303  4.2622 -2.0396 -1.2814
   85MOL   H12230530   2.023   2.425   1.245 -0.7762  3.1149 -1.1585
   85MOL   H12330531   2.159   2.487   1.153 -1.5562 -0.6074 -1.2015
   85MOL   H12430532   2.177   2.449   1.327 -0.3720  2.0339 -0.6097
   85MOL   H12530533   2.329   2.327   1.053 -1.2051  0.1835 -0.6071
   85MOL   H12630534   2.339   2.170   1.131  0.7888 -0.2556  0.8964
   85MOL   H12730535   2.372   2.325   1.218 -0.1679  2.5223 -0.3875
   85MOL   C12830536   1.846   2.119   1.064  0.0507 -0.1240  0.1610
   85MOL   C12930537   1.748   2.228   1.024 -0.4049 -0.4598 -0.7243
   85MOL   C13030538   1.630   2.229   1.117 -0.6273  0.2200 -0.3421
   85MOL   C13130539   1.516   2.341   1.097 -0.3285 -0.6921  0.1661
   85MOL   C13230540   1.400   2.281   1.019 -0.3578  0.1501  0.3795
   85MOL   C13330541   1.469   2.406   1.227  0.2680  0.4908 -0.0809
   85MOL   H13430542   1.787   2.029   1.081  1.0392 -0.5289  1.5034
   85MOL   H13530543   1.899   2.101   0.970  0.1630 -0.4822  0.2929
   85MOL   H13630544   1.795   2.325   1.037 -1.5536  0.5368 -3.6567
   85MOL   H13730545   1.578   2.134   1.129 -2.1982  0.9889 -0.9160
   85MOL   H13830546   1.674   2.246   1.215  2.8650  2.6439 -2.2063
   85MOL   H13930547   1.561   2.422   1.041  0.8549  0.1892  2.3286
   85MOL   H14030548   1.358   2.194   1.070  0.7920 -0.6949 -0.1112
   85MOL   H14130549   1.431   2.257   0.918 -1.1111 -2.2019  0.6842
   85MOL   H14230550   1.322   2.357   1.006  0.4607  1.0419  0.6270
   85MOL   H14330551   1.388   2.474   1.203  0.8086  1.2441  0.1810
   85MOL   H14430552   1.431   2.337   1.302  0.6001  0.4894  0.0909
   85MOL   H14530553   1.552   2.456   1.278 -0.8504  0.5573  1.7107
   85MOL   C14630554   1.706   2.229   0.880 -0.6588 -0.5553 -0.6613
   85MOL   C14730555   1.825   2.241   0.776 -0.7218  0.4370  0.0593
   85MOL   C14830556   1.824   2.370   0.697  0.1305  0.3759  0.0033
   85MOL   C14930557   1.842   2.506   0.772 -1.0377 -0.8742 -0.3417
   85MOL   C15030558   1.988   2.513   0.837  0.0152  0.1021 -0.0572
   85MOL   C15130559   1.807   2.622   0.675 -0.4887  0.1483  0.3936
   85MOL   H15230560   1.636   2.307   0.849 -0.7912 -0.0308  0.9436
   85MOL   H15330561   1.648   2.138   0.867 -1.4473 -0.2816  0.9127
   85MOL   H15430562   1.925   2.251   0.818 -0.7518  1.1292 -0.0267
   85MOL   H15530563   1.894   2.366   0.614  0.2313 -0.9927  0.1401
   85MOL   H15630564   1.722   2.368   0.657 -0.0924  0.2190  0.5809
   85MOL   H15730565   1.773   2.506   0.857 -0.4287 -2.0871  0.1603
   85MOL   H15830566   1.981   2.482   0.941  0.0758 -2.7049 -0.8538
   85MOL   H15930567   2.023   2.617   0.835 -1.4256  0.5892 -1.1692
   85MOL   H16030568   2.069   2.458   0.788 -0.4439  0.2600 -1.0103
   85MOL   H16130569   1.870   2.609   0.587  0.1856 -0.5138  0.9652
   85MOL   H16230570   1.826   2.715   0.729 -0.4576 -0.0154  0.6630
   85MOL   H16330571   1.702   2.616   0.645  0.0960 -1.3381 -1.4179
   85MOL   C16430572   1.820   2.116   0.689 -0.0245  0.1948  0.6196
   85MOL   C16530573   1.955   2.071   0.612 -0.3020  0.3681 -0.6262
   85MOL   C16630574   2.044   2.006   0.723 -0.1634 -0.0853 -0.9435
   85MOL   C16730575   2.202   2.013   0.710  0.2618 -0.1985 -0.1170
   85MOL   C16830576   2.262   2.160   0.739  0.4518 -0.2461  0.2856
   85MOL   C16930577   2.274   1.912   0.798  0.6233 -0.1101 -0.6153
   85MOL   H17030578   1.770   2.031   0.735  0.7658 -1.9655 -2.3279
   85MOL   H17130579   1.748   2.136   0.609  1.1449  1.8113 -0.0496
   85MOL   H17230580   2.001   2.166   0.584  0.6026 -0.0840 -0.7211
   85MOL   H17330581   2.029   2.056   0.819 -1.0057  0.1780 -1.2049
   85MOL   H17430582   2.002   1.906   0.730  0.6349 -0.3398  0.2432
   85MOL   H17530583   2.231   1.990   0.608 -0.9153 -2.3138  0.0078
   85MOL   H17630584   2.227   2.227   0.660 -4.0240 -1.8756  0.7601
   85MOL   H17730585   2.371   2.156   0.731  0.4785 -0.0909  0.5863
   85MOL   H17830586   2.234   2.187   0.841  0.0768  1.8304 -0.3369
   85MOL   H17930587   2.376   1.903   0.760  0.7596  0.9829 -0.5089
   85MOL   H18030588   2.218   1.819   0.790 -1.0297  0.7240  0.8713
   85MOL   H18130589   2.269   1.942   0.903 -0.1723  0.7900 -0.9109
   85MOL   C18230590   1.934   1.985   0.485 -0.1064 -0.0068  0.3297
   85MOL   C18330591   2.058   1.955   0.397 -0.4847 -0.3049 -0.2495
   85MOL   C18430592   2.013   1.843   0.293  0.5419 -0.4376 -0.2171
   85MOL   C18530593   1.968   1.704   0.341 -0.3558  0.0900  0.1489
   85MOL   C18630594   1.929   1.606   0.227 -0.2973 -0.1097  0.3798
   85MOL   C18730595   2.055   1.637   0.447 -0.4067 -0.1562 -0.0717
   85MOL   H18830596   1.864   2.035   0.418  1.3727  0.8093 -0.6320
   85MOL   H18930597   1.903   1.891   0.530  0.1686  0.7566  2.1467
   85MOL   H19030598   2.133   1.906   0.458  0.7867  1.1358 -0.6174
   85MOL   H19130599   2.097   1.821   0.228  0.6041  2.2599 -1.1334
   85MOL   H19230600   1.947   1.896   0.224  1.7215  3.6847  1.6094
   85MOL   H19330601   1.869   1.725   0.383 -0.5779 -0.6755  0.0236
   85MOL   H19430602   1.885   1.515   0.267  0.1911 -0.7231 -0.4636
   85MOL   H19530603   2.019   1.579   0.171  0.6001  1.8210  0.8280
   85MOL   H19630604   1.862   1.654   0.156 -0.2723  1.6298  1.5046
   85MOL   H19730605   2.163   1.647   0.438 -0.3153 -0.4629  0.6596
   85MOL   H19830606   2.034   1.531   0.458  1.4644 -0.4003  1.3636
   85MOL   H19930607   2.027   1.680   0.543 -0.3741  0.3541 -0.2840
   85MOL   C20030608   2.124   2.085   0.336 -0.4525  0.1299  0.2670
   85MOL   C20130609   2.252   2.064   0.253 -0.4898  0.4368 -0.1159
   85MOL   C20230610   2.352   1.966   0.321 -0.5082 -0.4927  0.2219
   85MOL   C20330611   2.496   1.956   0.256 -0.0955  0.5489 -0.1416
   85MOL   C20430612   2.592   1.889   0.352  1.3171  0.0148  0.5889
   85MOL   C20530613   2.497   1.889   0.119  0.0045 -0.2430 -0.4139
   85MOL   H20630614   2.118   2.155   0.419 -1.5773  0.8799 -0.4309
   85MOL   H20730615   2.052   2.124   0.264 -0.4143 -1.0178 -0.4024
   85MOL   H20830616   2.227   2.016   0.158 -0.9069 -2.2259  1.3135
   85MOL   H20930617   2.373   2.000   0.423 -1.1002  1.6872 -0.3595
   85MOL   H21030618   2.306   1.868   0.333 -1.4876 -0.0573  0.0630
   85MOL   H21130619   2.526   2.060   0.241 -0.5681  0.6663 -0.2782
   85MOL   H21230620   2.588   1.954   0.439 -1.3249  1.7113 -0.7363
   85MOL   H21330621   2.690   1.866   0.309  0.5886 -2.8548  0.3646
   85MOL   H21430622   2.554   1.790   0.376 -2.5666  1.4983  0.8556
   85MOL   H21530623   2.599   1.877   0.083  0.1941 -1.2561  0.4334
   85MOL   H21630624   2.448   1.942   0.037 -0.8489 -0.4539 -0.0363
   85MOL   H21730625   2.443   1.795   0.118 -0.9183  0.2790 -0.1151
   85MOL   C21830626   2.307   2.206   0.236  0.3902 -0.9748 -0.7707
   85MOL   C21930627   2.377   2.245   0.108  0.2589 -0.3162  0.3328
   85MOL   C22030628   2.502   2.325   0.140  0.2089 -0.4819  0.4182
   85MOL   C22130629   2.599   2.362   0.032  0.8637  0.5253 -0.0654
   85MOL   C22230630   2.721   2.448   0.083  0.5395 -0.5632  0.2586
   85MOL   C22330631   2.632   2.241   7.696 -0.0222  0.1301 -0.3394
   85MOL   H22430632   2.229   2.281   0.250  0.4763 -1.4750  2.9796
   85MOL   H22530633   2.360   2.236   0.326 -0.4964 -0.2849 -0.4678
   85MOL   H22630634   2.402   2.156   0.052  0.8116  1.2510 -1.9810
   85MOL   H22730635   2.476   2.416   0.195 -1.3801 -0.1843 -0.7689
   85MOL   H22830636   2.557   2.266   0.213 -0.4106 -2.3349 -0.5882
   85MOL   H22930637   2.548   2.429   7.716 -2.2508 -2.1041 -0.4554
   85MOL   H23030638   2.787   2.375   0.129  0.0935  1.0922  3.6517
   85MOL   H23130639   2.770   2.477   7.742  0.5312 -0.9340  0.1383
   85MOL   H23230640   2.707   2.528   0.156  0.0491 -1.2797  0.9541
   85MOL   H23330641   2.718   2.260   7.632 -0.7834 -0.4630 -1.5582
   85MOL   H23430642   2.652   2.157   0.010  1.2880  0.1927 -0.6461
   85MOL   H23530643   2.553   2.213   7.626 -0.0764 -1.5669  0.3922
   85MOL   C23630644   2.273   2.323   0.018 -0.3326  0.2381  0.3107
   85MOL   C23730645   2.142   2.255   7.719 -0.0358 -0.3570  0.3239
   85MOL   C23830646   2.177   2.146   7.613 -0.2992  0.2333 -0.3118
   85MOL   C23930647   2.062   2.046   7.569 -0.5424 -0.5308  0.1768
   85MOL   C24030648   2.084   2.004   7.421  0.5704 -0.2947 -0.0258
   85MOL   C24130649   2.042   1.925   7.662  0.1640  0.2700  0.0689
   85MOL   H24230650   2.325   2.356   7.681  0.9167  0.6200  1.1708
   85MOL   H24330651   2.255   2.411   0.080  1.9773  0.3714  0.8446
   85MOL   H24430652   2.090   2.210   0.051  2.2059 -3.6290  0.0284
   85MOL   H24530653   2.269   2.095   7.640 -0.5879  0.2326  0.7044
   85MOL   H24630654   2.212   2.204   7.527  0.9198  0.5842  0.4100
   85MOL   H24730655   1.968   2.101   7.571 -0.0226  0.4639 -1.2334
   85MOL   H24830656   2.158   1.925   7.431  0.2239 -0.6064  0.1184
   85MOL   H24930657   2.131   2.084   7.364 -0.0834 -1.1536 -1.7856
   85MOL   H25030658   1.991   1.976   7.372  0.6600  0.0392 -0.3795
   85MOL   H25130659   1.937   1.903   7.642  0.1731 -2.0666  2.4576
   85MOL   H25230660   2.048   1.950   0.015 -0.2090 -2.0714  0.6715
   85MOL   H25330661   2.108   1.840   7.643  0.6287  0.4491  0.8594
   85MOL   C25430662   2.045   2.361   7.661  0.3719 -0.5862 -0.1600
   85MOL   C25530663   1.917   2.370   7.734 -0.4608 -0.5074 -0.8965
   85MOL   C25630664   1.930   2.446   0.113  0.2261  0.1444  1.0039
   85MOL   C25730665   1.815   2.454   0.207  0.0560 -0.6612  0.3140
   85MOL   C25830666   1.833   2.571   0.302 -0.0661  0.2490  0.4234
   85MOL   C25930667   1.803   2.327   0.287 -0.8309 -0.1484 -0.2757
   85MOL   H26030668   2.089   2.461   7.653  2.2333 -1.5191 -2.0685
   85MOL   H26130669   2.019   2.339   7.557 -0.4686  2.5916 -0.6988
   85MOL   H26230670   1.889   2.267   0.005  0.4186 -0.7841 -1.0502
   85MOL   H26330671   1.949   2.552   0.097 -1.6825  0.4482  0.6072
   85MOL   H26430672   2.020   2.412   0.165 -0.6594 -2.4866  0.8802
   85MOL   H26530673   1.720   2.464   0.154  0.6471  1.1433 -0.4613
   85MOL   H26630674   1.835   2.658   0.237  2.9621 -0.7392 -0.8643
   85MOL   H26730675   1.931   2.567   0.349  1.2831 -0.4451 -2.3600
   85MOL   H26830676   1.750   2.572   0.374 -1.0584  0.3147 -0.7069
   85MOL   H26930677   1.891   2.299   0.345  0.3820 -0.4951 -2.2723
   85MOL   H27030678   1.727   2.352   0.361  1.6733  0.6840  2.1129
   85MOL   H27130679   1.779   2.240   0.226 -1.3255  0.1805 -0.5545
   85MOL   C27230680   1.814   2.438   7.636  0.1122 -0.1738  0.2065
   85MOL   C27330681   1.747   2.353   7.521  0.2728 -0.1893 -0.7460
   85MOL   C27430682   1.635   2.257   7.587 -0.0205  0.2557 -0.5192
   85MOL   C27530683   1.568   2.151   7.497  0.2081  0.3230 -0.4981
   85MOL   C27630684   1.440   2.092   7.574  1.0611  0.1500  0.3886
   85MOL   C27730685   1.667   2.044   7.451  0.3615 -0.8619 -0.6664
   85MOL   H27830686   1.732   2.481   7.693  0.4707  0.3446  0.3330
   85MOL   H27930687   1.869   2.521   7.593 -0.7762 -0.5813 -1.7790
   85MOL   H28030688   1.820   2.291   7.469  1.7602  0.3713  0.6247
   85MOL   H28130689   1.543   2.305   7.623 -1.1206 -0.7778 -1.8909
   85MOL   H28230690   1.677   2.218   7.680 -3.1052  1.2078  1.3958
   85MOL   H28330691   1.516   2.193   7.412 -1.2653  4.2908  2.2121
   85MOL   H28430692   1.387   2.024   7.507  0.1041  1.8641 -0.6610
   85MOL   H28530693   1.467   2.048   7.670 -0.8599 -2.0201 -0.0206
   85MOL   H28630694   1.368   2.169   7.602 -0.9694 -1.1788 -1.0385
   85MOL   H28730695   1.711   1.996   7.539  0.1426  2.1773  1.1948
   85MOL   H28830696   1.611   1.974   7.389 -1.9361 -0.4178  0.8631
   85MOL   H28930697   1.750   2.091   7.398 -0.5965  2.3288  0.5260
   85MOL   C29030698   1.662   2.440   7.417 -0.5102 -0.3510  0.6765
   85MOL   C29130699   1.737   2.538   7.319  0.3785  1.0308 -0.4505
   85MOL   C29230700   1.820   2.458   7.210 -0.3256  0.9352 -0.3000
   85MOL   C29330701   1.954   2.519   7.169 -0.3690 -0.2911  0.0382
   85MOL   C29430702   2.059   2.526   7.282 -0.0564  0.1148  0.0161
   85MOL   C29530703   2.002   2.438   7.059 -0.5142 -0.3215 -0.1261
   85MOL   H29630704   1.603   2.375   7.353 -1.4226 -0.8859  2.0191
   85MOL   H29730705   1.593   2.506   7.469 -0.0239  1.0400 -0.4006
   85MOL   H29830706   1.801   2.592   7.389 -1.0704 -0.4401  2.0347
   85MOL   H29930707   1.762   2.446   7.119 -0.1659 -0.5222 -0.2237
   85MOL   H30030708   1.829   2.355   7.244  2.0595  0.1155 -3.2469
   85MOL   H30130709   1.929   2.618   7.130 -1.7942 -0.6301  0.0769
   85MOL   H30230710   2.068   2.429   7.332  0.5189 -1.0133 -2.1839
   85MOL   H30330711   2.027   2.600   7.354 -2.1706 -2.6114  1.9923
   85MOL   H30430712   2.163   2.548   7.256  0.0719  2.5116  2.3176
   85MOL   H30530713   2.097   2.476   7.023  0.0560 -0.6787  0.9841
   85MOL   H30630714   1.932   2.450   6.976 -0.3569  0.9294 -0.0954
   85MOL   H30730715   2.007   2.332   7.085  0.4613  0.2692  2.2575
   85MOL   C30830716   1.644   2.650   7.264 -0.4716  0.0622 -0.3517
   85MOL   C30930717   1.716   2.785   7.236 -0.4061  0.2781  0.1214
   85MOL   C31030718   1.634   2.879   7.147  0.4023  0.0468 -0.2045
   85MOL   C31130719   1.582   2.823   7.010  0.2872 -0.0244 -0.8285
   85MOL   C31230720   1.486   2.924   6.941 -0.1352 -0.3652  0.3535
   85MOL   C31330721   1.684   2.756   6.908 -0.2546  0.3990  0.1383
   85MOL   H31430722   1.600   2.605   7.175  2.2030 -3.4110 -0.0634
   85MOL   H31530723   1.563   2.670   7.334 -1.3957 -1.9102 -0.8189
   85MOL   H31630724   1.807   2.767   7.180 -0.1525  0.2822  0.5303
   85MOL   H31730725   1.699   2.962   7.118  0.8773 -1.2031 -2.9020
   85MOL   H31830726   1.543   2.925   7.186 -0.6632 -0.2717 -2.2074
   85MOL   H31930727   1.510   2.745   7.035  0.4965 -0.3149 -1.1128
   85MOL   H32030728   1.453   2.905   6.839  0.4707 -0.6707  0.2117
   85MOL   H32130729   1.527   3.023   6.918 -0.0138 -0.8150 -1.4370
   85MOL   H32230730   1.402   2.935   7.010  0.6362 -0.9619  1.4039
   85MOL   H32330731   1.756   2.830   6.872 -0.6105  0.1819 -1.0194
   85MOL   H32430732   1.737   2.674   6.958 -2.8771 -0.2593  1.9330
   85MOL   H32530733   1.640   2.718   6.817 -0.2816  0.2136  0.2269
   85MOL   C32630734   1.769   2.854   7.369 -0.0495 -0.0797 -0.1313
   85MOL   C32730735   1.674   2.949   7.443  0.1940 -0.4500 -0.8996
   85MOL   C32830736   1.717   3.100   7.431  0.0496  0.5559 -1.0643
   85MOL   C32930737   1.601   3.206   7.441  0.2278 -0.0163  0.7124
   85MOL   C33030738   1.654   3.347   7.447  0.5047 -0.0852  0.5116
   85MOL   C33130739   1.491   3.192   7.330  0.6418 -0.4193 -0.5405
   85MOL   H33230740   1.838   2.923   7.320  1.7385 -1.9534 -0.3319
   85MOL   H33330741   1.839   2.795   7.429 -0.4481 -0.1839  0.2353
   85MOL   H33430742   1.574   2.950   7.399  0.0309  2.5893 -0.5834
   85MOL   H33530743   1.794   3.123   7.504  0.8612 -1.4567 -1.2555
   85MOL   H33630744   1.778   3.117   7.342  1.7975 -3.0344 -0.6284
   85MOL   H33730745   1.544   3.184   7.531  0.2168 -1.1417  0.4495
   85MOL   H33830746   1.731   3.351   7.525  2.1046 -0.7978 -0.9979
   85MOL   H33930747   1.578   3.423   7.465  0.1694 -0.7841  2.1076
   85MOL   H34030748   1.691   3.376   7.349  1.0921 -0.3668  0.6498
   85MOL   H34130749   1.534   3.193   7.230  0.6413 -3.7163 -0.6176
   85MOL   H34230750   1.448   3.093   7.343 -0.8667  0.2984  0.1332
   85MOL   H34330751   1.411   3.266   7.342  1.2757 -0.2450  2.8851
   85MOL   C34430752   1.672   2.915   7.594  0.8677  0.4619  0.5883
   85MOL   C34530753   1.616   2.778   7.612  0.1774  0.0013  0.2445
   85MOL   C34630754   1.557   2.756   0.008 -0.2911  0.6879  0.5027
   85MOL   C34730755   1.484   2.623   0.037 -0.5238 -0.1422  0.0857
   85MOL   C34830756   1.357   2.616   7.699 -0.1535  0.7200  0.4900
   85MOL   C34930757   1.457   2.614   0.183  0.0779  0.0770 -0.1166
   85MOL   H35030758   1.607   2.989   7.642 -0.5524  0.5519 -1.4181
   85MOL   H35130759   1.770   2.915   7.643  2.0348 -0.8955 -1.6664
   85MOL   H35230760   1.698   2.707   7.593 -0.3777 -0.3928 -0.6818
   85MOL   H35330761   1.649   2.762   0.067 -0.7718  0.4187  1.2962
   85MOL   H35430762   1.504   2.846   0.039 -0.0747  0.7630  0.6612
   85MOL   H35530763   1.556   2.544   0.015 -1.8602 -1.5472  0.5933
   85MOL   H35630764   1.395   2.616   7.597  0.1398 -0.5170  0.5942
   85MOL   H35730765   1.308   2.518   7.705 -1.0492  1.1681  0.6827
   85MOL   H35830766   1.282   2.694   7.707 -1.1325 -0.2744  1.2023
   85MOL   H35930767   1.545   2.613   0.248 -2.0229  2.1454  2.9340
   85MOL   H36030768   1.410   2.519   0.210 -0.4492  0.2281 -0.5054
   85MOL   H36130769   1.385   2.691   0.213  0.1039 -0.5829  1.7349
   85MOL   H36230770   1.539   2.763   7.537  0.6248 -0.1468 -0.1893
   86MOL     C130771   7.480   4.064   6.024  0.0398  0.7024 -0.3115
   86MOL     C230772   7.356   3.980   5.995 -0.5886 -0.4486  0.2412
   86MOL     C330773   7.363   3.833   6.058  0.1677 -0.2102 -0.0452
   86MOL     C430774   7.239   3.739   6.063 -0.4691  0.5356  0.1831
   86MOL     C530775   7.121   3.814   6.155  0.2861  0.3151  0.3786
   86MOL     C630776   7.272   3.604   6.117 -0.5102  0.3562 -0.1071
   86MOL     H730777   7.463   4.170   6.005  0.2178  0.6374 -0.8180
   86MOL     H830778   7.507   4.056   6.130  0.5605 -0.3785 -0.5260
   86MOL     H930779   7.279   4.037   6.047 -0.2075  0.2029  0.0998
   86MOL    H1030780   7.435   3.783   5.994 -1.8861 -0.8882 -1.8905
   86MOL    H1130781   7.406   3.852   6.157  0.9495  0.6742 -0.5425
   86MOL    H1230782   7.199   3.721   5.963  0.0484 -0.7891  0.2057
   86MOL    H1330783   7.157   3.835   6.256  0.7221 -1.0691  0.5283
   86MOL    H1430784   7.099   3.905   6.101 -2.3690 -1.2711 -1.3153
   86MOL    H1530785   7.029   3.755   6.158 -0.0693  0.7654 -1.1307
   86MOL    H1630786   7.319   3.603   6.215 -2.4091  0.0372  0.8149
   86MOL    H1730787   7.337   3.549   6.049  1.2360 -0.4192  2.1149
   86MOL    H1830788   7.184   3.543   6.139 -0.2489 -0.7256 -1.9310
   86MOL    H1930789   7.565   4.020   5.972 -0.4636 -1.2387  0.4629
   86MOL    C2030790   7.327   3.980   5.848  0.5998  0.8326 -0.5361
   86MOL    C2130791   7.318   4.117   5.765 -0.3356 -0.3437  0.3497
   86MOL    C2230792   7.369   4.100   5.617  0.0646  0.3028 -0.3132
   86MOL    C2330793   7.269   4.047   5.511 -0.1110 -0.5011  0.6477
   86MOL    C2430794   7.327   4.060   5.368 -0.4282 -0.0833  0.4411
   86MOL    C2530795   7.212   3.907   5.544 -0.6543  0.0337  0.0598
   86MOL    H2630796   7.401   3.916   5.799 -1.4264 -1.6829 -0.4048
   86MOL    H2730797   7.228   3.935   5.836  2.3935 -3.1903 -1.1396
   86MOL    H2830798   7.382   4.191   5.813 -2.4320  0.2180  2.4092
   86MOL    H2930799   7.459   4.040   5.624  0.0110  0.4702  2.3247
   86MOL    H3030800   7.398   4.201   5.588  1.0232  0.1751  0.1784
   86MOL    H3130801   7.178   4.106   5.512  0.0052 -0.3145  2.2474
   86MOL    H3230802   7.253   4.009   5.307  1.7611 -2.3510 -0.3908
   86MOL    H3330803   7.422   4.007   5.376 -0.1370  0.4700  0.6942
   86MOL    H3430804   7.348   4.165   5.348  2.9801 -0.4549  1.6881
   86MOL    H3530805   7.150   3.865   5.465 -1.4539  0.4303  0.4708
   86MOL    H3630806   7.293   3.837   5.564  1.7540  2.1707 -1.8508
   86MOL    H3730807   7.146   3.904   5.631 -1.7053  0.7373 -0.6983
   86MOL    C3830808   7.180   4.175   5.779 -0.6340  0.4898  0.1378
   86MOL    C3930809   7.158   4.318   5.717  0.5234  0.1517 -0.7652
   86MOL    C4030810   7.241   4.427   5.793 -1.0085  0.5857 -0.4632
   86MOL    C4130811   7.233   4.575   5.759 -0.4409  0.3575  0.6197
   86MOL    C4230812   7.286   4.615   5.619 -0.3732  0.7487 -0.1186
   86MOL    C4330813   7.317   4.658   5.855 -0.2270 -0.7065  0.4116
   86MOL    H4430814   7.164   4.181   5.887  3.2891  2.9961  0.6891
   86MOL    H4530815   7.115   4.103   5.730  1.5057 -2.0027  0.8791
   86MOL    H4630816   7.191   4.326   5.614  1.1640  2.1527 -0.4345
   86MOL    H4730817   7.345   4.403   5.771 -0.5515  0.1725  2.0021
   86MOL    H4830818   7.224   4.412   5.899  0.9933  1.3850 -0.0087
   86MOL    H4930819   7.131   4.613   5.760 -0.5033  0.1873  0.8950
   86MOL    H5030820   7.291   4.724   5.608  1.1635  0.9173  1.8567
   86MOL    H5130821   7.382   4.572   5.591  0.4054  1.3054  1.5709
   86MOL    H5230822   7.212   4.585   5.546  0.7397  0.6716 -1.2232
   86MOL    H5330823   7.422   4.632   5.839  0.5487  3.1747 -1.3796
   86MOL    H5430824   7.294   4.650   5.962 -0.7213 -2.4183  0.1910
   86MOL    H5530825   7.317   4.763   5.827 -3.2488 -0.8071 -0.1150
   86MOL    C5630826   7.011   4.354   5.700  0.6176 -0.3945 -0.5289
   86MOL    C5730827   6.935   4.274   5.594  0.3138  0.6621 -1.3286
   86MOL    C5830828   6.964   4.334   5.453 -0.5394  0.8128 -0.3674
   86MOL    C5930829   6.871   4.278   5.337 -0.0208 -0.1075 -0.3421
   86MOL    C6030830   6.888   4.125   5.327 -0.8488 -0.0825 -0.3675
   86MOL    C6130831   6.902   4.349   5.210  0.2393  0.1494 -0.0238
   86MOL    H6230832   6.989   4.458   5.676  0.0090 -0.3791  0.0807
   86MOL    H6330833   6.960   4.344   5.796 -1.2798  0.6099 -1.4014
   86MOL    H6430834   6.969   4.170   5.598  0.1309  0.6670  0.5859
   86MOL    H6530835   6.944   4.442   5.459  0.0768  0.9364 -0.5501
   86MOL    H6630836   7.067   4.341   5.419  0.5575 -1.1002  2.3464
   86MOL    H6730837   6.764   4.293   5.350  0.4752  1.2755  2.5047
   86MOL    H6830838   6.820   4.088   5.250  0.3438 -0.2720 -1.3406
   86MOL    H6930839   6.842   4.081   5.415 -0.1783  1.3091  0.6935
   86MOL    H7030840   6.994   4.102   5.318 -0.7482 -0.5679  1.7700
   86MOL    H7130841   6.861   4.450   5.201 -0.9126 -0.2277  0.8495
   86MOL    H7230842   6.859   4.287   5.131  0.1781 -1.2881  1.1166
   86MOL    H7330843   7.008   4.353   5.187 -0.3634 -0.1221 -3.1674
   86MOL    C7430844   6.782   4.268   5.624  0.2596 -0.5950 -0.0101
   86MOL    C7530845   6.730   4.193   5.756 -0.7288  0.3117 -0.1972
   86MOL    C7630846   6.743   4.040   5.738 -0.1059  0.3950 -0.3232
   86MOL    C7730847   6.737   3.959   5.872  0.4024 -0.0477  0.1073
   86MOL    C7830848   6.864   3.968   5.961  0.4935 -0.2930 -0.2402
   86MOL    C7930849   6.710   3.807   5.852  0.7545 -0.1471 -0.7775
   86MOL    H8030850   6.736   4.216   5.539  0.5776  0.1319 -0.6287
   86MOL    H8130851   6.743   4.369   5.616  1.4055  0.0590  2.4140
   86MOL    H8230852   6.797   4.215   5.838 -0.2167  0.5866 -0.6826
   86MOL    H8330853   6.675   4.008   5.658 -0.5656  1.6535 -0.4383
   86MOL    H8430854   6.839   4.019   5.691  0.2999  1.1046  0.1797
   86MOL    H8530855   6.662   4.003   5.939 -0.9352  0.4256 -1.6287
   86MOL    H8630856   6.957   3.955   5.905  1.0757 -1.2733  0.9277
   86MOL    H8730857   6.867   3.892   6.039 -1.6961 -1.6189 -1.4039
   86MOL    H8830858   6.865   4.063   6.016  1.7052 -0.2568 -0.3168
   86MOL    H8930859   6.622   3.783   5.792 -1.5117 -0.1835  2.4181
   86MOL    H9030860   6.801   3.762   5.811  1.7709  0.8913  0.2976
   86MOL    H9130861   6.679   3.761   5.946  0.2966  0.5335 -0.5988
   86MOL    C9230862   6.582   4.235   5.786 -0.7466  0.5603 -0.4740
   86MOL    C9330863   6.559   4.355   5.887  0.8760 -0.0995  0.6713
   86MOL    C9430864   6.417   4.414   5.862  0.5352  0.1932 -0.3730
   86MOL    C9530865   6.406   4.569   5.884 -0.2522 -0.2477 -0.3226
   86MOL    C9630866   6.424   4.637   5.744  0.0077  0.6590  0.1060
   86MOL    C9730867   6.276   4.618   5.945 -0.1131 -0.4048  0.3036
   86MOL    H9830868   6.541   4.256   5.687 -2.2027  0.0677  0.0130
   86MOL    H9930869   6.533   4.150   5.834 -1.4657  1.9528  1.3613
   86MOL   H10030870   6.626   4.435   5.858  0.4125 -0.1896 -0.6886
   86MOL   H10130871   6.344   4.381   5.936  1.9819  2.3422  2.1284
   86MOL   H10230872   6.381   4.392   5.762  3.5737  0.0496 -1.4929
   86MOL   H10330873   6.485   4.592   5.955 -0.8045  2.8585 -0.6390
   86MOL   H10430874   6.454   4.741   5.753 -0.4752  0.7133  1.0568
   86MOL   H10530875   6.333   4.635   5.684  0.7593 -0.8259 -1.0423
   86MOL   H10630876   6.504   4.588   5.688  0.9874 -1.2558  3.0767
   86MOL   H10730877   6.276   4.726   5.958 -2.2342 -0.2695 -0.5440
   86MOL   H10830878   6.267   4.602   6.053 -3.2300  1.5543  0.4012
   86MOL   H10930879   6.181   4.589   5.898 -1.5347 -0.2487  2.9856
   86MOL   C11030880   6.576   4.311   6.037  0.6650 -0.0755  0.0580
   86MOL   C11130881   6.665   4.401   6.125 -0.4353 -0.1596 -0.2710
   86MOL   C11230882   6.632   4.377   6.273 -0.1999  0.1732  0.2324
   86MOL   C11330883   6.507   4.463   6.318  0.2622 -0.0933  0.3594
   86MOL   C11430884   6.554   4.606   6.331 -0.0963 -0.1909  0.5968
   86MOL   C11530885   6.466   4.418   6.456  0.4501 -0.1337  0.1400
   86MOL   H11630886   6.615   4.210   6.050  0.2340 -0.3490 -0.7822
   86MOL   H11730887   6.474   4.306   6.075  0.9089  2.8710  1.2065
   86MOL   H11830888   6.645   4.505   6.099  0.3602 -0.7034 -3.2735
   86MOL   H11930889   6.710   4.399   6.346  0.0213 -0.3721  0.1590
   86MOL   H12030890   6.603   4.273   6.285 -0.6869  0.1470 -1.1113
   86MOL   H12130891   6.423   4.452   6.250  0.2797 -2.2831  0.6343
   86MOL   H12230892   6.479   4.670   6.376 -0.2176 -1.2346  1.9213
   86MOL   H12330893   6.583   4.660   6.241 -0.7366  0.6416  0.8919
   86MOL   H12430894   6.642   4.621   6.394  0.8055  0.2151 -0.7168
   86MOL   H12530895   6.528   4.428   6.545 -0.9314 -0.4299  1.1587
   86MOL   H12630896   6.448   4.311   6.451  2.9283 -0.6370  1.5359
   86MOL   H12730897   6.368   4.465   6.467  0.8082 -0.0450  3.6042
   86MOL   C12830898   6.819   4.377   6.101 -0.2626  0.1076  0.1723
   86MOL   C12930899   6.927   4.441   6.187  0.4293 -0.2818  0.1304
   86MOL   C13030900   6.906   4.598   6.203 -0.2323  0.4637  0.6225
   86MOL   C13130901   6.991   4.659   6.314  0.2808 -0.5146 -0.1255
   86MOL   C13230902   6.971   4.815   6.316  0.6127 -0.0100 -0.7573
   86MOL   C13330903   6.950   4.605   6.457 -0.0033  0.3096  0.1000
   86MOL   H13430904   6.842   4.393   5.996  0.5748 -0.3538  0.2812
   86MOL   H13530905   6.832   4.270   6.117 -1.2174 -0.1573 -0.6843
   86MOL   H13630906   6.921   4.403   6.289 -0.6559 -0.4791 -0.0025
   86MOL   H13730907   6.934   4.637   6.105  0.7352  0.5208  0.9188
   86MOL   H13830908   6.804   4.624   6.230  0.1669 -0.0472  2.7322
   86MOL   H13930909   7.098   4.656   6.294 -0.3583  0.5080 -4.0921
   86MOL   H14030910   6.867   4.840   6.340  0.2339 -2.5108  0.3617
   86MOL   H14130911   6.987   4.851   6.214  0.3499 -0.2178 -0.8729
   86MOL   H14230912   7.042   4.875   6.372 -0.4260  1.8132 -1.3148
   86MOL   H14330913   6.999   4.661   6.536  1.2346 -2.3113  1.2328
   86MOL   H14430914   6.845   4.622   6.480  0.2029 -0.1577  1.4249
   86MOL   H14530915   6.975   4.500   6.472 -1.1711  0.2561  1.9064
   86MOL   C14630916   7.071   4.406   6.137  0.1154  0.3830  0.4049
   86MOL   C14730917   7.170   4.353   6.248 -0.0906 -0.1373  0.7056
   86MOL   C14830918   7.314   4.373   6.210 -0.2140  0.0602  0.4781
   86MOL   C14930919   7.373   4.518   6.250 -0.0292  0.5154 -0.2679
   86MOL   C15030920   7.399   4.519   6.404 -0.7506  0.6640 -0.8618
   86MOL   C15130921   7.503   4.541   6.175 -0.0078  0.0217  0.2128
   86MOL   H15230922   7.125   4.495   6.106  0.2671 -0.2445 -1.1792
   86MOL   H15330923   7.065   4.339   6.051 -1.0702  0.9518  0.0364
   86MOL   H15430924   7.156   4.408   6.341 -3.2418 -0.5770  0.5614
   86MOL   H15530925   7.377   4.299   6.258  1.3875  1.4947  0.6503
   86MOL   H15630926   7.328   4.365   6.102  1.1203 -0.9806  0.7169
   86MOL   H15730927   7.309   4.603   6.225 -0.0147  0.2198 -1.3486
   86MOL   H15830928   7.474   4.593   6.429  0.2249 -0.6120  0.0424
   86MOL   H15930929   7.453   4.428   6.428 -0.5158  0.9256 -0.3856
   86MOL   H16030930   7.304   4.534   6.455 -1.5705  0.8854 -2.4016
   86MOL   H16130931   7.571   4.456   6.179 -3.0880 -2.5001  1.2699
   86MOL   H16230932   7.555   4.624   6.223  0.3551  0.1817 -0.4645
   86MOL   H16330933   7.501   4.557   6.068  3.1501  0.7945  0.2120
   86MOL   C16430934   7.137   4.210   6.284 -0.2071 -0.1693  0.7319
   86MOL   C16530935   7.096   4.175   6.432  0.3002 -0.0849  0.1843
   86MOL   C16630936   7.013   4.046   6.444 -0.0119 -1.2477  0.3537
   86MOL   C16730937   6.860   4.073   6.422 -0.1755  0.0368  0.8678
   86MOL   C16830938   6.782   3.946   6.388 -0.0179  0.0516 -0.4590
   86MOL   C16930939   6.787   4.140   6.540 -0.3706 -0.3459 -0.5349
   86MOL   H17030940   7.060   4.169   6.218  0.8334 -0.4708 -0.2993
   86MOL   H17130941   7.224   4.150   6.262 -0.3392 -0.6094  1.3916
   86MOL   H17230942   7.032   4.257   6.463 -0.4672 -0.8488  0.6535
   86MOL   H17330943   7.054   3.974   6.372 -0.0446 -0.1679 -0.7688
   86MOL   H17430944   7.037   4.001   6.540  0.4441 -0.3483  0.6639
   86MOL   H17530945   6.850   4.134   6.332 -0.3415 -0.8412  0.2810
   86MOL   H17630946   6.677   3.966   6.369 -0.6817  1.3762  3.9579
   86MOL   H17730947   6.789   3.873   6.469  0.2314  0.9237  0.3073
   86MOL   H17830948   6.821   3.905   6.294 -0.8382  0.5921 -1.0387
   86MOL   H17930949   6.810   4.090   6.634  0.0238  1.2052  0.2104
   86MOL   H18030950   6.680   4.130   6.522 -0.4212  1.7770 -1.5553
   86MOL   H18130951   6.821   4.244   6.539 -1.6000  0.0632 -0.4072
   86MOL   C18230952   7.208   4.180   6.539  0.2500  0.0245 -0.3370
   86MOL   C18330953   7.159   4.215   6.681  0.3113 -0.1304  0.5586
   86MOL   C18430954   7.244   4.145   6.784  0.0903  0.4154  0.1021
   86MOL   C18530955   7.208   3.998   6.824 -0.1774 -0.3913  0.1732
   86MOL   C18630956   7.329   3.928   6.892  0.2087  1.4516 -0.9966
   86MOL   C18730957   7.072   3.991   6.909  0.7127  0.1602  0.6937
   86MOL   H18830958   7.294   4.244   6.522 -0.0613  0.7546  0.7783
   86MOL   H18930959   7.258   4.083   6.526  0.3538  0.2577 -1.7390
   86MOL   H19030960   7.060   4.170   6.689  0.9696 -1.4461  1.6275
   86MOL   H19130961   7.245   4.195   6.881 -1.0034 -0.4464  0.5693
   86MOL   H19230962   7.348   4.146   6.751  0.1561 -0.2107  0.2822
   86MOL   H19330963   7.194   3.936   6.736  1.4080 -1.1821  0.4673
   86MOL   H19430964   7.316   3.820   6.895 -2.5453  1.7926  1.2856
   86MOL   H19530965   7.338   3.970   6.993 -0.4675 -0.8203  0.0296
   86MOL   H19630966   7.421   3.941   6.834  2.3561 -2.1264  1.4446
   86MOL   H19730967   7.087   4.044   7.003 -0.9009 -0.7564  1.4925
   86MOL   H19830968   7.045   3.887   6.924  0.9030 -0.0563 -0.4220
   86MOL   H19930969   6.988   4.046   6.867  2.0200  1.8650  0.2665
   86MOL   C20030970   7.158   4.370   6.705 -0.4376  0.1878  0.0334
   86MOL   C20130971   7.071   4.423   6.819 -0.0111  0.2598 -0.1393
   86MOL   C20230972   6.923   4.394   6.772  0.0664  0.0534 -0.2888
   86MOL   C20330973   6.811   4.406   6.876 -0.3990 -0.0228 -0.0718
   86MOL   C20430974   6.677   4.428   6.804 -0.5857  0.4646  0.3562
   86MOL   C20530975   6.802   4.277   6.954 -0.4759 -0.0399 -0.4327
   86MOL   H20630976   7.137   4.417   6.608 -1.7399  0.2578  0.3317
   86MOL   H20730977   7.260   4.397   6.731 -1.0335  0.4083  2.2768
   86MOL   H20830978   7.087   4.365   6.910 -1.3762  1.7907  1.1185
   86MOL   H20930979   6.894   4.447   6.681 -0.0475  2.8621  1.3266
   86MOL   H21030980   6.907   4.290   6.743  0.8577 -0.3072  0.5548
   86MOL   H21130981   6.839   4.476   6.955  0.9140 -0.5042 -0.0892
   86MOL   H21230982   6.597   4.428   6.877 -0.7070 -3.4809  0.3424
   86MOL   H21330983   6.650   4.342   6.742  0.5412  1.3547 -1.4125
   86MOL   H21430984   6.674   4.524   6.753  1.2974  0.7107  0.6641
   86MOL   H21530985   6.770   4.193   6.893 -0.8405 -0.7715  0.7464
   86MOL   H21630986   6.725   4.284   7.031 -0.7304 -3.2606 -0.3040
   86MOL   H21730987   6.901   4.248   6.990 -0.5122 -1.8066 -1.6947
   86MOL   C21830988   7.098   4.571   6.850  0.5646 -0.5104  0.7173
   86MOL   C21930989   7.194   4.601   6.961 -0.5239  0.4788  0.3059
   86MOL   C22030990   7.330   4.536   6.954  0.1751 -0.5827 -0.3616
   86MOL   C22130991   7.441   4.567   7.062  0.7770  0.4019  0.0354
   86MOL   C22230992   7.566   4.492   7.023 -0.4942 -0.3250  0.2910
   86MOL   C22330993   7.471   4.714   7.093  0.5523 -0.4497  0.1012
   86MOL   H22430994   7.123   4.627   6.760  0.5238 -3.5156 -1.2242
   86MOL   H22530995   7.002   4.614   6.879  0.0072 -1.2935  0.0367
   86MOL   H22630996   7.208   4.708   6.951  0.6485  0.4901  1.9134
   86MOL   H22730997   7.312   4.428   6.954  1.6946 -0.8436 -0.8625
   86MOL   H22830998   7.377   4.561   6.859  0.4805  0.7790  0.1331
   86MOL   H22930999   7.402   4.539   7.159  1.1355  1.0997  0.3847
   86MOL   H23031000   7.618   4.533   6.938 -2.0048  1.7577  0.3382
   86MOL   H23131001   7.636   4.497   7.106  1.3761 -2.8085 -1.0676
   86MOL   H23231002   7.537   4.388   7.004  1.2091 -0.7852  0.1602
   86MOL   H23331003   7.550   4.709   7.169  0.5294 -2.7443  0.0227
   86MOL   H23431004   7.518   4.758   7.005  1.2072  1.1220  1.2024
   86MOL   H23531005   7.390   4.769   7.141  1.1126 -0.1948  0.7733
   86MOL   C23631006   7.125   4.574   7.098 -0.0017  0.4955  0.3925
   86MOL   C23731007   7.095   4.696   7.191 -0.0852  0.1052  0.7258
   86MOL   C23831008   7.061   4.660   7.340 -0.1869  0.2031 -0.1561
   86MOL   C23931009   7.178   4.614   7.424  0.9779  0.9423 -0.1761
   86MOL   C24031010   7.272   4.726   7.463  0.1647 -0.2530  0.4353
   86MOL   C24131011   7.122   4.543   7.551  0.1620  0.1086  0.1358
   86MOL   H24231012   7.190   4.510   7.156  0.7134 -0.8591 -1.8313
   86MOL   H24331013   7.035   4.515   7.079 -0.0390  0.3056  1.1549
   86MOL   H24431014   7.184   4.758   7.197 -0.7654  1.0973  0.6978
   86MOL   H24531015   6.980   4.587   7.342 -0.3865  0.4225 -0.2766
   86MOL   H24631016   7.023   4.750   7.388  2.7238  0.7207  1.2500
   86MOL   H24731017   7.234   4.538   7.370  0.4229  0.7712 -0.5069
   86MOL   H24831018   7.214   4.814   7.492  2.1143  1.2420 -0.0974
   86MOL   H24931019   7.325   4.755   7.372  0.7147  0.0838  0.8559
   86MOL   H25031020   7.353   4.711   7.534  1.7546  3.0497 -0.5419
   86MOL   H25131021   7.069   4.451   7.527  2.7839 -1.6729  0.9589
   86MOL   H25231022   7.040   4.597   7.599 -0.5728 -0.9899  0.1322
   86MOL   H25331023   7.199   4.516   7.623  0.2652 -0.3046 -0.1244
   86MOL   C25431024   6.987   4.790   7.135  0.4882  0.0616  0.8269
   86MOL   C25531025   6.986   4.932   7.195  0.2196 -0.2287  0.2961
   86MOL   C25631026   7.084   5.019   7.116 -0.9084 -0.4912 -0.3477
   86MOL   C25731027   7.170   5.119   7.192  0.3271 -0.4917  0.0376
   86MOL   C25831028   7.094   5.245   7.229  0.2195  0.3084 -0.9094
   86MOL   C25931029   7.286   5.159   7.095  1.0595  0.0449 -0.3173
   86MOL   H26031030   6.997   4.792   7.026  1.7815 -1.3491  0.9000
   86MOL   H26131031   6.888   4.746   7.145  0.5409  0.1114  1.6282
   86MOL   H26231032   7.006   4.934   7.302  2.1813  0.9088 -0.0719
   86MOL   H26331033   7.037   5.068   7.031  1.5943 -1.4291 -2.3611
   86MOL   H26431034   7.149   4.952   7.059  0.6950  0.8650 -0.1604
   86MOL   H26531035   7.210   5.077   7.285 -1.7502 -1.3258  0.5900
   86MOL   H26631036   7.162   5.322   7.266  0.4650 -0.7616  0.8931
   86MOL   H26731037   7.032   5.227   7.317  1.3063  1.5531  0.1411
   86MOL   H26831038   7.042   5.286   7.143  1.2693  0.8601 -1.2987
   86MOL   H26931039   7.242   5.225   7.020  1.5541  1.4091  0.5811
   86MOL   H27031040   7.358   5.220   7.149  1.1200  0.6296 -1.0494
   86MOL   H27131041   7.345   5.079   7.050 -0.9645 -0.5592 -1.9781
   86MOL   C27231042   6.839   4.986   7.199  0.6098  0.1259 -0.1366
   86MOL   C27331043   6.751   4.949   7.321  0.8498  0.0200 -0.5340
   86MOL   C27431044   6.783   5.047   7.434  0.1612  0.5335 -0.0353
   86MOL   C27531045   6.735   5.009   7.573  0.5370 -0.5709 -0.0467
   86MOL   C27631046   6.766   5.136   7.654  0.4732  0.7052 -0.0018
   86MOL   C27731047   6.783   4.870   7.626 -0.2263 -0.0515 -0.2603
   86MOL   H27831048   6.842   5.095   7.205  0.8111  0.0382  1.9390
   86MOL   H27931049   6.796   4.960   7.103 -2.3131 -0.3013  1.2404
   86MOL   H28031050   6.783   4.847   7.344 -0.0297  0.1102  1.2012
   86MOL   H28131051   6.738   5.142   7.406 -0.3028  1.1616  2.7315
   86MOL   H28231052   6.891   5.064   7.431  0.4348 -1.2317 -2.2267
   86MOL   H28331053   6.627   4.995   7.569  0.6284 -1.6801  1.1716
   86MOL   H28431054   6.873   5.153   7.649  0.0112  4.1745  0.6122
   86MOL   H28531055   6.721   5.225   7.611 -0.6556 -0.5138 -1.3626
   86MOL   H28631056   6.745   5.126   0.008 -0.2575  2.0966  0.0042
   86MOL   H28731057   6.731   4.787   7.579 -0.0019 -0.0865 -0.4496
   86MOL   H28831058   6.890   4.868   7.602 -0.2928  0.2413 -0.5849
   86MOL   H28931059   6.774   4.868   7.735  0.6785  1.2040 -0.1514
   86MOL   C29031060   6.602   4.941   7.288 -0.5092  0.4348 -0.0780
   86MOL   C29131061   6.555   4.803   7.233  0.2839  0.8452  0.4486
   86MOL   C29231062   6.549   4.691   7.343 -0.7003 -0.1893  0.2921
   86MOL   C29331063   6.650   4.568   7.338 -0.2185 -0.9241 -0.9512
   86MOL   C29431064   6.664   4.498   7.474  0.4679 -0.3882  0.2959
   86MOL   C29531065   6.629   4.480   7.215 -0.3112  0.0505 -0.8101
   86MOL   H29631066   6.535   4.966   7.370 -0.8422  0.5392 -0.3754
   86MOL   H29731067   6.589   5.016   7.210  1.7434  0.6090 -0.3153
   86MOL   H29831068   6.632   4.763   7.166 -0.5442 -0.6963  0.3863
   86MOL   H29931069   6.450   4.647   7.356  0.2250 -1.7710  2.2763
   86MOL   H30031070   6.568   4.744   7.436 -1.8586 -0.4865  0.7114
   86MOL   H30131071   6.750   4.609   7.323  0.6719 -1.2599  3.4744
   86MOL   H30231072   6.567   4.464   7.511  1.1687  0.3042  2.8327
   86MOL   H30331073   6.693   4.568   7.552 -1.0453  0.6433 -0.0555
   86MOL   H30431074   6.741   4.421   7.469  0.2550 -0.4439 -2.9103
   86MOL   H30531075   6.525   4.474   7.184 -0.4110  0.1392 -0.4964
   86MOL   H30631076   6.659   4.377   7.231  1.4800  0.6264 -0.3583
   86MOL   H30731077   6.675   4.510   7.121  2.3653 -1.3115  0.0155
   86MOL   C30831078   6.434   4.802   7.140  0.5175 -0.3427  0.0922
   86MOL   C30931079   6.443   4.859   6.985  0.4421  0.2045 -0.2510
   86MOL   C31031080   6.545   4.778   6.899  0.3705 -0.3354 -0.2100
   86MOL   C31131081   6.606   4.856   6.783  0.1945  0.1794 -0.3235
   86MOL   C31231082   6.764   4.847   6.783  0.1154 -0.2220  0.4027
   86MOL   C31331083   6.555   4.799   6.652  0.3160  0.3482 -0.5466
   86MOL   H31431084   6.388   4.703   7.138 -0.2319 -0.0990  2.7250
   86MOL   H31531085   6.359   4.869   7.184 -0.0998 -1.0220  0.0933
   86MOL   H31631086   6.496   4.954   6.982 -1.7379  1.4939  1.5061
   86MOL   H31731087   6.489   4.690   6.867  0.3278 -1.1723  2.0400
   86MOL   H31831088   6.627   4.730   6.952 -0.8616 -1.4026  0.7656
   86MOL   H31931089   6.590   4.963   6.794 -1.2239 -0.0299 -0.2227
   86MOL   H32031090   6.800   4.933   6.727  0.6129  0.0874  1.1930
   86MOL   H32131091   6.800   4.754   6.738 -0.8647  0.3752 -1.6890
   86MOL   H32231092   6.807   4.858   6.882 -1.5251  1.4137  0.9342
   86MOL   H32331093   6.625   4.819   6.571  1.8013 -1.1819  0.3292
   86MOL   H32431094   6.541   4.691   6.658  1.4888  0.1863 -0.6818
   86MOL   H32531095   6.463   4.845   6.614 -1.5408 -0.4548  2.7496
   86MOL   C32631096   6.306   4.892   6.920  0.1654  0.0848 -1.0517
   86MOL   C32731097   6.189   4.793   6.928 -0.1732  0.1650 -0.0592
   86MOL   C32831098   6.226   4.651   6.874  0.2204  0.1730 -0.4666
   86MOL   C32931099   6.102   4.554   6.875  0.8807  0.0206 -0.1423
   86MOL   C33031100   6.134   4.439   6.772 -0.0276  0.7051  0.6179
   86MOL   C33131101   6.064   4.509   7.018 -0.2178  0.7929 -0.2149
   86MOL   H33231102   6.338   4.909   6.817 -0.6583 -0.5362 -1.4137
   86MOL   H33331103   6.277   4.988   6.962  0.4092  0.3690 -1.5249
   86MOL   H33431104   6.155   4.777   7.030  2.0043 -0.1022  0.6322
   86MOL   H33531105   6.260   4.661   6.771 -2.1817  1.6340 -1.1545
   86MOL   H33631106   6.308   4.605   6.930 -2.2787 -0.6645  2.6331
   86MOL   H33731107   6.021   4.611   6.829  0.3818  1.1057  2.0625
   86MOL   H33831108   6.215   4.376   6.810 -1.4185 -1.6929 -0.2907
   86MOL   H33931109   6.167   4.480   6.677 -0.7095  0.4763  0.2790
   86MOL   H34031110   6.047   4.376   6.750 -0.0059  0.8710  0.0518
   86MOL   H34131111   6.049   4.588   7.092 -0.2369  1.8368 -1.3223
   86MOL   H34231112   5.964   4.466   7.017  0.8929 -1.8867 -0.9927
   86MOL   H34331113   6.139   4.440   7.057  1.1380  1.9711 -0.6595
   86MOL   C34431114   6.069   4.858   6.866  0.0157 -0.0551 -0.3070
   86MOL   C34531115   6.069   4.880   6.711  0.3984  0.4688 -0.3440
   86MOL   C34631116   5.937   4.933   6.648 -0.4453  0.1341  0.6213
   86MOL   C34731117   5.900   5.069   6.720  0.1414 -0.9904  0.2083
   86MOL   C34831118   5.770   5.118   6.663  0.0544  0.9197  0.1992
   86MOL   C34931119   5.997   5.180   6.706  0.3000 -0.7146  0.0966
   86MOL   H35031120   6.056   4.957   6.910  1.6211  0.6573 -1.3801
   86MOL   H35131121   5.973   4.812   6.888  1.4530 -1.7544  2.6871
   86MOL   H35231122   6.086   4.791   6.649  0.4692 -0.9283  1.6333
   86MOL   H35331123   5.954   4.943   6.541 -0.7795  1.1155  0.6618
   86MOL   H35431124   5.858   4.864   6.676  0.1232 -0.1862  1.4854
   86MOL   H35531125   5.878   5.050   6.825  0.3063 -0.6035  0.3130
   86MOL   H35631126   5.786   5.173   6.570 -0.4967  0.5777 -0.1050
   86MOL   H35731127   5.688   5.048   6.643  1.2592 -1.0812  2.0646
   86MOL   H35831128   5.717   5.178   6.737 -1.5234 -1.5991  1.1799
   86MOL   H35931129   5.991   5.222   6.605 -0.3808  1.9630  1.2106
   86MOL   H36031130   6.099   5.151   6.729  0.5184  0.8156  1.1410
   86MOL   H36131131   5.967   5.266   6.767 -1.9174 -0.2360 -1.6035
   86MOL   H36231132   6.152   4.943   6.679  0.4479 -0.5379 -2.2984
   87MOL     C131133   3.164   1.235   2.979 -0.6336 -0.1829 -0.1377
   87MOL     C231134   3.097   1.373   2.945  0.3540 -0.0475 -0.0425
   87MOL     C331135   3.141   1.410   2.804 -1.0219 -0.3998 -0.3260
   87MOL     C431136   3.068   1.334   2.691  0.4556 -0.4983 -0.4063
   87MOL     C531137   3.110   1.396   2.557 -0.1187 -0.1053 -0.1785
   87MOL     C631138   2.911   1.351   2.704 -0.7476 -0.0789  0.0329
   87MOL     H731139   3.125   1.159   2.911  0.2635  1.1806 -2.2178
   87MOL     H831140   3.271   1.233   2.965 -0.6932  1.8474 -1.0211
   87MOL     H931141   2.989   1.364   2.950  0.5757 -2.4268  1.9675
   87MOL    H1031142   3.122   1.517   2.799 -0.6940 -0.1828  2.3342
   87MOL    H1131143   3.249   1.399   2.798 -1.0285  0.1090 -1.8470
   87MOL    H1231144   3.074   1.225   2.694 -0.6339 -0.5752 -1.0566
   87MOL    H1331145   3.036   1.374   2.481  0.5458 -0.6003 -0.6913
   87MOL    H1431146   3.120   1.503   2.574 -0.4763 -0.1096  0.0578
   87MOL    H1531147   3.206   1.355   2.526  0.7158  0.3684  1.7107
   87MOL    H1631148   2.877   1.453   2.722 -2.8325 -0.3308 -2.1947
   87MOL    H1731149   2.862   1.294   2.783 -0.6111  1.6873  1.4211
   87MOL    H1831150   2.870   1.330   2.606  0.2286 -1.0908 -0.1684
   87MOL    H1931151   3.152   1.203   3.083 -0.3001  0.9624  0.2547
   87MOL    C2031152   3.129   1.476   3.056 -0.3147 -0.3231 -0.1079
   87MOL    C2131153   3.116   1.449   3.212 -0.0461  0.0535  0.4301
   87MOL    C2231154   3.142   1.577   3.291 -0.2557 -0.5156 -0.2997
   87MOL    C2331155   3.288   1.621   3.281 -0.6792 -0.5042 -0.1838
   87MOL    C2431156   3.322   1.727   3.390  0.4139 -0.2472  0.1472
   87MOL    C2531157   3.401   1.515   3.290  0.2989 -0.6637 -0.0287
   87MOL    H2631158   3.231   1.506   3.032  0.0829 -1.7281 -0.1865
   87MOL    H2731159   3.072   1.567   3.034  0.4741  1.0813  3.2794
   87MOL    H2831160   3.187   1.369   3.232  2.6325  2.2847  0.1755
   87MOL    H2931161   3.117   1.554   3.394  0.9197  2.1685  0.6363
   87MOL    H3031162   3.074   1.657   3.261 -2.1646 -2.8809 -2.4809
   87MOL    H3131163   3.297   1.668   3.183  0.1799 -0.1866  0.0475
   87MOL    H3231164   3.296   1.676   3.483 -0.8336 -1.6893 -0.9804
   87MOL    H3331165   3.263   1.818   3.382 -0.3006 -0.3423  3.4835
   87MOL    H3431166   3.430   1.744   3.402 -0.1605  3.2483  0.8654
   87MOL    H3531167   3.410   1.453   3.201 -1.8792 -1.2579  0.1556
   87MOL    H3631168   3.491   1.577   3.299 -0.0802  0.0615 -1.0535
   87MOL    H3731169   3.386   1.445   3.371  0.1654 -2.0626 -1.2503
   87MOL    C3831170   2.967   1.394   3.237 -0.3679 -0.1354  0.5349
   87MOL    C3931171   2.947   1.314   3.363 -0.5467  0.0668 -0.5970
   87MOL    C4031172   3.035   1.191   3.382  0.0656  0.0741 -0.8507
   87MOL    C4131173   3.068   1.176   3.534 -0.9788 -0.5412 -0.3191
   87MOL    C4231174   3.191   1.256   3.581  0.3647 -0.4150  0.4323
   87MOL    C4331175   3.092   1.026   3.566 -0.2764 -0.5238  0.1297
   87MOL    H4431176   2.935   1.336   3.150  0.1752  1.4184 -0.7393
   87MOL    H4531177   2.897   1.478   3.237 -2.0003 -1.4475  3.0636
   87MOL    H4631178   2.977   1.385   3.440  1.6430 -0.7636 -0.6674
   87MOL    H4731179   3.123   1.203   3.320  0.3350  0.6807 -0.3566
   87MOL    H4831180   2.981   1.106   3.341  1.3861 -0.8548 -0.7166
   87MOL    H4931181   2.981   1.201   3.593  0.0892  3.7000 -0.4327
   87MOL    H5031182   3.183   1.364   3.581 -4.2288 -0.6413 -1.0151
   87MOL    H5131183   3.186   1.229   3.687  2.5213 -1.8786  0.1884
   87MOL    H5231184   3.286   1.222   3.540  0.8320  0.4531  0.7985
   87MOL    H5331185   3.193   0.999   3.535 -0.6230 -1.1429 -0.4720
   87MOL    H5431186   3.011   0.971   3.518 -0.7211  0.2526 -0.0257
   87MOL    H5531187   3.083   1.017   3.674 -0.3345 -1.3238  0.0602
   87MOL    C5631188   2.800   1.276   3.378  0.8831 -0.3090 -1.0975
   87MOL    C5731189   2.702   1.381   3.443  1.4952 -0.4157  0.0396
   87MOL    C5831190   2.689   1.371   3.605  0.0428 -0.1900 -0.1811
   87MOL    C5931191   2.667   1.506   3.676 -0.2458 -0.0157  0.4729
   87MOL    C6031192   2.652   1.487   3.827  0.3831 -0.1821 -0.1204
   87MOL    C6131193   2.552   1.594   3.626  0.3165  1.1429 -0.2231
   87MOL    H6231194   2.787   1.182   3.433  0.6513  0.1719 -0.3101
   87MOL    H6331195   2.765   1.254   3.278 -0.2349 -0.3532 -0.7058
   87MOL    H6431196   2.740   1.478   3.410  2.4768 -0.7174  0.2880
   87MOL    H6531197   2.617   1.293   3.629  1.2629 -1.2089  0.2593
   87MOL    H6631198   2.784   1.334   3.643 -0.1349 -0.9924 -0.5207
   87MOL    H6731199   2.762   1.557   3.654 -0.1948 -0.3918 -0.2075
   87MOL    H6831200   2.552   1.450   3.847  0.0022  1.8939  2.0246
   87MOL    H6931201   2.678   1.579   3.880  2.8240 -1.3937  0.8467
   87MOL    H7031202   2.727   1.417   3.863 -0.0607  0.6051  2.4612
   87MOL    H7131203   2.458   1.538   3.620  1.1138 -0.3405  0.6850
   87MOL    H7231204   2.574   1.630   3.525 -0.2302 -1.3345 -1.2676
   87MOL    H7331205   2.526   1.683   3.682 -0.6220  1.3901 -1.0472
   87MOL    C7431206   2.553   1.362   3.384 -0.3140 -0.0044  1.4678
   87MOL    C7531207   2.528   1.406   3.241 -0.5902 -0.4163 -0.1125
   87MOL    C7631208   2.531   1.563   3.233 -0.1536  0.4610 -0.1840
   87MOL    C7731209   2.568   1.628   3.096 -0.1150  0.1127 -0.3161
   87MOL    C7831210   2.712   1.586   3.054  0.3098  0.0026 -0.2117
   87MOL    C7931211   2.551   1.781   3.105 -0.1944 -0.1039 -0.0167
   87MOL    H8031212   2.477   1.406   3.449 -1.1804  0.2328  0.2990
   87MOL    H8131213   2.525   1.257   3.393  2.9241 -0.8889  2.0596
   87MOL    H8231214   2.612   1.366   3.183  0.5909  1.1729  0.4400
   87MOL    H8331215   2.431   1.595   3.265  0.1041  1.9999 -0.9208
   87MOL    H8431216   2.597   1.606   3.307 -0.5239  0.3894  0.1909
   87MOL    H8531217   2.512   1.585   3.013 -0.0740 -0.0748 -0.2479
   87MOL    H8631218   2.785   1.634   3.119  1.6337 -1.0747 -0.8951
   87MOL    H8731219   2.731   1.605   2.949  1.5681  0.9094  0.1766
   87MOL    H8831220   2.741   1.481   3.065 -0.2952 -0.4378 -2.5195
   87MOL    H8931221   2.589   1.838   3.021  2.1681 -1.2800  0.2241
   87MOL    H9031222   2.445   1.800   3.126 -0.0302  0.7812  0.0269
   87MOL    H9131223   2.613   1.823   3.184  1.1152 -1.9894 -0.0254
   87MOL    C9231224   2.392   1.358   3.195 -0.4468  0.2831 -0.1304
   87MOL    C9331225   2.388   1.250   3.081  0.9104 -0.2728  0.3115
   87MOL    C9431226   2.486   1.127   3.115  0.0009  0.0568  0.1136
   87MOL    C9531227   2.573   1.073   2.997 -0.3633  0.0165 -0.0309
   87MOL    C9631228   2.695   1.166   2.954  0.3982  0.1427 -0.4468
   87MOL    C9731229   2.637   0.938   3.040  0.6611  0.1139  0.3647
   87MOL    H9831230   2.328   1.330   3.279  1.5247  0.4733  1.4817
   87MOL    H9931231   2.345   1.448   3.155 -2.4600 -1.4261 -1.7251
   87MOL   H10031232   2.430   1.297   2.993  0.2766 -1.3963 -0.6087
   87MOL   H10131233   2.422   1.047   3.150  0.7100 -0.6232 -0.1184
   87MOL   H10231234   2.546   1.159   3.201 -1.8193  1.6331  0.8437
   87MOL   H10331235   2.518   1.049   2.906 -1.3017 -0.1927  0.5871
   87MOL   H10431236   2.758   1.118   2.879 -0.1864 -1.0513 -0.1746
   87MOL   H10531237   2.757   1.198   3.038 -0.4141 -1.7506  0.8993
   87MOL   H10631238   2.638   1.249   2.910 -0.4786  1.2545  2.6729
   87MOL   H10731239   2.694   0.945   3.133 -0.6424  0.9267  1.1373
   87MOL   H10831240   2.689   0.896   2.955  0.7203 -0.7008  0.7961
   87MOL   H10931241   2.561   0.862   3.058 -0.6141  0.9866 -1.2050
   87MOL   C11031242   2.245   1.209   3.034 -1.0038 -0.4094 -0.5131
   87MOL   C11131243   2.142   1.313   3.030  0.8275 -0.5159  0.6847
   87MOL   C11231244   2.170   1.435   2.938  0.6579  0.2392 -0.2818
   87MOL   C11331245   2.072   1.552   2.958  0.1519  0.6695  0.6120
   87MOL   C11431246   2.069   1.645   2.835  0.3037  1.7003 -0.9352
   87MOL   C11531247   2.104   1.632   3.087  0.2002 -0.3800 -0.8641
   87MOL   H11631248   2.212   1.141   3.113 -1.8769 -0.4051 -0.8777
   87MOL   H11731249   2.259   1.152   2.943  0.0339 -0.4912 -0.3168
   87MOL   H11831250   2.142   1.352   3.132 -0.7287  1.4714 -0.0372
   87MOL   H11931251   2.159   1.403   2.835 -1.8370 -1.9490  0.6066
   87MOL   H12031252   2.269   1.478   2.953  0.9059 -0.5273  0.3055
   87MOL   H12131253   1.971   1.511   2.960  0.1590  0.5347 -0.9666
   87MOL   H12231254   2.018   1.601   2.750 -1.6730  0.0271  1.0572
   87MOL   H12331255   2.175   1.658   2.812  1.1647 -1.0996  1.1172
   87MOL   H12431256   2.019   1.736   2.868 -1.0251  0.1717  1.4223
   87MOL   H12531257   2.127   1.566   3.171  0.4878  0.6650 -0.1119
   87MOL   H12631258   2.023   1.694   3.124  2.6337  0.9215  2.5970
   87MOL   H12731259   2.197   1.686   3.068  1.0499 -2.1960 -2.0165
   87MOL   C12831260   2.007   1.248   2.999  0.3616 -0.1901 -0.3571
   87MOL   C12931261   1.935   1.200   3.131 -0.3444  0.6513 -0.7628
   87MOL   C13031262   1.825   1.099   3.107 -0.5474  0.5950 -0.1335
   87MOL   C13131263   1.761   1.043   3.236  0.3937  0.5865 -0.1502
   87MOL   C13231264   1.636   0.970   3.200 -0.5451 -0.1210 -0.3002
   87MOL   C13331265   1.859   0.951   3.306 -0.2751 -0.3725  0.4117
   87MOL   H13431266   2.012   1.168   2.925  2.0766 -0.0035 -0.4633
   87MOL   H13531267   1.942   1.312   2.938  0.9950 -0.1863 -1.0277
   87MOL   H13631268   2.005   1.147   3.196 -0.7282  0.2733 -0.6600
   87MOL   H13731269   1.756   1.144   3.035  0.5810 -0.8740 -2.1653
   87MOL   H13831270   1.874   1.016   3.057 -1.8714 -0.6484  0.6063
   87MOL   H13931271   1.735   1.124   3.304 -1.3031 -0.2392  0.2058
   87MOL   H14031272   1.573   1.050   3.160  1.6441  2.3727  1.1456
   87MOL   H14131273   1.598   0.929   3.293  0.0721 -4.4078 -1.7939
   87MOL   H14231274   1.655   0.900   3.118 -0.6003 -1.5742  0.9151
   87MOL   H14331275   1.863   0.860   3.247  2.8014 -0.2590  0.4094
   87MOL   H14431276   1.962   0.986   3.314  0.3349 -1.7282 -1.2452
   87MOL   H14531277   1.815   0.935   3.405  1.3357  0.2954  1.2518
   87MOL   C14631278   1.890   1.322   3.213  0.2337 -0.3525 -0.3350
   87MOL   C14731279   1.897   1.314   3.368  0.8285 -0.1241  0.3773
   87MOL   C14831280   1.766   1.372   3.436  0.1161  0.4492 -0.4849
   87MOL   C14931281   1.740   1.524   3.433  0.8273 -0.6707 -0.1962
   87MOL   C15031282   1.702   1.594   3.303 -0.3982 -0.3126 -0.0412
   87MOL   C15131283   1.627   1.559   3.535  0.2805 -0.2157  0.5143
   87MOL   H15231284   1.788   1.342   3.181  0.3020  0.9428  0.2259
   87MOL   H15331285   1.950   1.410   3.187  0.3574 -0.3999 -0.2112
   87MOL   H15431286   1.897   1.209   3.396  4.6751 -0.3068 -0.1073
   87MOL   H15531287   1.672   1.326   3.405 -2.5555  4.4268  1.3711
   87MOL   H15631288   1.765   1.338   3.539  1.6218  4.5338  0.9744
   87MOL   H15731289   1.832   1.577   3.459 -0.7178  1.6633  0.7157
   87MOL   H15831290   1.667   1.697   3.306  1.2226  0.2801 -0.5195
   87MOL   H15931291   1.635   1.527   3.248 -1.0301  1.1872 -1.1314
   87MOL   H16031292   1.799   1.596   3.252 -0.0466 -0.2453  0.6277
   87MOL   H16131293   1.543   1.495   3.513  1.0724 -1.3812  0.8242
   87MOL   H16231294   1.582   1.659   3.538  1.3316  0.2676  0.5186
   87MOL   H16331295   1.654   1.528   3.636  2.2632 -0.5219 -0.0776
   87MOL   C16431296   2.019   1.381   3.426 -0.7720 -0.0869  0.7388
   87MOL   C16531297   2.039   1.373   3.579  0.4357  0.0258  0.0995
   87MOL   C16631298   2.066   1.229   3.630 -0.8882 -0.1518 -0.6334
   87MOL   C16731299   2.209   1.175   3.594  0.0127  0.0728  0.7043
   87MOL   C16831300   2.313   1.181   3.715  0.0594 -0.7391 -0.4627
   87MOL   C16931301   2.195   1.028   3.555  0.5707 -0.0760  0.1334
   87MOL   H17031302   2.108   1.357   3.368 -0.6696  1.1730  0.3640
   87MOL   H17131303   2.005   1.486   3.402  3.6833  0.3692 -0.4212
   87MOL   H17231304   1.951   1.419   3.623  0.2787 -0.1654 -0.0153
   87MOL   H17331305   2.050   1.227   3.737 -0.9958  0.4000 -0.6383
   87MOL   H17431306   1.988   1.170   3.582 -2.1659  1.1928 -0.2330
   87MOL   H17531307   2.248   1.225   3.505  1.1745 -1.9347  0.0648
   87MOL   H17631308   2.360   1.277   3.736  0.8712 -1.2221 -0.0115
   87MOL   H17731309   2.398   1.120   3.682 -0.4111 -1.1367 -0.9447
   87MOL   H17831310   2.279   1.137   3.809 -2.7363  0.7388 -0.7193
   87MOL   H17931311   2.128   0.970   3.617 -0.6703 -0.7383 -1.7673
   87MOL   H18031312   2.291   0.977   3.555 -0.1820 -1.5256 -0.7341
   87MOL   H18131313   2.153   1.005   3.457 -0.2901 -1.3913  0.8102
   87MOL   C18231314   2.148   1.474   3.636 -0.0782  0.1461 -0.3870
   87MOL   C18331315   2.121   1.630   3.639  0.4529  0.0071  0.3908
   87MOL   C18431316   2.185   1.704   3.762  0.0259  0.2285  0.4240
   87MOL   C18531317   2.122   1.698   3.901  0.2543  0.5801  0.2322
   87MOL   C18631318   2.218   1.747   4.008  0.1892 -0.3377  0.1218
   87MOL   C18731319   1.990   1.777   3.896 -0.1962 -0.7881 -0.4306
   87MOL   H18831320   2.232   1.462   3.568 -0.2054  1.4930 -0.8004
   87MOL   H18931321   2.175   1.451   3.739  0.4642  2.6108  0.0559
   87MOL   H19031322   2.012   1.641   3.640  0.1575 -2.3665 -1.6493
   87MOL   H19131323   2.202   1.809   3.737  0.0333  0.0742 -0.2353
   87MOL   H19231324   2.282   1.654   3.772  0.5622  0.9370 -1.0945
   87MOL   H19331325   2.089   1.597   3.923 -0.3950  0.8960  0.7239
   87MOL   H19431326   2.207   1.856   4.012  2.0881 -0.0936 -0.8304
   87MOL   H19531327   2.323   1.735   3.982  0.8678  1.7272  1.7363
   87MOL   H19631328   2.173   1.708   4.099 -0.4385 -0.6168 -0.3016
   87MOL   H19731329   1.947   1.786   3.996  0.8778  0.1832 -0.0413
   87MOL   H19831330   1.921   1.732   3.825  0.6567 -1.1010 -1.0783
   87MOL   H19931331   2.004   1.878   3.856  3.5998 -1.2380 -0.4426
   87MOL   C20031332   2.172   1.695   3.506 -0.1936  0.3226 -0.5405
   87MOL   C20131333   2.115   1.838   3.482  0.0100  0.3744  0.2234
   87MOL   C20231334   1.962   1.841   3.470  0.1118 -0.6679  0.2630
   87MOL   C20331335   1.903   1.987   3.457 -0.3159 -0.1983 -0.4292
   87MOL   C20431336   1.797   1.997   3.345 -0.1136  0.3094  0.1141
   87MOL   C20531337   1.836   2.014   3.597  0.0770 -0.0191  0.1355
   87MOL   H20631338   2.155   1.627   3.422 -0.7895  0.3558 -0.4443
   87MOL   H20731339   2.280   1.686   3.520 -0.5232 -2.6352  0.3925
   87MOL   H20831340   2.131   1.901   3.569  0.4384 -2.2548  2.1122
   87MOL   H20931341   1.929   1.780   3.386 -2.6033  0.4197  0.5052
   87MOL   H21031342   1.912   1.801   3.558  0.5608 -0.8791  0.4247
   87MOL   H21131343   1.982   2.062   3.457 -0.4067 -0.1032  0.3296
   87MOL   H21231344   1.743   2.092   3.351 -0.4809  0.1852 -1.0129
   87MOL   H21331345   1.725   1.916   3.358 -0.3623  0.5058 -0.0302
   87MOL   H21431346   1.835   1.989   3.243  3.8602 -2.5710  1.7018
   87MOL   H21531347   1.903   1.989   3.679  0.9209  0.7977 -0.2932
   87MOL   H21631348   1.740   1.964   3.604 -0.0151 -0.1758 -1.9058
   87MOL   H21731349   1.806   2.118   3.608 -1.3855 -0.5135  0.9599
   87MOL   C21831350   2.194   1.892   3.358  0.1423  0.4884 -0.1706
   87MOL   C21931351   2.300   2.000   3.397 -0.8884 -0.2805  0.3397
   87MOL   C22031352   2.358   2.071   3.273 -0.1074 -0.0709 -0.5279
   87MOL   C22131353   2.258   2.139   3.180 -0.0624 -0.0355 -0.6171
   87MOL   C22231354   2.175   2.245   3.247  0.5981  0.5405  0.9283
   87MOL   C22331355   2.335   2.214   3.072 -0.0809 -0.7309 -0.5821
   87MOL   H22431356   2.246   1.812   3.304 -1.3935 -1.4688  1.1823
   87MOL   H22531357   2.129   1.935   3.281  0.8821  2.0839  0.0863
   87MOL   H22631358   2.243   2.070   3.457 -1.5140 -1.7989  1.5419
   87MOL   H22731359   2.428   2.151   3.293  0.4703 -0.2466 -1.7905
   87MOL   H22831360   2.420   1.998   3.220 -3.7098 -2.6035 -1.4810
   87MOL   H22931361   2.194   2.070   3.125  1.2980 -1.7535 -0.0909
   87MOL   H23031362   2.111   2.199   3.322  0.9380 -0.1406  0.8036
   87MOL   H23131363   2.231   2.319   3.305 -0.3304  1.9349  0.0887
   87MOL   H23231364   2.112   2.284   3.167 -0.1626 -0.2853  1.1241
   87MOL   H23331365   2.388   2.297   3.120 -1.4870 -1.4569  2.3416
   87MOL   H23431366   2.405   2.148   3.020  0.2691 -1.1600  0.4019
   87MOL   H23531367   2.265   2.243   2.995 -1.0832  1.9418  1.2665
   87MOL   C23631368   2.426   1.938   3.478  0.3281 -0.1387  0.0599
   87MOL   C23731369   2.540   2.028   3.538 -0.0604  0.0775  0.2121
   87MOL   C23831370   2.676   1.946   3.564  0.3206  0.2218 -0.3360
   87MOL   C23931371   2.753   1.907   3.439  0.5176 -0.0327 -0.1555
   87MOL   C24031372   2.791   2.030   3.348  0.2440  0.1774  0.2670
   87MOL   C24131373   2.881   1.830   3.482 -0.5330 -0.1665  0.5753
   87MOL   H24231374   2.476   1.874   3.406  0.7634  1.4765 -1.1118
   87MOL   H24331375   2.397   1.871   3.559 -0.7364 -0.1783 -0.3459
   87MOL   H24431376   2.581   2.108   3.476  0.2741 -0.3827 -0.1599
   87MOL   H24531377   2.659   1.860   3.628  0.2417  0.3140 -0.2324
   87MOL   H24631378   2.742   2.013   3.619  0.5867  0.9253 -1.5025
   87MOL   H24731379   2.705   1.823   3.390 -0.5004  0.6168 -0.2921
   87MOL   H24831380   2.850   2.004   3.260 -1.2797  2.0200 -1.3397
   87MOL   H24931381   2.842   2.105   3.408 -0.5032  1.3115 -0.4766
   87MOL   H25031382   2.706   2.085   3.308  0.2494  0.3189  0.4489
   87MOL   H25131383   2.944   1.814   3.394  1.4781 -0.4745  2.0221
   87MOL   H25231384   2.855   1.728   3.510 -3.2865  0.5184  0.6161
   87MOL   H25331385   2.938   1.871   3.566  2.9940 -1.3993 -1.0771
   87MOL   C25431386   2.485   2.084   3.675  0.9903 -0.8487 -0.3126
   87MOL   C25531387   2.402   2.217   3.662  0.6810  0.5577  0.4579
   87MOL   C25631388   2.279   2.197   3.750  0.8949  0.1605 -0.2012
   87MOL   C25731389   2.177   2.311   3.759  0.4567  0.0653  0.9497
   87MOL   C25831390   2.056   2.269   3.846  0.2496  0.2371  0.3586
   87MOL   C25931391   2.126   2.375   3.629 -0.5061 -0.6682  0.1948
   87MOL   H26031392   2.437   2.006   3.733  0.5159  0.2027  0.7395
   87MOL   H26131393   2.569   2.115   3.737  0.5868  2.8936 -1.4969
   87MOL   H26231394   2.349   2.229   3.568 -0.6007 -0.7209  0.9959
   87MOL   H26331395   2.313   2.183   3.852  1.7064  1.5863 -0.2647
   87MOL   H26431396   2.228   2.108   3.714  0.2436  0.8676 -1.0664
   87MOL   H26531397   2.216   2.390   3.823 -1.1106  1.6593 -0.0182
   87MOL   H26631398   2.092   2.193   3.916 -0.3621 -1.2624 -0.9222
   87MOL   H26731399   1.978   2.223   3.785 -0.4246 -1.3779  2.3884
   87MOL   H26831400   2.001   2.352   3.889 -0.6447 -0.3019  0.2606
   87MOL   H26931401   2.026   2.417   3.638 -0.5006 -0.3887 -0.9468
   87MOL   H27031402   2.195   2.453   3.597 -2.9033  0.1304 -3.2592
   87MOL   H27131403   2.123   2.300   3.549  3.3230 -0.3232 -0.3705
   87MOL   C27231404   2.488   2.342   3.704  0.1198  0.0272  0.0210
   87MOL   C27331405   2.589   2.390   3.596  0.4172  0.3418 -0.7949
   87MOL   C27431406   2.511   2.468   3.476  0.1042  0.4793  0.2695
   87MOL   C27531407   2.587   2.546   3.365 -0.4200  0.0309 -0.1450
   87MOL   C27631408   2.479   2.592   3.268 -0.5563  0.0874 -0.4098
   87MOL   C27731409   2.693   2.460   3.296 -0.4768 -0.5932  0.4051
   87MOL   H27831410   2.427   2.431   3.724  2.4624  1.5504  0.6083
   87MOL   H27931411   2.531   2.324   3.802 -3.5939  1.7451  2.0984
   87MOL   H28031412   2.640   2.304   3.554 -0.9707 -0.7823 -0.2233
   87MOL   H28131413   2.449   2.542   3.525 -0.8174 -0.5084  0.6134
   87MOL   H28231414   2.439   2.407   3.422  1.3309  0.0811 -0.9538
   87MOL   H28331415   2.635   2.637   3.400  0.1983  0.3092 -1.6861
   87MOL   H28431416   2.391   2.630   3.321  0.0629 -2.2497  2.4417
   87MOL   H28531417   2.508   2.671   3.199 -0.3781  0.5807  0.2172
   87MOL   H28631418   2.453   2.505   3.209 -2.7187  0.7270 -0.4308
   87MOL   H28731419   2.721   2.516   3.207  2.4654 -2.0016  0.4107
   87MOL   H28831420   2.782   2.442   3.356  0.1004 -0.4066 -0.4021
   87MOL   H28931421   2.651   2.371   3.250 -2.7935 -0.2404  1.7584
   87MOL   C29031422   2.697   2.475   3.668 -0.1396 -0.4247  0.2869
   87MOL   C29131423   2.794   2.398   3.755  0.0160  0.3185 -0.8562
   87MOL   C29231424   2.904   2.324   3.675 -0.6876  0.8642  0.4544
   87MOL   C29331425   3.010   2.237   3.743 -0.1561  0.6278 -0.0448
   87MOL   C29431426   2.944   2.130   3.831  0.1160  0.7206  0.4771
   87MOL   C29531427   3.084   2.172   3.622 -1.0454 -0.0573 -0.7231
   87MOL   H29631428   2.767   2.514   3.596  0.8581  0.9306  1.9649
   87MOL   H29731429   2.642   2.548   3.727 -0.1911  0.1964 -0.5272
   87MOL   H29831430   2.737   2.330   3.819  0.4613  0.7572  0.0098
   87MOL   H29931431   2.967   2.404   3.635 -2.1386  1.2492 -1.1161
   87MOL   H30031432   2.862   2.276   3.587 -2.3446  1.1447  1.0755
   87MOL   H30131433   3.078   2.300   3.799  0.5560 -0.6254  0.5277
   87MOL   H30231434   3.003   2.107   3.919  1.7558 -0.9928 -1.0169
   87MOL   H30331435   2.918   2.039   3.776 -0.4666  0.4507  1.1863
   87MOL   H30431436   2.851   2.153   3.883 -1.4328 -2.7219 -0.6086
   87MOL   H30531437   3.031   2.086   3.581 -1.3630  0.5593 -1.6433
   87MOL   H30631438   3.177   2.126   3.655 -1.2581  0.0370  0.0108
   87MOL   H30731439   3.120   2.231   3.537  1.0790 -0.2871 -0.0094
   87MOL   C30831440   2.860   2.507   3.854 -0.1041  0.0966 -0.4428
   87MOL   C30931441   2.889   2.472   4.000 -0.2900 -0.2789 -0.0001
   87MOL   C31031442   3.034   2.519   4.041 -0.0918 -0.2303 -0.0439
   87MOL   C31131443   3.108   2.436   4.150 -0.1971 -0.5868  0.2215
   87MOL   C31231444   3.133   2.291   4.116  0.3246 -0.0262 -0.7119
   87MOL   C31331445   3.237   2.515   4.195  0.4894 -0.2495  0.0718
   87MOL   H31431446   2.951   2.541   3.805 -0.5275  0.2964 -1.1046
   87MOL   H31531447   2.814   2.605   3.839  2.3509  1.6025  1.5747
   87MOL   H31631448   2.889   2.363   4.004 -1.4650 -0.2766  0.2168
   87MOL   H31731449   3.023   2.617   4.088 -3.0653 -1.1632  1.3448
   87MOL   H31831450   3.096   2.547   3.956  2.5099 -1.1497  1.4764
   87MOL   H31931451   3.032   2.428   4.228 -1.8781 -1.9530 -1.5086
   87MOL   H32031452   3.174   2.270   4.017 -2.3719  0.0095 -1.8780
   87MOL   H32131453   3.041   2.234   4.122  0.6456 -0.3925  0.7489
   87MOL   H32231454   3.208   2.253   4.185 -1.1236 -2.2504 -0.3347
   87MOL   H32331455   3.292   2.452   4.266 -0.6071 -2.6159 -1.1297
   87MOL   H32431456   3.304   2.553   4.118  0.7121 -2.4618 -0.8763
   87MOL   H32531457   3.207   2.609   4.242 -0.0526  0.2014 -1.1746
   87MOL   C32631458   2.774   2.529   4.088 -0.4315  0.0663 -0.0672
   87MOL   C32731459   2.645   2.448   4.093  0.3701  0.1178  0.0225
   87MOL   C32831460   2.548   2.534   4.182 -0.3953 -0.0396 -0.1647
   87MOL   C32931461   2.408   2.476   4.194 -0.3397 -0.3233  0.3403
   87MOL   C33031462   2.311   2.561   4.279 -0.3592  0.3400  0.6095
   87MOL   C33131463   2.341   2.442   4.060  0.4593  0.4631 -0.4435
   87MOL   H33231464   2.747   2.631   4.061 -1.8546  0.0871  1.3809
   87MOL   H33331465   2.803   2.527   4.193  1.0926 -2.4767 -0.4879
   87MOL   H33431466   2.615   2.450   3.988 -2.8359  1.4467  0.8931
   87MOL   H33531467   2.592   2.545   4.281  0.8823 -1.0475 -0.6020
   87MOL   H33631468   2.543   2.628   4.126 -0.9454 -0.3131 -0.5780
   87MOL   H33731469   2.415   2.378   4.241 -1.3302 -1.3346 -1.5826
   87MOL   H33831470   2.340   2.574   4.383 -0.2256 -0.9159  0.7361
   87MOL   H33931471   2.215   2.511   4.286 -0.3775  0.5433  1.9118
   87MOL   H34031472   2.296   2.657   4.230  1.0757  0.7738  0.9895
   87MOL   H34131473   2.241   2.403   4.080  1.4260 -1.5077  0.6912
   87MOL   H34231474   2.338   2.525   3.989  1.4734  1.7388  0.9829
   87MOL   H34331475   2.395   2.363   4.007  1.1247  0.7148 -0.1384
   87MOL   C34431476   2.661   2.296   4.116  0.4064 -0.5447  0.6257
   87MOL   C34531477   2.719   2.263   4.258 -0.3294  0.1175  0.9848
   87MOL   C34631478   2.723   2.117   4.283 -0.0779  0.5081  0.3440
   87MOL   C34731479   2.802   2.069   4.406  0.0547  0.4952  0.5615
   87MOL   C34831480   2.767   2.138   4.537  0.1878  0.8120  0.5185
   87MOL   C34931481   2.956   2.076   4.389  0.2113 -0.7065 -0.2884
   87MOL   H35031482   2.720   2.257   4.033 -2.1182 -2.2697 -0.4263
   87MOL   H35131483   2.563   2.250   4.106 -0.2319  1.0665 -0.7761
   87MOL   H35231484   2.648   2.298   4.334 -1.9827 -0.2919 -0.3388
   87MOL   H35331485   2.620   2.093   4.309 -0.1858  1.7454  1.0699
   87MOL   H35431486   2.758   2.063   4.195 -1.0466  1.7369 -0.8161
   87MOL   H35531487   2.778   1.963   4.417 -0.0312  0.6823  2.1893
   87MOL   H35631488   2.787   2.246   4.538  2.0134  0.5701 -2.4227
   87MOL   H35731489   2.660   2.123   4.554 -0.3153  0.0658 -2.8199
   87MOL   H35831490   2.822   2.093   4.619  1.2241  0.3993 -0.3854
   87MOL   H35931491   3.002   2.037   4.479 -1.0725  0.5273  0.9220
   87MOL   H36031492   2.986   2.180   4.372  1.6290 -1.1245 -0.3951
   87MOL   H36131493   2.995   2.016   4.307  0.9778  0.7027 -0.9738
   87MOL   H36231494   2.822   2.292   4.279  0.3835 -1.6187 -0.1127
   88MOL     C131495   3.437   2.674   1.188  0.0575 -0.3034 -0.1463
   88MOL     C231496   3.348   2.594   1.082 -0.1336  0.2061 -0.5377
   88MOL     C331497   3.292   2.686   0.974  0.4404 -0.0806  0.2710
   88MOL     C431498   3.402   2.756   0.894 -0.1208  0.0908  0.0785
   88MOL     C531499   3.365   2.885   0.840  0.9471 -0.0509 -0.0927
   88MOL     C631500   3.454   2.665   0.781 -0.1146 -0.6906 -0.0936
   88MOL     H731501   3.541   2.681   1.157  0.4484 -1.4456  0.8694
   88MOL     H831502   3.392   2.767   1.223 -1.4322 -0.8740 -0.4906
   88MOL     H931503   3.422   2.529   1.036  0.0920  0.0161  0.0854
   88MOL    H1031504   3.229   2.635   0.901  0.0127  2.0400 -0.8817
   88MOL    H1131505   3.221   2.758   1.015  1.6583  0.5280  1.3515
   88MOL    H1231506   3.486   2.777   0.959  0.9698 -0.3717 -1.1608
   88MOL    H1331507   3.330   2.961   0.910 -1.5347  0.1272 -1.4304
   88MOL    H1431508   3.442   2.923   0.773 -0.6055  1.4556 -1.0971
   88MOL    H1531509   3.280   2.875   0.771  0.2754  3.3493  0.1384
   88MOL    H1631510   3.529   2.710   0.716  0.7787 -1.6893  0.2413
   88MOL    H1731511   3.379   2.618   0.717 -0.6943  3.2061 -2.4553
   88MOL    H1831512   3.501   2.586   0.839 -2.9601 -2.1408  0.3209
   88MOL    H1931513   3.437   2.603   1.270 -0.8339 -0.4765 -0.2927
   88MOL    C2031514   3.234   2.507   1.142  0.3181  0.3370 -0.2012
   88MOL    C2131515   3.179   2.387   1.058  0.8041  0.0533 -0.1874
   88MOL    C2231516   3.294   2.282   1.036  0.1147  0.1639 -0.1896
   88MOL    C2331517   3.267   2.187   0.921  0.1911  0.5250 -0.5750
   88MOL    C2431518   3.266   2.241   0.780 -0.3157  0.5080  0.0711
   88MOL    C2531519   3.349   2.061   0.926 -0.1437  0.6231  0.2166
   88MOL    H2631520   3.275   2.461   1.232  0.1238 -0.4549 -0.5157
   88MOL    H2731521   3.148   2.574   1.157  0.7239  1.1107 -1.3006
   88MOL    H2831522   3.137   2.421   0.963  3.5297 -3.0815 -2.6295
   88MOL    H2931523   3.310   2.232   1.131 -1.4588  2.5027  1.3517
   88MOL    H3031524   3.391   2.326   1.011 -0.0703  0.5658 -0.1933
   88MOL    H3131525   3.163   2.165   0.942  0.4418 -0.4429 -0.3281
   88MOL    H3231526   3.354   2.302   0.759 -0.2386  0.1735 -0.5804
   88MOL    H3331527   3.184   2.312   0.784 -1.8655 -1.2526  0.1406
   88MOL    H3431528   3.248   2.169   0.700 -0.6346 -0.1502  0.7298
   88MOL    H3531529   3.458   2.065   0.928 -0.1853  1.4244  4.2015
   88MOL    H3631530   3.327   2.016   1.022  0.6376  0.2417  0.2169
   88MOL    H3731531   3.311   1.983   0.860 -0.7768 -0.1422  1.4736
   88MOL    C3831532   3.072   2.312   1.143 -0.2612  0.3973 -0.1648
   88MOL    C3931533   2.929   2.372   1.111  0.1866  0.0281  0.4713
   88MOL    C4031534   2.820   2.354   1.217 -0.3088  0.0337 -0.3933
   88MOL    C4131535   2.843   2.428   1.352 -0.3572  0.1923 -0.2539
   88MOL    C4231536   2.757   2.367   1.468  0.2933 -0.1434 -0.5597
   88MOL    C4331537   2.822   2.578   1.355  0.4728  0.3377  0.4384
   88MOL    H4431538   3.099   2.317   1.249 -2.1851  1.2408  0.3122
   88MOL    H4531539   3.075   2.203   1.143 -0.4198  0.3868 -1.5413
   88MOL    H4631540   2.937   2.478   1.087  0.9542 -0.4371 -1.4973
   88MOL    H4731541   2.822   2.248   1.242  0.8695  0.2177  0.3209
   88MOL    H4831542   2.724   2.389   1.180 -0.9463  0.3130  1.4876
   88MOL    H4931543   2.947   2.402   1.375 -1.0312 -0.5823  2.0183
   88MOL    H5031544   2.771   2.261   1.489 -0.1631 -0.2284 -0.6831
   88MOL    H5131545   2.764   2.421   1.563  0.3912 -0.6451 -0.2822
   88MOL    H5231546   2.654   2.371   1.433  0.1050  0.9852  0.0760
   88MOL    H5331547   2.878   2.631   1.278 -1.6919  1.5305 -0.3495
   88MOL    H5431548   2.846   2.620   1.453  0.2465 -0.8641  1.0267
   88MOL    H5531549   2.715   2.597   1.343  0.6460  0.7813 -0.4051
   88MOL    C5631550   2.864   2.315   0.981  0.3059  0.5953 -0.8818
   88MOL    C5731551   2.776   2.408   0.898 -0.7418 -0.1626 -0.5182
   88MOL    C5831552   2.693   2.334   0.794 -0.1523  0.2136 -0.1090
   88MOL    C5931553   2.756   2.294   0.661  0.0545  0.0797  0.4160
   88MOL    C6031554   2.650   2.284   0.555  0.4541  0.2564 -0.0520
   88MOL    C6131555   2.827   2.159   0.654 -0.5246 -0.6490 -0.3055
   88MOL    H6231556   2.818   2.217   0.999  2.0184  0.1823  1.4516
   88MOL    H6331557   2.945   2.272   0.923 -0.2403  0.1881 -1.3519
   88MOL    H6431558   2.696   2.450   0.959 -0.4737  1.4470 -1.2467
   88MOL    H6531559   2.642   2.247   0.834 -0.2647  0.6537  0.7016
   88MOL    H6631560   2.610   2.399   0.765  0.0194  0.2366 -0.5614
   88MOL    H6731561   2.834   2.366   0.638  0.7504 -1.2506 -1.5276
   88MOL    H6831562   2.680   2.262   0.453 -0.8536  2.4597 -0.9452
   88MOL    H6931563   2.602   2.381   0.551  2.1913  1.1566  0.6212
   88MOL    H7031564   2.576   2.213   0.593 -0.0978  0.5407 -0.5869
   88MOL    H7131565   2.903   2.152   0.731 -0.9729 -0.5073  0.1527
   88MOL    H7231566   2.888   2.146   0.565  1.4463 -2.6265  1.2920
   88MOL    H7331567   2.766   2.069   0.660  1.9339 -2.3618 -0.3459
   88MOL    C7431568   2.852   2.529   0.834 -0.1837  0.9196  0.0285
   88MOL    C7531569   2.780   2.628   0.742  0.8053 -0.5580  0.1155
   88MOL    C7631570   2.874   2.736   0.689 -0.2961  0.0721  0.4439
   88MOL    C7731571   2.936   2.704   0.554 -0.6634  0.3522 -0.5256
   88MOL    C7831572   3.040   2.812   0.526  0.5323 -0.5267  0.0259
   88MOL    C7931573   2.832   2.705   0.443  0.3225 -0.3122  0.1057
   88MOL    H8031574   2.934   2.487   0.776 -0.2965 -1.7430  1.7092
   88MOL    H8131575   2.898   2.590   0.911 -0.3857  1.0467  0.0483
   88MOL    H8231576   2.735   2.574   0.659  0.7956 -0.1418 -0.1504
   88MOL    H8331577   2.811   2.818   0.657 -0.9140 -0.7118 -0.3810
   88MOL    H8431578   2.947   2.777   0.759  1.2019 -1.8036  0.0247
   88MOL    H8531579   2.981   2.605   0.559  1.0170  1.1653  0.8122
   88MOL    H8631580   2.994   2.910   0.520  3.0808  0.7467  0.9450
   88MOL    H8731581   3.089   2.785   0.432  2.0137 -3.3467  1.5379
   88MOL    H8831582   3.128   2.816   0.590  1.1286 -1.5079 -0.7103
   88MOL    H8931583   2.867   2.653   0.353 -2.8835 -0.4094 -1.1449
   88MOL    H9031584   2.746   2.640   0.457  0.2695 -0.1982  0.2968
   88MOL    H9131585   2.789   2.803   0.424 -1.4039 -0.9998  0.3716
   88MOL    C9231586   2.659   2.699   0.821 -0.6272 -0.4387  0.3495
   88MOL    C9331587   2.549   2.762   0.734  0.4854 -0.5779  0.0116
   88MOL    C9431588   2.470   2.648   0.667 -0.1547 -0.7665 -0.1218
   88MOL    C9531589   2.342   2.688   0.583 -0.1533  1.2237  0.3424
   88MOL    C9631590   2.373   2.772   0.458 -0.2049  0.0032  0.1927
   88MOL    C9731591   2.282   2.551   0.537  0.2716  0.3504  0.8088
   88MOL    H9831592   2.616   2.634   0.897 -0.6013 -1.4943 -0.5294
   88MOL    H9931593   2.704   2.771   0.890 -1.7412  0.0137  0.6027
   88MOL   H10031594   2.583   2.827   0.655  0.7039  0.8460  1.2548
   88MOL   H10131595   2.446   2.575   0.745 -0.8978 -2.1252 -1.5837
   88MOL   H10231596   2.541   2.599   0.600  0.3333  1.3026 -1.1654
   88MOL   H10331597   2.271   2.741   0.646 -0.0009  0.9739  0.7212
   88MOL   H10431598   2.275   2.795   0.417  0.0221 -0.4780 -0.6325
   88MOL   H10531599   2.431   2.711   0.389 -0.4159 -0.1040  0.1125
   88MOL   H10631600   2.418   2.869   0.477 -2.1857  0.8126  0.9096
   88MOL   H10731601   2.214   2.562   0.453  2.3816 -2.0795 -1.3251
   88MOL   H10831602   2.236   2.501   0.623 -0.4755  2.1430  1.4683
   88MOL   H10931603   2.356   2.481   0.496  0.5901  1.6415 -0.8464
   88MOL   C11031604   2.464   2.867   0.819  0.3275  0.1312  0.1243
   88MOL   C11131605   2.533   2.996   0.859 -0.4142 -0.1998 -0.2987
   88MOL   C11231606   2.536   3.092   0.739  0.1275  0.0577 -0.2747
   88MOL   C11331607   2.656   3.184   0.740 -0.3915 -0.3088  0.4526
   88MOL   C11431608   2.631   3.309   0.654 -0.6281  0.1982  0.5469
   88MOL   C11531609   2.782   3.116   0.685  0.1136  0.3144  0.4368
   88MOL   H11631610   2.450   2.813   0.913 -1.1140  2.1526  1.1092
   88MOL   H11731611   2.364   2.895   0.786  0.2041  0.8537  1.1066
   88MOL   H11831612   2.638   2.977   0.879  0.1095  2.1447 -0.7548
   88MOL   H11931613   2.444   3.149   0.738  1.1671  1.8614  1.8199
   88MOL   H12031614   2.529   3.041   0.644 -1.7525 -0.1651 -0.0213
   88MOL   H12131615   2.663   3.225   0.841  0.1499  1.6177 -0.3277
   88MOL   H12231616   2.537   3.362   0.673 -0.2813  0.7439  0.7464
   88MOL   H12331617   2.625   3.270   0.552 -1.2602  3.6993 -0.8310
   88MOL   H12431618   2.711   3.383   0.652 -1.2471  0.8777  0.3939
   88MOL   H12531619   2.769   3.077   0.584  1.5734  1.6877 -0.3016
   88MOL   H12631620   2.805   3.033   0.753  1.7002  0.5759  0.2241
   88MOL   H12731621   2.868   3.182   0.679  1.0510 -0.7993  1.2081
   88MOL   C12831622   2.471   3.052   0.989 -0.6900  0.5377  0.1264
   88MOL   C12931623   2.506   2.971   1.123 -0.3005  0.2639 -0.1918
   88MOL   C13031624   2.375   2.901   1.177 -0.1089 -0.2743  0.4387
   88MOL   C13131625   2.408   2.778   1.267 -0.7393 -0.3165  0.5266
   88MOL   C13231626   2.298   2.757   1.375  0.1372 -0.1333  0.1619
   88MOL   C13331627   2.439   2.645   1.193  0.0199 -0.2408 -0.0962
   88MOL   H13431628   2.362   3.051   0.982 -0.7822 -1.2914  1.4405
   88MOL   H13531629   2.484   3.159   1.004 -0.1681  0.7167 -1.5240
   88MOL   H13631630   2.586   2.898   1.109  0.2095 -0.1496  4.1902
   88MOL   H13731631   2.304   2.974   1.217 -1.2960  0.3295 -2.6942
   88MOL   H13831632   2.320   2.859   1.093  1.0099  0.3693 -0.6321
   88MOL   H13931633   2.497   2.791   1.328  0.5833  0.5199 -1.5265
   88MOL   H14031634   2.208   2.723   1.323  0.0197 -0.6762  0.7162
   88MOL   H14131635   2.268   2.845   1.431 -1.6138  0.0957 -1.0862
   88MOL   H14231636   2.338   2.686   1.448 -1.1719 -0.5547  0.4786
   88MOL   H14331637   2.478   2.571   1.264 -2.4729 -2.2902 -0.7820
   88MOL   H14431638   2.352   2.603   1.143 -1.6499  3.0870 -0.1391
   88MOL   H14531639   2.517   2.656   1.118  0.7492  0.4993  0.7455
   88MOL   C14631640   2.561   3.067   1.230 -0.3686  0.1124 -0.6961
   88MOL   C14731641   2.709   3.117   1.195  0.2796  0.0917  0.8143
   88MOL   C14831642   2.816   3.007   1.231 -0.1256 -0.1729  0.5940
   88MOL   C14931643   2.953   3.012   1.159  0.1568 -0.9184 -0.4546
   88MOL   C15031644   3.059   2.942   1.242 -0.5972 -0.1840 -0.4042
   88MOL   C15131645   2.947   2.977   1.007  0.1947  0.5920  0.4031
   88MOL   H15231646   2.570   3.002   1.318  2.1555  0.9003 -0.3248
   88MOL   H15331647   2.492   3.150   1.240 -0.9274 -0.5486  1.2041
   88MOL   H15431648   2.714   3.125   1.087 -1.2519 -0.3740  0.6920
   88MOL   H15531649   2.833   3.010   1.339 -0.0342 -2.0648  0.6531
   88MOL   H15631650   2.774   2.907   1.219  0.5228 -0.4758  0.8284
   88MOL   H15731651   2.987   3.115   1.164  0.2492 -1.0704  2.4484
   88MOL   H15831652   3.159   2.950   1.199 -0.1683  0.9673  0.7527
   88MOL   H15931653   3.042   2.838   1.267  0.4524  0.0107  1.2832
   88MOL   H16031654   3.070   2.986   1.342  1.4942 -0.8958 -0.3032
   88MOL   H16131655   2.919   2.872   0.998  0.9919  0.3647  0.5471
   88MOL   H16231656   3.036   3.001   0.949 -0.5812 -2.6673 -2.2861
   88MOL   H16331657   2.862   3.031   0.965 -0.7945  0.3775  2.0819
   88MOL   C16431658   2.750   3.251   1.261 -0.5763  0.3973  0.3043
   88MOL   C16531659   2.771   3.384   1.173  0.2912 -0.0272  0.3322
   88MOL   C16631660   2.639   3.467   1.157 -1.1307 -0.0351  0.0442
   88MOL   C16731661   2.645   3.593   1.064  0.8710 -0.8676  0.1487
   88MOL   C16831662   2.645   3.559   0.914  0.1521 -0.0835 -0.4113
   88MOL   C16931663   2.538   3.696   1.086 -0.3500 -0.1745 -0.0164
   88MOL   H17031664   2.676   3.272   1.339 -0.3461  0.7868  0.4193
   88MOL   H17131665   2.839   3.235   1.322 -0.1884 -1.1462 -0.6518
   88MOL   H17231666   2.811   3.355   1.076 -1.6956 -0.9373 -0.2306
   88MOL   H17331667   2.547   3.413   1.134 -0.6095 -1.3095  0.9122
   88MOL   H17431668   2.620   3.498   1.259  0.0742  0.8133  0.0254
   88MOL   H17531669   2.740   3.643   1.082 -0.1276  0.8416  0.7136
   88MOL   H17631670   2.634   3.641   0.843  0.4462 -0.0439 -0.4112
   88MOL   H17731671   2.555   3.499   0.898 -0.0251 -0.1018  0.5741
   88MOL   H17831672   2.735   3.504   0.887  0.1004  0.0296 -0.8187
   88MOL   H17931673   2.441   3.671   1.044  0.6609 -2.2808 -1.1817
   88MOL   H18031674   2.551   3.800   1.056 -2.8301  0.1635 -0.0177
   88MOL   H18131675   2.500   3.698   1.188 -1.1907 -3.0041 -0.2267
   88MOL   C18231676   2.888   3.479   1.224  0.2970 -0.2736 -0.4240
   88MOL   C18331677   3.032   3.423   1.197  0.0180  0.5897  0.1884
   88MOL   C18431678   3.075   3.464   1.061 -0.2752 -0.0858 -0.8020
   88MOL   C18531679   3.216   3.424   1.012  0.2799 -0.0005 -0.0755
   88MOL   C18631680   3.214   3.271   0.995 -0.1659 -0.3551 -0.6527
   88MOL   C18731681   3.239   3.489   0.871  0.1517  0.4369  1.0251
   88MOL   H18831682   2.869   3.490   1.331  0.4095 -0.1719 -0.4149
   88MOL   H18931683   2.900   3.585   1.204  4.1047 -0.4274  0.6610
   88MOL   H19031684   3.037   3.314   1.200  1.2626  0.5702 -1.5712
   88MOL   H19131685   3.067   3.571   1.042  1.3047  0.0860 -0.5534
   88MOL   H19231686   3.005   3.416   0.994  1.9555 -0.2518 -3.0902
   88MOL   H19331687   3.299   3.460   1.072  1.1139  0.7657 -1.6488
   88MOL   H19431688   3.129   3.232   0.938 -0.8627 -1.1813  0.9165
   88MOL   H19531689   3.210   3.220   1.091 -1.3271  1.3616  0.2437
   88MOL   H19631690   3.299   3.238   0.935 -1.4832 -1.3229 -2.0237
   88MOL   H19731691   3.232   3.597   0.866  0.3223  0.3907 -0.5838
   88MOL   H19831692   3.161   3.450   0.804  1.2596 -2.5047  1.3549
   88MOL   H19931693   3.339   3.471   0.832 -0.5460  1.4814 -1.3783
   88MOL   C20031694   3.128   3.474   1.308 -0.2372  0.7135 -0.2126
   88MOL   C20131695   3.122   3.398   1.446  0.4179 -0.3255  0.0670
   88MOL   C20231696   3.192   3.495   1.547 -0.5528 -0.1121  0.2015
   88MOL   C20331697   3.105   3.588   1.636  0.5301 -0.2970 -0.0082
   88MOL   C20431698   2.999   3.503   1.716  0.0626 -0.2703  0.8572
   88MOL   C20531699   3.194   3.681   1.721  0.3328 -0.3766  0.0194
   88MOL   H20631700   3.116   3.582   1.310 -1.5661  0.5671  0.2966
   88MOL   H20731701   3.228   3.461   1.267 -0.9787  0.4957 -2.0059
   88MOL   H20831702   3.018   3.391   1.475  0.3027  0.1635 -0.2288
   88MOL   H20931703   3.269   3.448   1.609  0.7329 -1.4386 -2.3032
   88MOL   H21031704   3.260   3.563   1.495  0.8645 -1.4265  0.2830
   88MOL   H21131705   3.049   3.657   1.572 -0.1519 -0.4610  0.4086
   88MOL   H21231706   2.926   3.447   1.657  0.7500 -2.0468  1.6729
   88MOL   H21331707   2.936   3.560   1.784 -1.1424 -1.1188  0.4690
   88MOL   H21431708   3.057   3.432   1.775 -0.9583 -1.2285  0.7342
   88MOL   H21531709   3.256   3.747   1.660  2.4557 -0.6010  1.8622
   88MOL   H21631710   3.250   3.625   1.795 -0.3973 -0.1300  0.7666
   88MOL   H21731711   3.126   3.746   1.777  0.1574 -1.1747  0.7443
   88MOL   C21831712   3.190   3.254   1.434  0.0593 -0.0048  0.1994
   88MOL   C21931713   3.212   3.173   1.565  0.1765  0.3402 -0.0775
   88MOL   C22031714   3.303   3.054   1.531 -0.0698 -0.4677  0.2215
   88MOL   C22131715   3.453   3.077   1.518  0.0560 -0.2509 -0.4147
   88MOL   C22231716   3.519   3.072   1.664 -0.0851 -0.8017 -0.3870
   88MOL   C22331717   3.504   2.968   1.417 -0.1464  0.2889  0.4169
   88MOL   H22431718   3.145   3.194   1.355 -0.2272  2.3267 -1.4781
   88MOL   H22531719   3.288   3.287   1.398  1.0822 -0.8335  2.1484
   88MOL   H22631720   3.255   3.240   1.639  0.2755  1.1599 -0.8724
   88MOL   H22731721   3.297   2.982   1.612 -0.3277 -0.4980  0.1770
   88MOL   H22831722   3.272   3.005   1.438 -1.4892  0.3904  0.2327
   88MOL   H22931723   3.460   3.179   1.479 -0.2712 -0.3668 -0.7900
   88MOL   H23031724   3.627   3.086   1.668 -0.0280 -0.3078 -2.9282
   88MOL   H23131725   3.464   3.135   1.734 -0.4740 -1.7315  0.1650
   88MOL   H23231726   3.512   2.972   1.706 -0.7956 -0.5404  0.1263
   88MOL   H23331727   3.604   2.995   1.383 -0.4958  1.8643  0.6245
   88MOL   H23431728   3.519   2.871   1.466  2.6025  0.3677 -0.1694
   88MOL   H23531729   3.443   2.955   1.328 -1.9954  0.5634  1.6276
   88MOL   C23631730   3.084   3.131   1.628 -0.0114 -0.3844 -0.1635
   88MOL   C23731731   3.088   3.063   1.773  0.1183 -0.2175  0.6197
   88MOL   C23831732   2.945   3.012   1.806 -0.0097 -0.1676 -0.7708
   88MOL   C23931733   2.903   2.874   1.754 -0.2333  0.2154  1.0513
   88MOL   C24031734   2.791   2.824   1.851  0.1832 -0.2364 -0.3042
   88MOL   C24131735   2.858   2.877   1.602  0.6933 -0.5406  0.2101
   88MOL   H24231736   3.033   3.073   1.551  0.0176  2.6875 -2.5740
   88MOL   H24331737   3.023   3.220   1.639 -0.6088 -0.7738 -0.2919
   88MOL   H24431738   3.138   2.966   1.766 -0.0252 -0.2699  0.2999
   88MOL   H24531739   2.874   3.091   1.785  2.2340  1.8434 -1.0174
   88MOL   H24631740   2.940   3.010   1.915 -1.4931 -1.1711 -0.8489
   88MOL   H24731741   2.984   2.802   1.769 -1.6189 -1.5465  0.3780
   88MOL   H24831742   2.706   2.890   1.869 -0.1219 -1.1786  1.7698
   88MOL   H24931743   2.834   2.782   1.941  1.1803 -0.0117 -0.6715
   88MOL   H25031744   2.745   2.740   1.798 -1.8957  1.7344 -1.7738
   88MOL   H25131745   2.771   2.821   1.568 -1.1566  0.7954  2.6199
   88MOL   H25231746   2.926   2.825   1.534 -2.4420 -2.4180 -1.6445
   88MOL   H25331747   2.838   2.981   1.576  0.2422 -0.9257 -1.0082
   88MOL   C25431748   3.139   3.158   1.887 -0.1581 -0.0833  0.4112
   88MOL   C25531749   3.196   3.071   2.007  0.2168  0.0230  0.0625
   88MOL   C25631750   3.337   3.037   1.968  0.1272  0.4399 -0.1306
   88MOL   C25731751   3.419   2.931   2.045  0.0675 -0.2070 -0.1055
   88MOL   C25831752   3.570   2.963   2.037  0.5537  0.2467  0.1564
   88MOL   C25931753   3.402   2.784   1.995  0.0178  0.6054 -0.2264
   88MOL   H26031754   3.208   3.232   1.847  0.6677 -0.6154  0.8429
   88MOL   H26131755   3.062   3.232   1.911 -0.3497  0.5523 -2.0155
   88MOL   H26231756   3.141   2.977   2.014 -1.3603  0.8066 -1.3528
   88MOL   H26331757   3.395   3.129   1.972  1.1499 -0.0333 -2.8452
   88MOL   H26431758   3.336   3.003   1.864  1.1742 -2.3511  0.7118
   88MOL   H26531759   3.389   2.937   2.149  1.0755  0.4564  0.1547
   88MOL   H26631760   3.590   3.064   2.074  0.0568  0.3388  0.1809
   88MOL   H26731761   3.604   2.974   1.934  0.8174  0.0695  0.2250
   88MOL   H26831762   3.642   2.898   2.087  0.2616  0.3506  0.7109
   88MOL   H26931763   3.456   2.725   2.069 -0.1857  0.1792 -0.4174
   88MOL   H27031764   3.299   2.752   1.984  0.3000  0.0880 -1.4895
   88MOL   H27131765   3.446   2.765   1.897 -0.3977  1.3294 -0.5526
   88MOL   C27231766   3.177   3.122   2.148  1.0648 -0.0608 -0.0192
   88MOL   C27331767   3.231   3.264   2.189 -0.3366 -0.0903 -0.1078
   88MOL   C27431768   3.144   3.333   2.298 -0.9445 -0.2941 -0.0967
   88MOL   C27531769   3.010   3.407   2.259 -0.6100 -0.0125  0.2353
   88MOL   C27631770   3.041   3.522   2.167  0.0163 -0.2834 -0.1320
   88MOL   C27731771   2.932   3.465   2.374  0.3270 -0.2925 -0.8341
   88MOL   H27831772   3.069   3.129   2.161  0.9402  0.4303 -1.2995
   88MOL   H27931773   3.207   3.056   2.229 -1.7659  0.3140  1.3999
   88MOL   H28031774   3.220   3.330   2.103  0.5748 -0.1114 -0.2466
   88MOL   H28131775   3.207   3.406   2.347 -0.3931 -0.5094 -0.4758
   88MOL   H28231776   3.114   3.260   2.374 -0.4933  1.5039  1.8377
   88MOL   H28331777   2.955   3.326   2.210  2.2076 -1.4935 -0.6329
   88MOL   H28431778   3.084   3.493   2.071  1.5815  2.3537 -0.2684
   88MOL   H28531779   2.951   3.574   2.134  1.5504  2.4014 -0.2308
   88MOL   H28631780   3.113   3.590   2.211  0.9454 -0.8475 -0.7579
   88MOL   H28731781   2.957   3.408   2.464  1.6802 -0.8248 -1.5199
   88MOL   H28831782   2.969   3.566   2.392 -1.1959  0.3984 -1.5622
   88MOL   H28931783   2.826   3.477   2.352  0.0679  2.3631  1.5187
   88MOL   C29031784   3.381   3.250   2.235  0.3656  0.7701 -0.3199
   88MOL   C29131785   3.466   3.383   2.220 -0.1611  0.6604  0.3316
   88MOL   C29231786   3.586   3.397   2.322 -0.0447  1.0465  0.0129
   88MOL   C29331787   3.542   3.415   2.469  0.1495 -0.0261  0.2107
   88MOL   C29431788   3.661   3.387   2.563 -0.1069  0.3558  0.3945
   88MOL   C29531789   3.490   3.554   2.493  0.0779  0.9446 -0.2733
   88MOL   H29631790   3.382   3.215   2.338  0.6846  1.2909 -0.1441
   88MOL   H29731791   3.435   3.178   2.174 -0.3895  0.7276 -0.9615
   88MOL   H29831792   3.396   3.459   2.256  0.0806  0.8155  0.4798
   88MOL   H29931793   3.661   3.473   2.299  0.0725  0.9302  0.0100
   88MOL   H30031794   3.655   3.313   2.316 -1.8396 -0.4321 -0.2266
   88MOL   H30131795   3.457   3.346   2.481  0.4905 -0.6355 -0.7937
   88MOL   H30231796   3.659   3.281   2.590 -3.5138 -0.1433 -1.4499
   88MOL   H30331797   3.642   3.446   2.652  1.8634  2.8802 -0.7746
   88MOL   H30431798   3.759   3.417   2.525 -0.3214  0.6014  0.0376
   88MOL   H30531799   3.567   3.619   2.450  1.1302 -0.2607 -0.2394
   88MOL   H30631800   3.483   3.572   2.600  1.3836  0.5366 -0.1104
   88MOL   H30731801   3.398   3.587   2.446  0.2919 -0.6395 -1.8728
   88MOL   C30831802   3.499   3.419   2.070 -0.0625 -0.2332 -0.1322
   88MOL   C30931803   3.552   3.560   2.040 -0.1646  0.3959 -0.1209
   88MOL   C31031804   3.571   3.572   1.889  0.6063  0.3575  0.0833
   88MOL   C31131805   3.682   3.655   1.832  0.4199 -0.1798  0.2139
   88MOL   C31231806   3.822   3.593   1.862  0.1450 -0.4029  0.4053
   88MOL   C31331807   3.670   3.672   1.687  0.2221 -0.6398 -0.1705
   88MOL   H31431808   3.569   3.341   2.040 -0.1062 -0.5894  0.6764
   88MOL   H31531809   3.406   3.405   2.015 -1.8887  0.3061  2.6959
   88MOL   H31631810   3.652   3.572   2.081  0.2944 -0.5422 -0.9349
   88MOL   H31731811   3.477   3.591   1.838  0.0700 -1.6662  0.2575
   88MOL   H31831812   3.598   3.476   1.845 -0.3112 -0.0634  0.4253
   88MOL   H31931813   3.683   3.754   1.877  1.5353  1.2699 -2.8258
   88MOL   H32031814   3.903   3.666   1.858 -0.1490  0.0108  1.7948
   88MOL   H32131815   3.861   3.510   1.803  0.6734 -1.5801  2.3727
   88MOL   H32231816   3.820   3.554   1.963 -2.1047 -0.1898  0.4667
   88MOL   H32331817   3.754   3.730   1.651  0.1345  1.6326  3.1102
   88MOL   H32431818   3.670   3.576   1.635 -2.2142 -1.1902  0.7548
   88MOL   H32531819   3.584   3.732   1.658 -0.2951 -0.4264  1.7766
   88MOL   C32631820   3.455   3.665   2.097  0.2580 -0.1403  0.6488
   88MOL   C32731821   3.476   3.816   2.074  0.1952 -0.3459  0.5194
   88MOL   C32831822   3.601   3.863   2.151 -0.3535 -0.1918  0.2178
   88MOL   C32931823   3.640   4.011   2.136  0.6074 -0.1505 -0.3570
   88MOL   C33031824   3.760   4.051   2.219 -0.0670  0.1740 -0.5552
   88MOL   C33131825   3.674   4.047   1.987 -0.4523  0.2490 -0.4491
   88MOL   H33231826   3.452   3.669   2.206  1.1981 -1.5823  0.7371
   88MOL   H33331827   3.353   3.631   2.078  0.2455 -0.9182  2.0104
   88MOL   H33431828   3.492   3.832   1.967  2.4663 -1.0995  0.7147
   88MOL   H33531829   3.589   3.842   2.257  0.3011  0.6583  0.4629
   88MOL   H33631830   3.686   3.799   2.127  1.4208  1.8946  0.7895
   88MOL   H33731831   3.560   4.077   2.170  1.3563  2.0173 -2.6634
   88MOL   H33831832   3.749   4.158   2.234 -2.1166  0.1511 -1.7591
   88MOL   H33931833   3.858   4.030   2.175 -0.8819 -1.3136 -1.6851
   88MOL   H34031834   3.749   4.009   2.320 -2.1715  0.8744 -0.4745
   88MOL   H34131835   3.767   3.999   1.954 -0.4612  0.6246 -1.0289
   88MOL   H34231836   3.600   4.028   1.910  0.2504  0.4126 -1.1781
   88MOL   H34331837   3.695   4.154   1.982  1.9920 -0.0684  1.7253
   88MOL   C34431838   3.352   3.899   2.107 -0.3501 -0.2937 -0.2429
   88MOL   C34531839   3.304   3.895   2.256 -0.0582  0.5296  0.4406
   88MOL   C34631840   3.156   3.920   2.266  0.1075 -0.0759 -0.0013
   88MOL   C34731841   3.111   3.948   2.410 -0.2361  0.0873  0.3376
   88MOL   C34831842   3.064   3.817   2.471 -0.1534 -0.2127  0.4918
   88MOL   C34931843   3.003   4.054   2.418 -0.4486  1.1259 -0.2481
   88MOL   H35031844   3.266   3.855   2.058 -2.6094  2.4627  1.0883
   88MOL   H35131845   3.361   3.999   2.064  1.7285 -0.6096 -0.6179
   88MOL   H35231846   3.367   3.963   2.313  1.1816 -1.1909  1.1658
   88MOL   H35331847   3.134   4.002   2.198  0.0472  0.2821  0.4445
   88MOL   H35431848   3.106   3.831   2.228  1.9235 -1.3972  0.6045
   88MOL   H35531849   3.197   3.980   2.469  0.1449 -1.6238  0.7240
   88MOL   H35631850   3.041   3.828   2.577  0.6073  0.0902  0.6262
   88MOL   H35731851   2.975   3.783   2.418  0.8218 -0.9793 -0.6788
   88MOL   H35831852   3.142   3.741   2.469 -1.1322 -1.2171  0.1339
   88MOL   H35931853   2.908   4.008   2.392 -0.6340  1.6217 -0.4317
   88MOL   H36031854   3.030   4.129   2.344  0.1533  1.3647  0.2129
   88MOL   H36131855   2.992   4.093   2.519 -2.2563  1.1039 -0.4258
   88MOL   H36231856   3.322   3.798   2.302  0.4538  0.1574 -0.5221
   89MOL     C131857   7.668   3.651   6.225  0.0969  0.9144  0.6060
   89MOL     C231858   0.008   3.529   6.214 -0.0867 -0.1376 -0.5920
   89MOL     C331859   7.689   3.396   6.198  0.4939  0.6743  0.2163
   89MOL     C431860   0.029   3.272   6.166  0.2056  0.4384  0.0082
   89MOL     C531861   0.041   3.249   6.015  0.2756 -0.6281  0.6178
   89MOL     C631862   7.750   3.140   6.239 -0.3171 -0.3479  0.4429
   89MOL     H731863   7.608   3.660   6.316  0.0540 -1.4259  0.8322
   89MOL     H831864   7.716   3.748   6.209 -0.7050  1.3006  0.5327
   89MOL     H931865   0.066   3.545   6.123 -0.7781  1.0502 -0.8350
   89MOL    H1031866   7.630   3.362   6.283 -0.8743  1.2264 -0.5007
   89MOL    H1131867   7.623   3.412   6.113  1.5811 -0.5681 -0.8998
   89MOL    H1231868   0.129   3.289   6.207 -0.0013 -1.5186  1.3675
   89MOL    H1331869   0.065   3.338   5.956 -0.5369 -1.5122 -1.0604
   89MOL    H1431870   0.126   3.183   5.998  2.7957  2.0381  2.1953
   89MOL    H1531871   7.704   3.203   5.973  0.1861 -0.8771  1.0761
   89MOL    H1631872   7.743   3.158   6.347  1.4821 -1.1914  0.7089
   89MOL    H1731873   0.084   3.075   6.228 -0.6298 -0.2601 -3.1481
   89MOL    H1831874   7.657   3.087   6.216 -0.4459 -0.1094  0.4128
   89MOL    H1931875   7.599   3.625   6.146 -0.1985 -2.0055  1.7557
   89MOL    C2031876   0.099   3.521   6.336 -0.1854  0.7544  0.2791
   89MOL    C2131877   0.217   3.626   6.331  0.5105 -0.4999 -0.2670
   89MOL    C2231878   0.288   3.651   6.471  0.5371  0.4074 -0.0300
   89MOL    C2331879   0.208   3.699   6.592 -0.3382 -0.0839  0.0615
   89MOL    C2431880   0.288   3.670   6.722 -0.1050 -0.0458  0.1888
   89MOL    C2531881   0.195   3.852   6.581  0.1059  0.2981 -0.3401
   89MOL    H2631882   0.038   3.545   6.423 -0.6601  0.6374 -0.0239
   89MOL    H2731883   0.146   3.426   6.362 -1.6098  0.0415  0.2433
   89MOL    H2831884   0.179   3.724   6.301  0.8440 -0.2389  0.1713
   89MOL    H2931885   0.374   3.716   6.451  0.0776  0.8787 -0.4943
   89MOL    H3031886   0.330   3.555   6.502 -0.6173 -0.5649 -1.4354
   89MOL    H3131887   0.109   3.655   6.597 -0.8503  0.9440 -0.9604
   89MOL    H3231888   0.264   3.731   6.809 -2.8024 -0.8783  0.0605
   89MOL    H3331889   0.395   3.689   6.712  0.2140 -2.2730 -0.8390
   89MOL    H3431890   0.276   3.566   6.752  1.7644 -0.7019 -1.2585
   89MOL    H3531891   0.150   3.874   6.484  0.8372 -0.6403 -0.8954
   89MOL    H3631892   0.126   3.888   6.657 -0.3920 -0.5678 -0.3756
   89MOL    H3731893   0.290   3.905   6.588  0.1945 -0.0685  1.4842
   89MOL    C3831894   0.324   3.576   6.227 -0.2717 -0.3268 -0.3296
   89MOL    C3931895   0.433   3.680   6.173 -0.2267 -0.6108  0.3045
   89MOL    C4031896   0.373   3.799   6.093 -0.8136  0.0267  0.2502
   89MOL    C4131897   0.264   3.771   5.981 -0.3131  0.0204 -0.0006
   89MOL    C4231898   0.317   3.684   5.865 -0.2268  0.7489  0.0101
   89MOL    C4331899   0.215   3.906   5.926  0.6986 -0.0573 -0.5383
   89MOL    H4431900   0.275   3.530   6.142 -0.2838  0.7767 -0.9296
   89MOL    H4531901   0.371   3.495   6.282  0.6724  1.5701  1.7471
   89MOL    H4631902   0.482   3.712   6.265 -0.3950 -2.2470  0.9943
   89MOL    H4731903   0.453   3.852   6.042  1.9903 -2.6667  1.7175
   89MOL    H4831904   0.327   3.873   6.160  0.8985  0.0856  1.3857
   89MOL    H4931905   0.169   3.729   6.013  0.2577  0.1174  1.9342
   89MOL    H5031906   0.303   3.578   5.885  0.5885  0.3603 -1.4082
   89MOL    H5131907   0.267   3.715   5.773  0.3843 -0.4939 -0.7633
   89MOL    H5231908   0.422   3.698   5.837  0.0228  1.6714  1.3531
   89MOL    H5331909   0.139   3.883   5.851 -1.2695 -0.3310  1.4823
   89MOL    H5431910   0.298   3.966   5.886  0.7706  1.1127  1.3095
   89MOL    H5531911   0.157   3.962   6.000 -2.1704 -0.6817 -2.2444
   89MOL    C5631912   0.546   3.615   6.093  0.1832 -0.6881 -0.0845
   89MOL    C5731913   0.635   3.507   6.167 -0.5735 -0.4769 -0.2775
   89MOL    C5831914   0.754   3.577   6.240  0.2818  0.1905  0.0498
   89MOL    C5931915   0.830   3.500   6.351  0.0371  0.7203  0.0330
   89MOL    C6031916   0.755   3.480   6.484 -0.2211  0.2896 -0.0745
   89MOL    C6131917   0.952   3.584   6.380  0.9596  0.4575 -0.0409
   89MOL    H6231918   0.607   3.700   6.060 -2.2426  0.8560 -0.7063
   89MOL    H6331919   0.498   3.579   6.002  1.3609 -1.6307 -0.3454
   89MOL    H6431920   0.571   3.470   6.247  0.8708 -0.8266  0.7410
   89MOL    H6531921   0.826   3.603   6.162 -1.6586 -1.3553 -2.3480
   89MOL    H6631922   0.721   3.671   6.284 -0.2283  0.3148 -0.5834
   89MOL    H6731923   0.867   3.409   6.304  0.4502  1.2611 -0.7104
   89MOL    H6831924   0.673   3.413   6.459  0.0376  0.0549 -0.3033
   89MOL    H6931925   0.709   3.570   6.525  2.0784  0.9073  1.2695
   89MOL    H7031926   0.820   3.437   6.561 -0.2172 -1.2534 -0.9199
   89MOL    H7131927   1.013   3.532   6.453 -2.1170  1.1965  3.1975
   89MOL    H7231928   0.925   3.673   6.437 -0.5634 -0.4782  0.7478
   89MOL    H7331929   1.007   3.614   6.291  0.8523  0.5810 -0.0656
   89MOL    C7431930   0.693   3.393   6.077 -0.2044 -0.1849 -0.1780
   89MOL    C7531931   0.605   3.315   5.976 -0.4457 -1.0716  0.0452
   89MOL    C7631932   0.484   3.253   6.044 -0.3689 -0.1363  0.3072
   89MOL    C7731933   0.490   3.125   6.126  0.5493 -0.0986 -0.2978
   89MOL    C7831934   0.347   3.083   6.179 -0.2093 -0.8862 -0.0308
   89MOL    C7931935   0.583   3.126   6.243 -0.3741  0.3553  0.9179
   89MOL    H8031936   0.741   3.319   6.140  1.0125 -1.3011 -2.3725
   89MOL    H8131937   0.778   3.431   6.021 -1.5193  0.4152 -1.8023
   89MOL    H8231938   0.565   3.391   5.908 -0.1543 -0.1419  0.9072
   89MOL    H8331939   0.426   3.320   6.108  0.3989 -1.1467  2.0785
   89MOL    H8431940   0.419   3.235   5.958 -0.6714  1.6767  0.1360
   89MOL    H8531941   0.532   3.052   6.057  0.6340  0.0079 -0.3599
   89MOL    H8631942   0.306   3.160   6.244  1.6044 -1.4922  1.9197
   89MOL    H8731943   0.354   2.993   6.241  2.1184  0.3986  1.6486
   89MOL    H8831944   0.273   3.079   6.100 -0.2281  0.7069 -0.0978
   89MOL    H8931945   0.546   3.199   6.316  3.0169  3.2102 -0.0923
   89MOL    H9031946   0.559   3.029   6.287  0.1637  0.0355  0.5173
   89MOL    H9131947   0.688   3.139   6.219 -0.3798 -1.5819 -0.2488
   89MOL    C9231948   0.672   3.211   5.889 -0.2475  0.5929  0.4882
   89MOL    C9331949   0.789   3.261   5.795  0.2130 -0.6196  0.0132
   89MOL    C9431950   0.882   3.154   5.738 -0.1504 -0.7991 -1.2494
   89MOL    C9531951   1.001   3.208   5.648  0.1191  0.2508 -0.1561
   89MOL    C9631952   1.114   3.261   5.732 -0.0814 -0.1840 -0.3928
   89MOL    C9731953   1.063   3.089   5.569 -0.5853  0.1118  0.0357
   89MOL    H9831954   0.710   3.130   5.952 -1.4038 -1.0604 -0.9193
   89MOL    H9931955   0.593   3.164   5.832 -1.5022 -1.7822  3.9811
   89MOL   H10031956   0.854   3.333   5.843 -0.4262  0.3917 -0.6261
   89MOL   H10131957   0.835   3.088   5.665 -0.1023  1.2342 -3.2061
   89MOL   H10231958   0.916   3.096   5.823 -0.7957  0.5493 -0.0483
   89MOL   H10331959   0.971   3.281   5.573  2.1566  0.7465 -0.5276
   89MOL   H10431960   1.159   3.191   5.803  0.8664  2.1073  1.3153
   89MOL   H10531961   1.074   3.338   5.798  0.6558  1.1749 -1.5132
   89MOL   H10631962   1.201   3.296   5.677  2.0071 -1.8999  1.6766
   89MOL   H10731963   1.149   3.136   5.521  0.6724 -2.5729 -0.4671
   89MOL   H10831964   1.006   3.054   5.484 -0.6429  0.7561 -0.1930
   89MOL   H10931965   1.106   3.008   5.628  1.5356 -0.1484 -1.7973
   89MOL   C11031966   0.722   3.343   5.681 -0.0792  0.3249 -0.4652
   89MOL   C11131967   0.789   3.487   5.657 -0.3594 -0.2850  0.6457
   89MOL   C11231968   0.768   3.537   5.514 -0.2037  0.3072 -0.1675
   89MOL   C11331969   0.845   3.455   5.405  0.1591  0.2310  0.5146
   89MOL   C11431970   0.997   3.478   5.395 -0.7391 -0.4262  0.4152
   89MOL   C11531971   0.783   3.467   5.262 -0.8964  0.9055 -0.7615
   89MOL   H11631972   0.615   3.358   5.697 -0.5842 -1.3745 -2.1168
   89MOL   H11731973   0.711   3.295   5.585  0.2133 -2.0994  0.6793
   89MOL   H11831974   0.898   3.480   5.662 -0.2628 -0.6236 -1.4613
   89MOL   H11931975   0.809   3.637   5.511  1.2972 -0.2663  0.7684
   89MOL   H12031976   0.664   3.542   5.482 -0.1522 -0.3254 -0.4463
   89MOL   H12131977   0.829   3.349   5.422  0.7460 -0.3609 -2.2471
   89MOL   H12231978   1.035   3.486   5.497  0.3989 -0.2834 -0.0199
   89MOL   H12331979   1.029   3.565   5.339  0.4348 -0.0425  1.6549
   89MOL   H12431980   1.046   3.388   5.359 -1.1418 -0.8314  0.8655
   89MOL   H12531981   0.675   3.451   5.258 -0.4993 -1.8089 -1.7037
   89MOL   H12631982   0.822   3.388   5.198 -0.2088  2.2111 -1.9853
   89MOL   H12731983   0.798   3.568   5.223 -1.9467  1.3121 -0.1442
   89MOL   C12831984   0.750   3.597   5.760  0.6944 -0.7125 -0.8301
   89MOL   C12931985   0.856   3.701   5.783  0.3774 -0.0392 -0.1532
   89MOL   C13031986   0.966   3.650   5.888 -0.3665 -0.4779  0.1703
   89MOL   C13131987   1.117   3.701   5.864 -0.9468  0.0768 -0.6498
   89MOL   C13231988   1.214   3.643   5.963 -0.0779  0.1374 -0.1609
   89MOL   C13331989   1.168   3.664   5.727  0.3887 -0.2133 -0.5430
   89MOL   H13431990   0.714   3.551   5.852 -0.9240 -0.8839 -1.5319
   89MOL   H13531991   0.658   3.643   5.724 -0.2948 -1.0350  1.2182
   89MOL   H13631992   0.915   3.722   5.694  2.6359  0.5288  1.4065
   89MOL   H13731993   0.940   3.686   5.988  1.6486 -1.0230  0.9362
   89MOL   H13831994   0.968   3.541   5.878 -1.7406 -0.4863 -0.0538
   89MOL   H13931995   1.126   3.808   5.884  1.4977 -0.1303 -0.5956
   89MOL   H14031996   1.179   3.668   6.063 -1.6743  1.2003 -0.9695
   89MOL   H14131997   1.310   3.692   5.947  0.9406 -1.5957  0.5383
   89MOL   H14231998   1.213   3.534   5.960 -1.8745  0.0277  2.7717
   89MOL   H14331999   1.116   3.702   5.640 -1.2548  0.2153  0.6071
   89MOL   H14432000   1.266   3.710   5.710  0.9664 -1.8273 -1.7355
   89MOL   H14532001   1.189   3.557   5.732  1.0962 -0.1281 -1.4565
   89MOL   C14632002   0.788   3.838   5.821 -0.3245 -0.6090 -0.5476
   89MOL   C14732003   0.748   3.925   5.692  0.4702 -0.1787  0.4609
   89MOL   C14832004   0.834   4.055   5.672  0.1411  0.4767  0.2069
   89MOL   C14932005   0.983   4.030   5.632 -0.0278 -0.4864 -0.2119
   89MOL   C15032006   0.998   3.963   5.498 -1.0114 -0.9168  0.1377
   89MOL   C15132007   1.075   4.157   5.633  0.0940 -0.5948  0.5504
   89MOL   H15232008   0.846   3.907   5.881  1.0757 -0.9636 -1.4781
   89MOL   H15332009   0.694   3.831   5.875  0.4818  0.8145  1.0731
   89MOL   H15432010   0.762   3.865   5.601 -0.8621 -0.3563  0.3656
   89MOL   H15532011   0.780   4.112   5.597  0.4705 -1.6067 -1.6904
   89MOL   H15632012   0.827   4.110   5.766 -1.8648  0.9264 -0.1847
   89MOL   H15732013   1.017   3.960   5.709 -0.8285 -0.5485  0.0992
   89MOL   H15832014   1.098   3.937   5.464 -0.4205 -1.9512  2.5440
   89MOL   H15932015   0.944   4.011   5.416  0.8268  0.5618 -0.2399
   89MOL   H16032016   0.961   3.861   5.499  1.6538 -1.9908 -2.4184
   89MOL   H16132017   1.047   4.215   5.545  0.1300  0.1143  0.9992
   89MOL   H16232018   1.170   4.114   5.601 -0.6447 -0.8791 -1.3361
   89MOL   H16332019   1.081   4.209   5.729 -1.2341 -0.9182  0.8083
   89MOL   C16432020   0.600   3.963   5.694 -0.4997  0.2389  0.7921
   89MOL   C16532021   0.530   3.977   5.554  0.1189 -0.2231 -0.5864
   89MOL   C16632022   0.495   3.833   5.497 -0.4253 -0.7954  0.8587
   89MOL   C16732023   0.485   3.818   5.345 -0.3365 -0.2051 -0.3139
   89MOL   C16832024   0.623   3.836   5.285  0.1395  0.4848 -0.0022
   89MOL   C16932025   0.414   3.689   5.312  0.0836  0.5663 -0.7826
   89MOL   H17032026   0.535   3.902   5.757 -1.0449 -0.2135 -0.1964
   89MOL   H17132027   0.592   4.061   5.741  1.3310  2.6386 -3.5981
   89MOL   H17232028   0.604   4.010   5.481  0.3102  0.2057 -0.2037
   89MOL   H17332029   0.567   3.763   5.538  1.0950 -0.3600 -0.9801
   89MOL   H17432030   0.406   3.785   5.538 -0.1396  0.4926  3.1115
   89MOL   H17532031   0.431   3.907   5.313  3.9000  1.9922 -1.7251
   89MOL   H17632032   0.689   3.752   5.308 -1.1897 -0.1542  1.6785
   89MOL   H17732033   0.677   3.929   5.296  0.7319  0.0278  1.0667
   89MOL   H17832034   0.624   3.826   5.177 -0.0413  0.2982  0.0122
   89MOL   H17932035   0.468   3.602   5.350 -0.4396  0.9880  0.9916
   89MOL   H18032036   0.406   3.673   5.204 -2.1551  1.8217 -0.8358
   89MOL   H18132037   0.310   3.692   5.344 -0.1463 -0.2462 -1.4397
   89MOL   C18232038   0.405   4.064   5.560 -0.4796  0.8026 -0.1062
   89MOL   C18332039   0.437   4.214   5.545  0.5280 -0.3265  0.7424
   89MOL   C18432040   0.432   4.244   5.387  0.6292  0.7719 -0.0826
   89MOL   C18532041   0.514   4.365   5.326 -0.5827  0.3237  0.4755
   89MOL   C18632042   0.663   4.340   5.318  0.2977 -0.0133 -0.3416
   89MOL   C18732043   0.452   4.431   5.197  0.3992 -0.1170 -0.0609
   89MOL   H18832044   0.358   4.032   5.653 -1.9339 -0.1149 -1.1395
   89MOL   H18932045   0.337   4.043   5.477  0.3095 -3.2904  0.1664
   89MOL   H19032046   0.533   4.228   5.594 -0.1445 -1.4014  2.4312
   89MOL   H19132047   0.326   4.246   5.365  0.9033  3.2668 -1.4098
   89MOL   H19232048   0.473   4.156   5.336  2.8009  2.0353 -0.5739
   89MOL   H19332049   0.504   4.445   5.399  2.3215 -0.2434  1.5541
   89MOL   H19432050   0.694   4.309   5.418  1.6365 -0.2600 -0.8272
   89MOL   H19532051   0.720   4.430   5.294 -0.7097  0.5777 -0.5709
   89MOL   H19632052   0.691   4.273   5.237 -0.8771  3.4516 -3.7902
   89MOL   H19732053   0.505   4.396   5.109  0.5605 -0.9195  0.3455
   89MOL   H19832054   0.469   4.538   5.191 -2.2404  0.6024  3.2959
   89MOL   H19932055   0.347   4.402   5.190  0.0182  0.9434  1.0136
   89MOL   C20032056   0.340   4.311   5.613 -0.0741 -0.4228  0.8937
   89MOL   C20132057   0.330   4.322   5.767  0.3618  0.3667  0.6045
   89MOL   C20232058   0.201   4.389   5.817 -0.1462  0.5254  0.2531
   89MOL   C20332059   0.058   4.343   5.775  1.1241 -0.0468  0.4616
   89MOL   C20432060   0.047   4.189   5.795  0.5966 -0.1739  0.4644
   89MOL   C20532061   7.692   4.406   5.847 -0.0328  0.6784  0.3413
   89MOL   H20632062   0.235   4.293   5.587 -0.6080  1.3535  1.7468
   89MOL   H20732063   0.368   4.410   5.579  1.4778 -1.1082  0.1401
   89MOL   H20832064   0.330   4.216   5.792 -0.2890  0.1488 -0.2665
   89MOL   H20932065   0.191   4.368   5.924  0.5485  1.9202  0.6030
   89MOL   H21032066   0.199   4.496   5.802 -0.5584  0.3867 -0.7169
   89MOL   H21132067   0.046   4.367   5.670  2.9649  1.4487  0.5754
   89MOL   H21232068   7.700   4.157   5.762  0.1228  1.7071 -0.0703
   89MOL   H21332069   0.064   4.159   5.898 -1.1625 -1.5761  0.3707
   89MOL   H21432070   0.115   4.134   5.730  0.8618 -0.6761  1.1725
   89MOL   H21532071   7.598   4.365   5.811  0.5198 -0.5559  0.2918
   89MOL   H21632072   7.699   4.513   5.827  2.4450  0.8071  1.7116
   89MOL   H21732073   7.693   4.385   5.954 -1.6612  1.4368  0.5269
   89MOL   C21832074   0.458   4.392   5.829  0.6693 -0.5438 -0.9293
   89MOL   C21932075   0.486   4.382   5.979  0.4838  0.5571 -0.4879
   89MOL   C22032076   0.545   4.517   6.027 -0.3525  0.3132 -0.2333
   89MOL   C22132077   0.444   4.635   6.029  0.6298 -0.4788 -0.0492
   89MOL   C22232078   0.356   4.638   6.160  0.0652  0.1816  0.4105
   89MOL   C22332079   0.493   4.778   6.014  0.4807 -0.3609  0.2333
   89MOL   H22432080   0.549   4.354   5.782  0.2261  0.1638 -2.3868
   89MOL   H22532081   0.463   4.496   5.797  0.3130 -0.3748 -0.4266
   89MOL   H22632082   0.390   4.370   6.029  1.4980 -0.3972  1.2477
   89MOL   H22732083   0.593   4.500   6.124  0.2323 -0.8862 -0.7234
   89MOL   H22832084   0.627   4.537   5.958  0.0765  1.0881  0.4815
   89MOL   H22932085   0.372   4.621   5.948 -0.9992  3.5553  0.5882
   89MOL   H23032086   0.272   4.705   6.141  0.7338  1.8514  3.0579
   89MOL   H23132087   0.307   4.542   6.177  0.6634 -0.0873  0.6341
   89MOL   H23232088   0.411   4.671   6.248  1.3667 -1.4495  0.2352
   89MOL   H23332089   0.572   4.787   5.940 -1.8445  0.2466 -2.2697
   89MOL   H23432090   0.409   4.839   5.981  0.7626 -0.5390 -0.8322
   89MOL   H23532091   0.539   4.804   6.110 -2.0528 -0.5107  1.5380
   89MOL   C23632092   0.583   4.254   5.997 -0.7189  0.1732 -0.1611
   89MOL   C23732093   0.586   4.206   6.152 -0.0800  0.0715  0.7906
   89MOL   C23832094   0.658   4.074   6.166  0.0759  0.2685  0.1005
   89MOL   C23932095   0.812   4.074   6.146  0.4484  0.0226 -0.4019
   89MOL   C24032096   0.889   4.180   6.225 -0.5261 -0.2988 -0.6082
   89MOL   C24132097   0.871   3.935   6.176  0.1397 -0.5967  0.2577
   89MOL   H24232098   0.685   4.280   5.967 -0.6058 -2.6539 -2.4181
   89MOL   H24332099   0.541   4.172   5.939  1.4525 -0.9042 -0.2513
   89MOL   H24432100   0.632   4.285   6.211 -0.3873  0.0383  1.0730
   89MOL   H24532101   0.619   4.007   6.089 -0.7496 -0.0037  0.7590
   89MOL   H24632102   0.633   4.026   6.260  0.9907 -0.6076 -0.1015
   89MOL   H24732103   0.815   4.094   6.039  0.1633  2.0601 -0.0506
   89MOL   H24832104   0.996   4.165   6.206 -0.7901 -0.3640 -2.0716
   89MOL   H24932105   0.859   4.177   6.329 -3.3542  1.0300 -1.3284
   89MOL   H25032106   0.859   4.278   6.189  2.2917  1.9564  2.8445
   89MOL   H25132107   0.820   3.857   6.120 -0.2740  1.4994 -2.3877
   89MOL   H25232108   0.845   3.899   6.276 -1.5963 -0.7924 -0.2427
   89MOL   H25332109   0.978   3.936   6.155  0.2449  2.2837  0.6565
   89MOL   C25432110   0.433   4.177   6.196  0.4866  0.7470  0.1261
   89MOL   C25532111   0.377   4.256   6.316  0.0118 -0.2346 -0.7431
   89MOL   C25632112   0.230   4.218   6.333  0.2826 -0.0374  0.6893
   89MOL   C25732113   0.128   4.295   6.262  0.8386  0.3907 -0.0971
   89MOL   C25832114   0.077   4.415   6.341  0.1822  0.0302 -0.4579
   89MOL   C25932115   0.009   4.206   6.226 -0.0387  0.0026 -0.8865
   89MOL   H26032116   0.358   4.177   6.117 -1.2203 -3.0512  1.6641
   89MOL   H26132117   0.428   4.071   6.219  0.3703  0.4309 -1.3229
   89MOL   H26232118   0.388   4.359   6.282  3.5028 -0.6743 -1.1252
   89MOL   H26332119   0.190   4.197   6.432 -0.5281 -2.7820 -0.2004
   89MOL   H26432120   0.235   4.120   6.286 -0.6226  0.5000 -0.5440
   89MOL   H26532121   0.172   4.338   6.171 -0.8452 -1.0476 -1.6324
   89MOL   H26632122   0.017   4.479   6.276 -1.9127  1.4666  2.7589
   89MOL   H26732123   0.159   4.472   6.384  1.2871 -0.5222 -1.8088
   89MOL   H26832124   0.004   4.404   6.422  0.8552  0.0562  0.1503
   89MOL   H26932125   7.682   4.262   6.177 -0.4369 -0.3999 -0.7127
   89MOL   H27032126   0.028   4.127   6.153  2.3308 -0.6010  0.3541
   89MOL   H27132127   7.713   4.155   6.310  3.0963 -0.7849  0.4958
   89MOL   C27232128   0.453   4.234   6.444  0.6346  0.3544  0.5196
   89MOL   C27332129   0.412   4.330   6.553  0.1898 -0.2349 -0.1287
   89MOL   C27432130   0.416   4.261   6.690 -0.2272  0.5643  0.1317
   89MOL   C27532131   0.287   4.187   6.731  0.2582  0.0566  0.3941
   89MOL   C27632132   0.183   4.286   6.783  0.4694 -0.1675 -0.3037
   89MOL   C27732133   0.320   4.090   6.849  0.1278 -0.2899 -0.6930
   89MOL   H27832134   0.434   4.130   6.470 -1.1619  0.5935  0.2407
   89MOL   H27932135   0.561   4.239   6.432  0.7826 -3.0787 -0.0631
   89MOL   H28032136   0.311   4.368   6.537 -0.0262 -1.8902 -3.0520
   89MOL   H28132137   0.443   4.325   6.774  3.3936 -2.4735  1.3923
   89MOL   H28232138   0.504   4.197   6.686  0.5908  1.5384  1.8859
   89MOL   H28332139   0.254   4.132   6.643  0.3302 -0.1605  0.5008
   89MOL   H28432140   0.150   4.357   6.707 -1.0128 -2.0217 -1.4178
   89MOL   H28532141   0.087   4.237   6.798  1.7900 -3.1694 -1.3569
   89MOL   H28632142   0.213   4.332   6.877  1.9153  0.3374 -0.9935
   89MOL   H28732143   0.231   4.037   6.881  0.8065 -0.6189  0.7340
   89MOL   H28832144   0.398   4.019   6.820  0.4014 -0.0014 -0.6749
   89MOL   H28932145   0.348   4.145   6.940 -1.9555 -0.5476  0.1283
   89MOL   C29032146   0.509   4.453   6.563  0.0741  0.6110  0.2313
   89MOL   C29132147   0.452   4.570   6.644 -0.0246 -0.5265  0.6541
   89MOL   C29232148   0.556   4.653   6.732  0.0587 -0.5053  0.0909
   89MOL   C29332149   0.589   4.601   6.871  0.3864 -0.3430 -0.0797
   89MOL   C29432150   0.714   4.672   6.933 -0.0675  0.1799 -0.0169
   89MOL   C29532151   0.478   4.617   6.969  0.5133 -0.1812  0.1432
   89MOL   H29632152   0.606   4.426   6.605 -0.5886 -1.0429  0.7540
   89MOL   H29732153   0.546   4.474   6.462 -2.3555 -2.3626 -1.3787
   89MOL   H29832154   0.369   4.539   6.707 -0.8850 -2.6687 -1.4602
   89MOL   H29932155   0.513   4.751   6.752 -1.1797 -0.6979 -1.5093
   89MOL   H30032156   0.644   4.668   6.669 -1.4825 -0.3733 -2.0818
   89MOL   H30132157   0.610   4.494   6.863 -1.5615 -0.7577  0.1114
   89MOL   H30232158   0.801   4.669   6.867  0.2826  1.8639  0.3484
   89MOL   H30332159   0.740   4.614   7.022  2.1538 -0.8133 -1.2671
   89MOL   H30432160   0.707   4.778   6.954 -0.0459 -0.0861  1.3787
   89MOL   H30532161   0.473   4.721   7.000  1.9978  0.0016 -0.2138
   89MOL   H30632162   0.506   4.564   7.060  0.3040 -0.3410  0.1177
   89MOL   H30732163   0.375   4.591   6.945  0.2054  1.6023 -0.5632
   89MOL   C30832164   0.396   4.674   6.538  0.0656 -0.2293  0.9202
   89MOL   C30932165   0.303   4.786   6.583  0.3550  0.3434  0.5039
   89MOL   C31032166   0.302   4.892   6.466 -0.3084  0.5697 -0.6842
   89MOL   C31132167   0.426   4.978   6.436 -0.3880 -0.4279  0.1411
   89MOL   C31232168   0.427   5.045   6.300  0.4242  0.0189 -0.3092
   89MOL   C31332169   0.452   5.079   6.557 -0.4275  0.1577  0.5743
   89MOL   H31432170   0.472   4.715   6.472 -0.0114 -1.0475  0.3078
   89MOL   H31532171   0.338   4.614   6.468 -0.5208  1.3656  0.0214
   89MOL   H31632172   0.348   4.836   6.669  0.7639 -1.0406  1.1036
   89MOL   H31732173   0.225   4.966   6.487 -0.8294  0.0568 -0.7518
   89MOL   H31832174   0.264   4.844   6.376 -0.6162 -0.1409 -0.1823
   89MOL   H31932175   0.517   4.919   6.445 -0.0391  0.4982  3.5612
   89MOL   H32032176   0.525   5.087   6.283 -0.8539  2.8284 -0.9943
   89MOL   H32132177   0.355   5.127   6.310 -2.0479 -2.1652  0.5708
   89MOL   H32232178   0.391   4.971   6.228 -2.1187  0.4271  0.4607
   89MOL   H32332179   0.548   5.127   6.535  0.3374 -1.8950 -0.7219
   89MOL   H32432180   0.378   5.158   6.548  2.3630  2.6861 -1.6802
   89MOL   H32532181   0.460   5.029   6.653 -1.4917  0.4590  0.8241
   89MOL   C32632182   0.164   4.733   6.624 -0.4297  0.5818 -0.2151
   89MOL   C32732183   0.090   4.818   6.730 -0.4041 -0.7387  0.0194
   89MOL   C32832184   0.160   4.802   6.870 -0.8090  0.0076 -0.2182
   89MOL   C32932185   0.155   4.928   6.965 -1.0400  0.3233 -0.2516
   89MOL   C33032186   0.018   4.997   6.980 -0.1940  0.3756  1.0657
   89MOL   C33132187   0.204   4.888   7.105  0.1692  0.4871 -0.0940
   89MOL   H33232188   0.168   4.631   6.661  0.9935  0.5808 -0.3730
   89MOL   H33332189   0.102   4.742   6.534  1.0277 -0.2880 -1.3294
   89MOL   H33432190   0.106   4.922   6.699 -0.7062 -1.4015 -2.5256
   89MOL   H33532191   0.124   4.712   6.919  2.1170 -0.8375  0.5136
   89MOL   H33632192   0.267   4.788   6.857 -0.7544 -1.6194  1.7482
   89MOL   H33732193   0.215   5.007   6.920 -0.2666 -0.3527 -0.3973
   89MOL   H33832194   7.749   5.049   6.887  2.1258  0.3156  0.4631
   89MOL   H33932195   0.008   5.084   7.045 -1.5943  0.0062  1.3700
   89MOL   H34032196   7.697   4.927   7.020  2.0782 -2.0243  1.1826
   89MOL   H34132197   0.128   4.828   7.155  0.1125  0.3273 -0.3701
   89MOL   H34232198   0.286   4.816   7.100 -1.1210 -0.9458 -1.2842
   89MOL   H34332199   0.231   4.973   7.167 -0.8841  1.2494 -0.6692
   89MOL   C34432200   7.692   4.773   6.745 -0.4122  0.2905  0.4208
   89MOL   C34532201   7.590   4.863   6.668  0.2124  0.6004 -0.0463
   89MOL   C34632202   7.446   4.805   6.678 -0.3701  0.7981  0.0499
   89MOL   C34732203   7.357   4.900   6.588  0.1904 -0.8874 -0.6409
   89MOL   C34832204   7.211   4.894   6.621  0.4816 -0.3183  0.6436
   89MOL   C34932205   7.370   4.903   6.434 -0.0529 -0.2700  0.1023
   89MOL   H35032206   7.676   4.765   6.852 -0.0178 -0.6018  0.4157
   89MOL   H35132207   7.691   4.669   6.712 -0.1682 -0.0373  1.4477
   89MOL   H35232208   7.621   4.855   6.564 -0.8645 -0.7017 -0.2846
   89MOL   H35332209   7.441   4.700   6.650  1.7583  0.5803  0.3869
   89MOL   H35432210   7.408   4.804   6.780 -0.1530 -0.6186  0.1239
   89MOL   H35532211   7.383   5.000   6.624  3.8567 -1.4530 -1.5462
   89MOL   H35632212   7.173   4.799   6.582 -2.5105  0.4497  1.5837
   89MOL   H35732213   7.186   4.906   6.727  1.7407  1.3847  0.7711
   89MOL   H35832214   7.160   4.970   6.563 -0.6533 -1.5512  0.0161
   89MOL   H35932215   7.291   4.961   6.387 -0.5749 -0.0105  1.2778
   89MOL   H36032216   7.380   4.808   6.381 -4.3693 -1.9547  2.0358
   89MOL   H36132217   7.453   4.961   6.395 -0.1477 -0.2960 -0.1378
   89MOL   H36232218   7.611   4.965   6.699  0.8294  0.4621 -0.0061
   90MOL     C132219   5.012   4.893   4.274  0.3779  0.1686  0.1135
   90MOL     C232220   4.988   4.781   4.371 -0.1557  0.6905 -0.4620
   90MOL     C332221   4.997   4.840   4.517  0.1514 -0.2731 -0.0482
   90MOL     C432222   4.939   4.762   4.629  0.4668 -0.7267 -0.0582
   90MOL     C532223   4.804   4.691   4.599  0.5817 -0.4839  0.4326
   90MOL     C632224   4.921   4.855   4.751 -0.1713 -0.4333 -0.4186
   90MOL     H732225   4.994   4.868   4.169  0.7695 -0.8798  0.2919
   90MOL     H832226   4.945   4.979   4.280  0.4844  0.3653 -1.3629
   90MOL     H932227   4.881   4.764   4.357 -0.4192  1.6671  0.3081
   90MOL    H1032228   5.103   4.852   4.540  0.1339 -0.0208 -0.1005
   90MOL    H1132229   4.955   4.941   4.519  0.2739 -0.2362  1.5893
   90MOL    H1232230   5.001   4.678   4.661  0.8518  0.1049  1.4525
   90MOL    H1332231   4.826   4.596   4.551  2.3426  0.1316 -0.0061
   90MOL    H1432232   4.747   4.656   4.685  1.9509  0.0689  1.5743
   90MOL    H1532233   4.739   4.745   4.529 -0.9494 -1.1207  1.3271
   90MOL    H1632234   4.837   4.921   4.731 -1.3727 -1.3253  1.5420
   90MOL    H1732235   5.002   4.926   4.769 -0.6536 -0.2483  1.1302
   90MOL    H1832236   4.910   4.798   4.843  0.4615 -0.5380 -0.4039
   90MOL    H1932237   5.110   4.939   4.279  0.3840  0.8720 -4.0962
   90MOL    C2032238   5.081   4.658   4.342 -0.2998  0.2423  0.0229
   90MOL    C2132239   5.079   4.592   4.206 -0.0566 -0.2355  0.2260
   90MOL    C2232240   5.193   4.483   4.193 -0.2360 -0.2415 -0.3064
   90MOL    C2332241   5.342   4.529   4.197 -1.1964 -0.2582  0.1259
   90MOL    C2432242   5.424   4.405   4.175  0.2620  0.5286  0.1283
   90MOL    C2532243   5.384   4.644   4.111  0.1363 -0.9739  1.3189
   90MOL    H2632244   5.181   4.702   4.349 -0.3495  0.2865  0.4882
   90MOL    H2732245   5.064   4.588   4.424  0.7468 -2.5479 -2.0780
   90MOL    H2832246   5.091   4.676   4.136 -0.4395 -0.3289  0.0469
   90MOL    H2932247   5.187   4.438   4.094  0.5093 -1.1271  0.0523
   90MOL    H3032248   5.160   4.403   4.259  0.1533 -0.8208 -0.8221
   90MOL    H3132249   5.356   4.551   4.302  1.2432  1.1520 -0.4645
   90MOL    H3232250   5.525   4.406   4.215  0.9073  1.5321 -1.4976
   90MOL    H3332251   5.433   4.396   4.066 -0.2839 -1.4617  0.2222
   90MOL    H3432252   5.371   4.321   4.220  0.0002 -0.8636 -2.6652
   90MOL    H3532253   5.343   4.735   4.155 -1.7683 -0.7450 -0.7879
   90MOL    H3632254   5.492   4.639   4.101  0.0565 -2.8812  1.1932
   90MOL    H3732255   5.352   4.625   4.008 -0.3802  1.6460  0.9496
   90MOL    C3832256   4.946   4.526   4.165  0.1203 -0.2414  0.4961
   90MOL    C3932257   4.933   4.466   4.023  0.5849 -0.2126 -0.0239
   90MOL    C4032258   4.992   4.557   3.915 -0.1680  0.6703 -0.3802
   90MOL    C4132259   4.951   4.537   3.766 -0.5159 -0.6628  0.0103
   90MOL    C4232260   4.985   4.400   3.715 -0.3440 -0.6193  0.4728
   90MOL    C4332261   5.040   4.650   3.695 -0.0083 -0.7722 -0.0129
   90MOL    H4432262   4.866   4.599   4.176 -0.3402 -0.7082  0.2521
   90MOL    H4532263   4.921   4.449   4.238 -0.5619 -1.0944 -0.6246
   90MOL    H4632264   4.981   4.369   4.016  1.4504  0.2897 -1.3334
   90MOL    H4732265   5.100   4.539   3.914 -0.0859  1.0624  0.5990
   90MOL    H4832266   4.981   4.662   3.943 -0.3253  0.3129  0.9626
   90MOL    H4932267   4.846   4.557   3.741 -0.3930 -0.0768 -0.0361
   90MOL    H5032268   5.089   4.373   3.735  0.4483  1.8435 -0.1223
   90MOL    H5132269   4.929   4.314   3.753 -0.3697 -1.4514 -1.4016
   90MOL    H5232270   4.968   4.398   3.607  2.8303 -0.3074 -0.0913
   90MOL    H5332271   5.146   4.626   3.703  0.5214  2.0331  2.2573
   90MOL    H5432272   5.008   4.748   3.730  3.1078  1.5829 -3.5035
   90MOL    H5532273   4.998   4.658   3.595  1.6292 -0.4014 -0.6720
   90MOL    C5632274   4.780   4.442   4.004 -0.3822  0.1888 -0.0929
   90MOL    C5732275   4.709   4.342   4.099  0.8815  0.7436 -0.0557
   90MOL    C5832276   4.791   4.203   4.112  0.0651 -0.3111  0.2002
   90MOL    C5932277   4.738   4.102   4.210  0.1388 -0.2309 -0.0810
   90MOL    C6032278   4.747   4.153   4.356  0.2000 -0.7486 -0.2882
   90MOL    C6132279   4.812   3.967   4.197 -0.4128  0.2940  0.5935
   90MOL    H6232280   4.761   4.403   3.903 -2.3608 -0.5069  0.5150
   90MOL    H6332281   4.721   4.534   4.000 -0.4586  0.1484  0.1357
   90MOL    H6432282   4.717   4.391   4.196  0.0815 -0.5036  0.6592
   90MOL    H6532283   4.803   4.162   4.012  0.3935  0.0209  0.1026
   90MOL    H6632284   4.891   4.235   4.144  0.5309 -0.5431 -0.9993
   90MOL    H6732285   4.636   4.075   4.182  0.4016  0.1462 -1.4270
   90MOL    H6832286   4.709   4.255   4.353  1.1007 -0.4299 -1.8572
   90MOL    H6932287   4.854   4.155   4.375 -0.0052 -1.3581  0.9731
   90MOL    H7032288   4.704   4.091   4.435 -2.2551  1.7146  0.3947
   90MOL    H7132289   4.793   3.922   4.100 -0.6133 -0.6915  1.0818
   90MOL    H7232290   4.762   3.900   4.267 -0.4383  0.1882  0.4745
   90MOL    H7332291   4.918   3.971   4.222 -0.4887 -1.7610  1.3872
   90MOL    C7432292   4.560   4.334   4.071  0.7523 -0.6425 -0.1145
   90MOL    C7532293   4.464   4.357   4.192  0.1575  0.3126 -0.0467
   90MOL    C7632294   4.322   4.291   4.150 -0.3454 -0.0043  0.2992
   90MOL    C7732295   4.317   4.137   4.134  0.4081 -0.4645 -0.2467
   90MOL    C7832296   4.203   4.110   4.040 -0.2807 -0.2477  0.0614
   90MOL    C7932297   4.297   4.071   4.273  0.9577  0.4910 -0.4224
   90MOL    H8032298   4.544   4.234   4.030 -0.9747  0.2938 -1.7918
   90MOL    H8132299   4.528   4.399   3.990 -1.2073  3.3889  3.6947
   90MOL    H8232300   4.490   4.292   4.276  2.5375 -0.5567 -1.3948
   90MOL    H8332301   4.235   4.338   4.196 -0.5123  1.4959 -1.4600
   90MOL    H8432302   4.318   4.330   4.048 -2.0246 -0.3997  0.1997
   90MOL    H8532303   4.407   4.096   4.090 -0.3106 -0.0097 -2.2033
   90MOL    H8632304   4.218   4.012   3.996 -0.8327 -0.5326  0.5122
   90MOL    H8732305   4.212   4.168   3.948  1.6599 -0.0861  0.3523
   90MOL    H8832306   4.106   4.125   4.088 -1.2550 -3.5284 -0.8011
   90MOL    H8932307   4.392   4.069   4.326  0.7080  0.2903  0.0194
   90MOL    H9032308   4.222   4.124   4.331  0.5156 -1.9319  1.2994
   90MOL    H9132309   4.257   3.971   4.253  1.3266  0.3276 -0.3410
   90MOL    C9232310   4.448   4.503   4.241  0.0588  0.1925  0.1425
   90MOL    C9332311   4.410   4.506   4.391 -0.2613  0.2829 -0.2133
   90MOL    C9432312   4.524   4.448   4.486  0.3888 -0.2191  0.5407
   90MOL    C9532313   4.490   4.336   4.589 -0.3138  0.4662  0.2525
   90MOL    C9632314   4.609   4.316   4.685  0.2939  0.2626  0.2086
   90MOL    C9732315   4.370   4.371   4.676 -0.1433  0.5096  0.9062
   90MOL    H9832316   4.548   4.545   4.239  0.0110  0.3025 -1.8355
   90MOL    H9932317   4.380   4.563   4.180  1.5007 -0.4030 -2.1205
   90MOL   H10032318   4.330   4.434   4.407  0.8628 -0.8244  0.6130
   90MOL   H10132319   4.561   4.530   4.548 -1.0080  1.3652 -0.6601
   90MOL   H10232320   4.603   4.414   4.420 -2.4187 -0.4065 -2.8739
   90MOL   H10332321   4.469   4.251   4.524 -3.0579  0.6501  0.8343
   90MOL   H10432322   4.708   4.320   4.640  0.6271 -1.5755  0.7242
   90MOL   H10532323   4.608   4.230   4.752  2.2046 -1.4512 -1.8684
   90MOL   H10632324   4.613   4.403   4.752 -3.2232  1.1248 -0.6195
   90MOL   H10732325   4.278   4.373   4.616  1.7282  0.0283 -2.0603
   90MOL   H10832326   4.394   4.468   4.720  0.0860  1.1178 -0.5289
   90MOL   H10932327   4.350   4.295   4.752  0.9467 -1.8693 -1.1265
   90MOL   C11032328   4.343   4.643   4.435  0.0814  0.5704 -0.2169
   90MOL   C11132329   4.187   4.647   4.443  0.3697 -0.5053  0.4089
   90MOL   C11232330   4.142   4.785   4.509 -0.3885 -0.3767 -0.8149
   90MOL   C11332331   4.152   4.806   4.661  0.2578 -0.1588 -0.2477
   90MOL   C11432332   4.028   4.866   4.721  0.4211 -0.1266 -0.0703
   90MOL   C11532333   4.273   4.890   4.700  0.2814  0.2242 -1.0067
   90MOL   H11632334   4.375   4.709   4.354 -2.1921 -0.2120 -1.8133
   90MOL   H11732335   4.380   4.675   4.532  1.8177  0.3152 -0.7881
   90MOL   H11832336   4.169   4.573   4.521  3.3339 -0.0439  1.6088
   90MOL   H11932337   4.038   4.804   4.482 -1.0148  1.1370  2.3816
   90MOL   H12032338   4.196   4.863   4.457  2.2427 -0.5621  1.5040
   90MOL   H12132339   4.177   4.709   4.705  0.1362 -0.1097 -0.0698
   90MOL   H12232340   3.963   4.788   4.761 -2.4488  1.9041 -0.5461
   90MOL   H12332341   3.975   4.923   4.644  0.3883 -0.2383 -0.1315
   90MOL   H12432342   4.034   4.922   4.815 -1.7600  2.6190 -1.4896
   90MOL   H12532343   4.284   4.977   4.635  0.0216  2.9644  2.4241
   90MOL   H12632344   4.363   4.829   4.690 -1.7542 -3.0336  0.0401
   90MOL   H12732345   4.279   4.935   4.799 -0.1803  0.8902 -1.2790
   90MOL   C12832346   4.118   4.605   4.318 -0.4412  0.8771 -0.2086
   90MOL   C12932347   3.979   4.539   4.341  0.1621 -0.2525 -0.1945
   90MOL   C13032348   3.997   4.392   4.387  0.2468  0.2831 -0.2093
   90MOL   C13132349   3.877   4.334   4.454 -0.1283  0.1468 -0.5735
   90MOL   C13232350   3.884   4.179   4.458 -0.6624  0.4278  0.1400
   90MOL   C13332351   3.845   4.391   4.595  0.2932  0.0322  0.2634
   90MOL   H13432352   4.171   4.532   4.256 -0.2563  0.5647  0.3145
   90MOL   H13532353   4.115   4.698   4.262  0.1724  0.0066 -1.7254
   90MOL   H13632354   3.942   4.600   4.423  1.8050  1.2063 -0.5205
   90MOL   H13732355   4.020   4.333   4.298 -1.0991  1.1506 -1.1635
   90MOL   H13832356   4.079   4.372   4.456  0.0977 -1.2092 -0.4464
   90MOL   H13932357   3.789   4.359   4.394 -0.7756  1.1430  0.7773
   90MOL   H14032358   3.980   4.149   4.500  1.4938  1.7153 -3.7133
   90MOL   H14132359   3.860   4.137   4.361 -0.7012 -0.2435  0.4338
   90MOL   H14232360   3.818   4.138   4.535 -0.4777 -3.2044 -1.5261
   90MOL   H14332361   3.747   4.366   4.635 -0.5401 -0.3885 -1.9589
   90MOL   H14432362   3.925   4.368   4.665 -0.6123  1.0249  1.6577
   90MOL   H14532363   3.838   4.500   4.595 -1.4771 -0.0532  1.7306
   90MOL   C14632364   3.886   4.550   4.215 -0.3304 -0.5349  0.4555
   90MOL   C14732365   3.759   4.639   4.239  0.0206  1.2660  0.3665
   90MOL   C14832366   3.638   4.575   4.183  0.6785 -0.2632  0.2810
   90MOL   C14932367   3.498   4.614   4.249  0.5086  0.2531 -0.3448
   90MOL   C15032368   3.397   4.526   4.166 -0.6424 -0.4868  0.0999
   90MOL   C15132369   3.483   4.590   4.407  0.1495 -0.2379 -0.2237
   90MOL   H15232370   3.867   4.448   4.181  1.9658 -1.8472  2.8800
   90MOL   H15332371   3.947   4.581   4.131  2.0252 -0.4943  2.1318
   90MOL   H15432372   3.760   4.653   4.347  1.1267 -1.6821  0.7964
   90MOL   H15532373   3.645   4.588   4.075  1.2547  1.3481  0.5065
   90MOL   H15632374   3.648   4.469   4.207  0.5780 -0.6927 -1.5067
   90MOL   H15732375   3.469   4.716   4.223 -1.5080  0.3014  1.8673
   90MOL   H15832376   3.296   4.545   4.204 -0.3575 -2.0489  1.7385
   90MOL   H15932377   3.422   4.421   4.185  4.1026  0.4230 -0.5908
   90MOL   H16032378   3.392   4.543   4.059  0.2584 -1.6856 -0.1432
   90MOL   H16132379   3.519   4.489   4.425 -1.9250 -1.1863 -1.1974
   90MOL   H16232380   3.384   4.599   4.451  0.3574  0.8539  0.0441
   90MOL   H16332381   3.554   4.656   4.458  0.1016  0.9451 -1.6411
   90MOL   C16432382   3.765   4.781   4.179  0.1882  0.3463 -0.5961
   90MOL   C16532383   3.861   4.888   4.245 -0.4267  0.1298  0.7024
   90MOL   C16632384   3.899   5.000   4.143 -0.0594 -0.1138  0.7722
   90MOL   C16732385   4.005   4.964   4.039 -0.3424  0.0564  0.6376
   90MOL   C16832386   4.002   5.057   3.921  0.2296 -0.3284 -0.7113
   90MOL   C16932387   4.153   4.942   4.074  0.2164  0.6464  0.4749
   90MOL   H17032388   3.806   4.766   4.078  6.1738  1.7098  1.4224
   90MOL   H17132389   3.665   4.823   4.170 -0.5221 -0.9411  1.1279
   90MOL   H17232390   3.959   4.841   4.261 -0.9307 -1.4274 -0.7520
   90MOL   H17332391   3.812   5.042   4.094  1.2191  0.1857 -1.3208
   90MOL   H17432392   3.957   5.070   4.202 -0.8994  0.6830  0.6490
   90MOL   H17532393   3.982   4.866   3.997  1.1193  0.4053 -1.0366
   90MOL   H17632394   3.898   5.066   3.889 -0.8270 -3.0433  1.7116
   90MOL   H17732395   4.056   5.013   3.837 -1.5064 -0.0765 -1.9848
   90MOL   H17832396   4.043   5.154   3.948  1.4703 -0.3421 -2.4751
   90MOL   H17932397   4.175   4.868   4.151  0.8366  0.2503 -0.0753
   90MOL   H18032398   4.195   5.037   4.104  0.1763  0.5480  0.8511
   90MOL   H18132399   4.205   4.897   3.990  2.4670  1.2212  1.5285
   90MOL   C18232400   3.818   4.950   4.382 -0.2241  0.5783  0.1781
   90MOL   C18332401   3.699   5.054   4.385  0.6643 -0.3246  0.2803
   90MOL   C18432402   3.569   4.980   4.426 -0.2143  0.1938 -0.2238
   90MOL   C18532403   3.434   5.054   4.413  0.9584  0.2491 -0.1057
   90MOL   C18632404   3.402   5.114   4.273  0.3036 -0.4055  0.1562
   90MOL   C18732405   3.315   4.967   4.458 -0.1188  0.2472  0.1683
   90MOL   H18832406   3.907   4.993   4.427  0.1855 -1.2368  1.2006
   90MOL   H18932407   3.800   4.873   4.457  4.3446 -0.9048 -0.0956
   90MOL   H19032408   3.673   5.090   4.286 -0.1267 -1.8696 -0.0852
   90MOL   H19132409   3.595   4.947   4.527 -1.5345  1.8977  0.7085
   90MOL   H19232410   3.549   4.895   4.362 -0.7950 -0.0126  0.2241
   90MOL   H19332411   3.442   5.126   4.494 -0.1995  1.5254 -1.1135
   90MOL   H19432412   3.297   5.131   4.252  0.7092  3.1300  0.6461
   90MOL   H19532413   3.430   5.039   4.199  0.3919  1.5354 -1.8326
   90MOL   H19632414   3.461   5.203   4.247  0.1885 -0.0195  1.2137
   90MOL   H19732415   3.341   4.906   4.545  1.1415  0.5369  0.0032
   90MOL   H19832416   3.293   4.892   4.382 -1.0234 -0.1247  0.7852
   90MOL   H19932417   3.228   5.031   4.473 -1.6152 -1.5072 -0.8017
   90MOL   C20032418   3.727   5.172   4.481  0.3760 -0.0376  0.1954
   90MOL   C20132419   3.834   5.277   4.427 -0.4510 -0.5221  0.0121
   90MOL   C20232420   3.906   5.359   4.535 -0.1578 -0.0641 -0.4273
   90MOL   C20332421   4.062   5.354   4.537  0.2841 -0.1008  0.1855
   90MOL   C20432422   4.130   5.453   4.621 -0.6612 -0.3374  0.2480
   90MOL   C20532423   4.111   5.217   4.582 -0.2977  0.3624 -0.0331
   90MOL   H20632424   3.748   5.134   4.581 -0.4338 -0.4596  0.2173
   90MOL   H20732425   3.637   5.231   4.499 -0.4894 -1.8775  2.2295
   90MOL   H20832426   3.906   5.214   4.376 -0.4203 -0.3196 -0.1980
   90MOL   H20932427   3.878   5.464   4.529 -0.1201 -0.0265  0.0243
   90MOL   H21032428   3.875   5.327   4.634  2.0581  1.7396  0.9039
   90MOL   H21132429   4.090   5.359   4.432 -2.1917 -0.2574 -0.5232
   90MOL   H21232430   4.091   5.548   4.584 -1.1919  0.3653  2.5678
   90MOL   H21332431   4.238   5.452   4.603 -0.5686  1.2047  0.6018
   90MOL   H21432432   4.106   5.443   4.727  0.1215 -2.9386  0.2139
   90MOL   H21532433   4.036   5.146   4.549 -1.4320  1.8495 -0.6946
   90MOL   H21632434   4.126   5.205   4.690 -1.3151 -1.7261 -0.0994
   90MOL   H21732435   4.211   5.212   4.539 -0.4772 -3.5926 -0.1557
   90MOL   C21832436   3.758   5.374   4.335  0.2164  0.0896 -0.3029
   90MOL   C21932437   3.843   5.474   4.261  0.2401  0.1246 -0.3558
   90MOL   C22032438   3.767   5.605   4.228 -0.4067 -0.3137  0.2762
   90MOL   C22132439   3.756   5.705   4.348  1.1614  0.0906  0.1007
   90MOL   C22232440   3.889   5.769   4.374 -0.4386 -0.2934  0.1226
   90MOL   C22332441   3.637   5.805   4.324  0.4905  0.2377 -0.3394
   90MOL   H22432442   3.693   5.332   4.258  0.8756 -0.7970 -0.3782
   90MOL   H22532443   3.695   5.428   4.406 -1.5708 -1.9357 -0.3161
   90MOL   H22632444   3.933   5.507   4.313  0.3245  1.2042 -1.1689
   90MOL   H22732445   3.821   5.657   4.149 -0.6985 -2.0126 -1.0820
   90MOL   H22832446   3.665   5.579   4.199  0.3027 -2.5253 -0.3470
   90MOL   H22932447   3.725   5.658   4.441  0.2362  0.6825  0.1059
   90MOL   H23032448   3.973   5.701   4.375  1.2239  1.7012 -0.6689
   90MOL   H23132449   3.917   5.840   4.296 -0.3034 -0.8598 -0.3483
   90MOL   H23232450   3.890   5.822   4.469 -0.4076  0.0498 -0.0661
   90MOL   H23332451   3.549   5.765   4.375 -0.5293  3.2028  0.3496
   90MOL   H23432452   3.656   5.894   4.384  0.4056  0.8776 -1.2622
   90MOL   H23532453   3.618   5.846   4.225  1.4168  0.6448 -0.3513
   90MOL   C23632454   3.896   5.400   4.136 -0.9878 -0.2804 -0.1519
   90MOL   C23732455   4.027   5.461   4.077  1.0952 -0.4260 -0.2498
   90MOL   C23832456   4.011   5.457   3.922 -0.1163  0.4705  0.3225
   90MOL   C23932457   3.948   5.579   3.850  0.1167  0.4715 -0.5078
   90MOL   C24032458   4.034   5.708   3.870  0.7873 -0.6217 -0.2581
   90MOL   C24132459   3.920   5.566   3.701  0.0536 -0.1959  0.4401
   90MOL   H24232460   3.814   5.397   4.063  0.0936  0.1949 -1.4150
   90MOL   H24332461   3.917   5.294   4.148 -0.6876 -0.3574 -1.2520
   90MOL   H24432462   4.032   5.564   4.112 -1.2373 -0.3307 -0.1698
   90MOL   H24532463   3.966   5.362   3.895 -1.4179  1.2904 -0.4109
   90MOL   H24632464   4.110   5.459   3.877  0.1923  0.6578  0.9974
   90MOL   H24732465   3.851   5.610   3.887  1.5580  3.1610  1.1351
   90MOL   H24832466   3.974   5.788   3.827 -1.4925 -1.5144  1.1978
   90MOL   H24932467   4.129   5.703   3.816  0.3986 -1.1947 -0.9081
   90MOL   H25032468   4.071   5.719   3.972 -0.7437 -1.5401  0.4093
   90MOL   H25132469   3.872   5.470   3.679 -1.7035  0.9309 -0.7707
   90MOL   H25232470   4.005   5.578   3.633 -0.3282 -0.1343 -0.0330
   90MOL   H25332471   3.845   5.640   3.673  1.1396  0.9310  0.5131
   90MOL   C25432472   4.169   5.400   4.117 -0.2063 -0.0325 -0.4233
   90MOL   C25532473   4.280   5.510   4.115 -0.8920  0.2702 -0.1297
   90MOL   C25632474   4.267   5.602   4.238 -0.9154 -0.0097  0.3247
   90MOL   C25732475   4.337   5.742   4.224  1.2899  0.1914  0.3946
   90MOL   C25832476   4.364   5.791   4.370 -0.1755 -0.3603  0.2796
   90MOL   C25932477   4.253   5.838   4.137  0.0070 -0.0518 -0.0182
   90MOL   H26032478   4.161   5.364   4.219 -1.5669  1.7690  0.1238
   90MOL   H26132479   4.197   5.309   4.063 -2.5568 -2.0449  1.5804
   90MOL   H26232480   4.258   5.565   4.023  0.3787  2.0376  0.5927
   90MOL   H26332481   4.305   5.536   4.317  2.1468 -0.8935 -1.7758
   90MOL   H26432482   4.161   5.613   4.263 -0.1879  0.5890  3.4686
   90MOL   H26532483   4.437   5.735   4.179  1.5557  1.1914  0.8143
   90MOL   H26632484   4.416   5.708   4.418  1.1247 -0.3887 -1.1627
   90MOL   H26732485   4.271   5.799   4.427  0.7081  1.0388  1.5388
   90MOL   H26832486   4.416   5.886   4.368 -0.0697 -0.4374 -0.6481
   90MOL   H26932487   4.264   5.815   4.031 -0.9108  0.8966 -0.3416
   90MOL   H27032488   4.149   5.842   4.170 -0.2360  0.9022 -0.8534
   90MOL   H27132489   4.285   5.940   4.158  0.4850 -0.2185  0.0620
   90MOL   C27232490   4.415   5.458   4.091 -0.4685  0.9021  0.0910
   90MOL   C27332491   4.442   5.371   3.966  0.4354 -0.0538  0.2406
   90MOL   C27432492   4.547   5.451   3.879  0.6123 -0.2570  0.6301
   90MOL   C27532493   4.498   5.577   3.809 -0.1463 -0.4852 -0.1290
   90MOL   C27632494   4.414   5.547   3.685 -0.0335 -0.7822 -0.5570
   90MOL   C27732495   4.607   5.675   3.783  0.1044  0.3793  0.7841
   90MOL   H27832496   4.495   5.531   4.106  1.6598 -1.2911 -0.1535
   90MOL   H27932497   4.436   5.384   4.168 -2.6753 -0.0095 -0.1539
   90MOL   H28032498   4.350   5.372   3.909  0.1819  0.2216  0.6577
   90MOL   H28132499   4.589   5.394   3.796  1.4762  1.1422  0.0945
   90MOL   H28232500   4.627   5.473   3.950  0.6744 -2.0612  1.1399
   90MOL   H28332501   4.434   5.642   3.869 -0.8702 -1.1870 -0.1249
   90MOL   H28432502   4.353   5.628   3.644  2.2717 -0.3072 -3.2161
   90MOL   H28532503   4.472   5.509   3.601 -1.1784 -0.7118 -1.3913
   90MOL   H28632504   4.343   5.467   3.706  1.0143 -2.1904 -2.2794
   90MOL   H28732505   4.586   5.773   3.741  0.2123  1.0753  2.3432
   90MOL   H28832506   4.652   5.705   3.877 -0.3211  2.7272  0.2691
   90MOL   H28932507   4.693   5.642   3.723  0.6391  3.4516 -0.2540
   90MOL   C29032508   4.485   5.222   3.993 -0.0145  0.2718  0.0519
   90MOL   C29132509   4.528   5.134   3.867  0.2648 -0.5185 -0.2870
   90MOL   C29232510   4.551   4.990   3.914  0.4406  0.3021  0.4773
   90MOL   C29332511   4.675   4.966   4.005 -0.0633 -0.1752  0.3773
   90MOL   C29432512   4.657   4.832   4.085 -0.5146  0.8124  0.0964
   90MOL   C29532513   4.804   4.959   3.929 -0.2144  0.1020 -0.7464
   90MOL   H29632514   4.566   5.229   4.065  1.8944  1.9339 -2.1963
   90MOL   H29732515   4.412   5.164   4.050 -0.8019 -0.9455 -2.1161
   90MOL   H29832516   4.624   5.164   3.825  1.1379  0.1655  2.0866
   90MOL   H29932517   4.548   4.925   3.827 -1.8714  0.4256  0.4391
   90MOL   H30032518   4.458   4.960   3.962 -1.3343  0.1333 -2.9366
   90MOL   H30132519   4.687   5.049   4.075  0.5074 -2.4341  3.0572
   90MOL   H30232520   4.670   4.751   4.014 -1.6161  0.7002  0.0164
   90MOL   H30332521   4.559   4.820   4.132 -1.0612  0.7618 -1.0413
   90MOL   H30432522   4.738   4.817   4.156 -1.1085  0.4657  0.7080
   90MOL   H30532523   4.832   5.048   3.873  0.3384  0.6480  0.3684
   90MOL   H30632524   4.810   4.864   3.876 -0.1924  0.0621 -0.6729
   90MOL   H30732525   4.874   4.950   4.012 -0.9479  1.4092  0.0359
   90MOL   C30832526   4.414   5.133   3.763  0.0890  0.1248  0.6505
   90MOL   C30932527   4.437   5.066   3.624  0.4269 -0.5299  0.4135
   90MOL   C31032528   4.318   5.081   3.525  0.3254 -0.2231  0.0987
   90MOL   C31132529   4.182   5.036   3.576  0.0407  0.6051  0.7953
   90MOL   C31232530   4.070   5.082   3.472 -0.0310 -0.0889 -0.2725
   90MOL   C31332531   4.176   4.881   3.605 -0.7084 -0.2190  0.6894
   90MOL   H31432532   4.327   5.086   3.810  0.4190  0.4179  1.5690
   90MOL   H31532533   4.376   5.234   3.749  0.5453  0.3327  0.8870
   90MOL   H31632534   4.449   4.958   3.638  0.1023 -0.6159  0.0252
   90MOL   H31732535   4.352   5.042   3.430 -0.5974 -0.2551 -0.2263
   90MOL   H31832536   4.310   5.188   3.504  1.6607 -0.2146 -0.3974
   90MOL   H31932537   4.162   5.086   3.671 -0.9656  1.4457  0.1594
   90MOL   H32032538   3.969   5.055   3.501 -0.5863  1.2721 -0.8879
   90MOL   H32132539   4.093   5.035   3.376  1.8002 -0.5729  0.3772
   90MOL   H32232540   4.065   5.189   3.450 -3.3967  0.1026  1.2334
   90MOL   H32332541   4.179   4.826   3.511 -1.2444  2.1431 -0.7575
   90MOL   H32432542   4.261   4.835   3.656  1.5847  0.8903 -2.0145
   90MOL   H32532543   4.081   4.853   3.650 -0.7919  0.4342  0.9230
   90MOL   C32632544   4.562   5.127   3.554  0.3209 -0.5656 -0.5455
   90MOL   C32732545   4.705   5.067   3.561  0.3444  0.1961 -0.8796
   90MOL   C32832546   4.813   5.159   3.505 -0.0780 -0.7903  0.4690
   90MOL   C32932547   4.856   5.275   3.602 -0.1569  0.3889  0.0529
   90MOL   C33032548   5.005   5.282   3.634 -0.1075 -0.0675  0.0569
   90MOL   C33132549   4.814   5.409   3.544 -0.3476  0.0935 -0.6932
   90MOL   H33232550   4.568   5.226   3.601  2.6616 -0.7546 -0.3992
   90MOL   H33332551   4.536   5.150   3.451 -0.9287  1.4231  0.1804
   90MOL   H33432552   4.738   5.049   3.663  1.9902  0.4788 -1.3436
   90MOL   H33532553   4.902   5.098   3.483 -0.1575 -0.3492 -1.1295
   90MOL   H33632554   4.781   5.202   3.410  1.0079 -0.0311  0.4330
   90MOL   H33732555   4.812   5.270   3.702 -0.0850  0.5648  0.0940
   90MOL   H33832556   5.038   5.190   3.682 -0.1733 -0.7031 -1.1230
   90MOL   H33932557   5.031   5.357   3.709  2.1413 -0.6341 -0.1062
   90MOL   H34032558   5.060   5.290   3.541 -0.3009 -2.6231 -0.3119
   90MOL   H34132559   4.821   5.482   3.624  1.0435 -0.4650 -0.2975
   90MOL   H34232560   4.877   5.449   3.465  1.1569  0.8167  0.8445
   90MOL   H34332561   4.708   5.412   3.519 -0.4802 -1.7834 -0.4285
   90MOL   C34432562   4.711   4.923   3.514  0.0157 -0.3349  0.3949
   90MOL   C34532563   4.683   4.894   3.366 -0.0996 -0.5948  0.1534
   90MOL   C34632564   4.703   4.740   3.335 -0.1186 -0.6625 -0.8460
   90MOL   C34732565   4.687   4.694   3.183 -0.1643 -0.4973  0.7469
   90MOL   C34832566   4.785   4.749   3.082  0.6797  0.6122 -0.4844
   90MOL   C34932567   4.550   4.719   3.145  0.3255 -0.2534  1.2714
   90MOL   H35032568   4.636   4.871   3.573 -1.6930  2.1736  0.5227
   90MOL   H35132569   4.811   4.890   3.539 -1.4353 -1.7952  4.7165
   90MOL   H35232570   4.750   4.950   3.300 -0.7638  0.8532  0.6875
   90MOL   H35332571   4.804   4.709   3.363 -0.9567 -1.7376  1.0511
   90MOL   H35432572   4.638   4.696   3.411 -0.0089 -1.1261 -1.0196
   90MOL   H35532573   4.701   4.586   3.185  0.9458 -0.3466  1.4707
   90MOL   H35632574   4.882   4.704   3.107 -0.0497 -0.8342 -0.2072
   90MOL   H35732575   4.752   4.720   2.982 -2.2777  0.1556  0.5816
   90MOL   H35832576   4.791   4.857   3.096 -1.3241  0.5209  1.3095
   90MOL   H35932577   4.477   4.669   3.208 -1.4078 -0.9901 -1.2114
   90MOL   H36032578   4.524   4.681   3.046  0.7455 -0.8582  1.3947
   90MOL   H36132579   4.519   4.824   3.136 -0.6748 -0.4952  1.8088
   90MOL   H36232580   4.580   4.922   3.344  0.1508  2.1399  2.1093
   91MOL     C132581   6.275   5.891   6.952  0.4393  0.6917  0.6289
   91MOL     C232582   6.184   5.777   7.000  0.0346 -0.1551  0.5960
   91MOL     C332583   6.026   5.811   6.992 -0.6415  0.2211  0.2237
   91MOL     C432584   5.923   5.700   7.012  0.5982 -0.3223  0.0205
   91MOL     C532585   5.959   5.581   6.924 -0.4834  0.2583 -0.2762
   91MOL     C632586   5.780   5.744   7.006  0.2283 -0.7832 -0.4162
   91MOL     H732587   6.380   5.865   6.938  1.0738  2.5146  1.8833
   91MOL     H832588   6.242   5.928   6.855  2.4984 -0.4229 -0.5266
   91MOL     H932589   6.201   5.685   6.944  0.5582  1.3117 -1.6727
   91MOL    H1032590   6.006   5.879   7.074 -1.3166 -0.7303  0.8610
   91MOL    H1132591   5.997   5.854   6.895 -0.5876 -1.5399 -0.5925
   91MOL    H1232592   5.928   5.674   7.118 -1.0209 -0.0016  0.1939
   91MOL    H1332593   5.877   5.511   6.936 -1.3173  1.3951  0.6823
   91MOL    H1432594   5.958   5.615   6.820 -3.7331  0.2325 -0.2939
   91MOL    H1532595   6.051   5.527   6.950  0.9669  1.8938 -1.8809
   91MOL    H1632596   5.747   5.812   7.084  0.1648 -0.7087 -0.5078
   91MOL    H1732597   5.708   5.661   7.006  0.7805 -1.2700  0.4375
   91MOL    H1832598   5.770   5.804   6.915 -0.5945  0.3057  0.3968
   91MOL    H1932599   6.285   5.973   7.023  0.7834  0.3238  1.0072
   91MOL    C2032600   6.222   5.743   7.146 -0.3994  0.1681  1.1235
   91MOL    C2132601   6.223   5.596   7.183 -0.0699  0.0980 -0.4671
   91MOL    C2232602   6.346   5.529   7.123  0.4080  0.1002  0.1131
   91MOL    C2332603   6.370   5.386   7.159  0.5937  0.7068 -0.2597
   91MOL    C2432604   6.263   5.285   7.126 -0.1962 -0.1021 -0.1125
   91MOL    C2532605   6.499   5.338   7.086 -0.0609 -1.1099  0.2901
   91MOL    H2632606   6.319   5.786   7.172 -0.5697  2.6299 -2.0148
   91MOL    H2732607   6.145   5.797   7.201 -0.6818  1.7269 -0.7604
   91MOL    H2832608   6.133   5.542   7.154 -0.5309  0.5682  0.0602
   91MOL    H2932609   6.430   5.592   7.153 -0.3632  0.5146  1.4383
   91MOL    H3032610   6.347   5.535   7.014 -0.5106 -1.3469  0.0061
   91MOL    H3132611   6.379   5.368   7.266  1.1750  2.6907  0.0445
   91MOL    H3232612   6.285   5.189   7.173  1.0071 -0.4728 -1.3912
   91MOL    H3332613   6.255   5.272   7.018 -1.1526 -0.3547 -0.0149
   91MOL    H3432614   6.167   5.298   7.176 -1.0126 -3.5936 -0.6284
   91MOL    H3532615   6.508   5.381   6.986  0.5619  1.0292  1.2213
   91MOL    H3632616   6.587   5.377   7.138  0.8640 -1.4074 -1.0305
   91MOL    H3732617   6.510   5.230   7.092 -0.5110 -1.0613  2.6355
   91MOL    C3832618   6.223   5.586   7.334  0.5281 -0.3686 -0.0273
   91MOL    C3932619   6.115   5.664   7.419 -0.2245 -0.3219  0.0147
   91MOL    C4032620   6.156   5.804   7.478 -0.1043  0.2444  0.6370
   91MOL    C4132621   6.037   5.901   7.533 -0.5830 -0.3278  0.4243
   91MOL    C4232622   5.940   5.940   7.430  0.1872  0.1012 -0.0188
   91MOL    C4332623   6.098   6.022   7.602 -0.0253  0.1558 -0.1771
   91MOL    H4432624   6.321   5.617   7.368  1.1425 -0.0202 -2.0187
   91MOL    H4532625   6.213   5.480   7.357 -0.7690 -0.3312 -0.3848
   91MOL    H4632626   6.032   5.678   7.350  2.0109  1.0740 -2.5188
   91MOL    H4732627   6.214   5.854   7.400 -0.1663  0.0238  0.4477
   91MOL    H4832628   6.223   5.784   7.562 -0.7206  0.7043  1.2419
   91MOL    H4932629   5.981   5.849   7.612 -0.0506  0.9027  1.6301
   91MOL    H5032630   5.978   6.014   7.359  0.2794 -0.1128 -0.1923
   91MOL    H5132631   5.900   5.869   7.358  0.0644  0.8487 -0.7039
   91MOL    H5232632   5.857   6.002   7.465 -0.9541  0.2139 -2.7630
   91MOL    H5332633   6.171   6.081   7.546 -1.0571  1.1754 -0.4634
   91MOL    H5432634   6.145   5.980   7.691  0.3682  0.7140 -0.1121
   91MOL    H5532635   6.030   6.090   7.653 -0.5552  1.4617 -2.5680
   91MOL    C5632636   6.058   5.575   7.530 -0.3934  0.3729  0.3882
   91MOL    C5732637   5.955   5.468   7.481 -0.1708 -0.1019  0.3667
   91MOL    C5832638   5.819   5.529   7.432  0.3420 -0.0954  0.4348
   91MOL    C5932639   5.728   5.442   7.342  0.3841 -0.1071  0.0358
   91MOL    C6032640   5.797   5.381   7.213 -0.4471  0.0289 -0.2667
   91MOL    C6132641   5.615   5.522   7.293  0.6047  0.7444 -0.6686
   91MOL    H6232642   5.997   5.630   7.602 -0.3188 -1.1160  1.6092
   91MOL    H6332643   6.134   5.537   7.598 -0.9685  3.3031  2.7850
   91MOL    H6432644   5.996   5.425   7.389 -0.2715  3.4427 -1.3972
   91MOL    H6532645   5.765   5.551   7.524  0.4230  0.1521  0.4230
   91MOL    H6632646   5.846   5.616   7.373  0.7942 -1.6350 -1.7121
   91MOL    H6732647   5.691   5.363   7.408  1.4622  1.2371  2.2990
   91MOL    H6832648   5.865   5.450   7.163  2.4769  0.6165  4.2343
   91MOL    H6932649   5.726   5.333   7.146  1.4662 -1.5497 -1.2222
   91MOL    H7032650   5.879   5.313   7.235 -0.9133 -0.9354 -1.4489
   91MOL    H7132651   5.540   5.466   7.236  1.3962 -1.1092  0.0689
   91MOL    H7232652   5.649   5.591   7.216  0.3910  1.3947 -0.1745
   91MOL    H7332653   5.573   5.588   7.369 -2.4963 -1.8911  0.0216
   91MOL    C7432654   5.923   5.355   7.590 -0.5304 -0.6639 -0.0183
   91MOL    C7532655   6.042   5.259   7.621  0.7053 -0.4763  0.1661
   91MOL    C7632656   6.051   5.153   7.502  0.3426 -0.5512 -0.1574
   91MOL    C7732657   6.156   5.039   7.519  0.8817 -0.6916 -0.0434
   91MOL    C7832658   6.301   5.091   7.546  0.3205  0.9861 -0.1000
   91MOL    C7932659   6.161   4.943   7.401  0.1997  0.5840  0.3206
   91MOL    H8032660   5.836   5.296   7.561 -0.6366  0.6099 -2.4131
   91MOL    H8132661   5.899   5.403   7.685 -2.0188 -1.2854 -0.0565
   91MOL    H8232662   6.137   5.312   7.615  0.5184 -0.0522  0.8464
   91MOL    H8332663   5.950   5.118   7.482 -0.3676  1.6626 -0.6130
   91MOL    H8432664   6.080   5.209   7.413  3.1937  3.5256  3.0740
   91MOL    H8532665   6.125   4.971   7.599 -0.2833  0.0466  0.1559
   91MOL    H8632666   6.314   5.131   7.647  0.3936  0.3842  0.1295
   91MOL    H8732667   6.331   5.159   7.466 -0.1705  0.5202 -0.6855
   91MOL    H8832668   6.368   5.005   7.541  1.6383  2.1234 -2.9712
   91MOL    H8932669   6.185   5.002   7.313  2.1759 -0.5753  0.0657
   91MOL    H9032670   6.237   4.866   7.395 -1.2658 -0.8019 -0.7347
   91MOL    H9132671   6.068   4.888   7.388  0.7604 -0.0370 -1.1873
   91MOL    C9232672   6.035   5.177   0.010 -0.0984  0.0353  0.7751
   91MOL    C9332673   6.010   5.261   0.140 -0.3686 -0.4307 -0.1498
   91MOL    C9432674   5.997   5.155   0.248  0.2395 -0.1687 -0.1024
   91MOL    C9532675   5.866   5.076   0.257  0.1154 -0.3709 -0.2187
   91MOL    C9632676   5.885   4.947   0.341 -0.1216  0.2717 -0.0903
   91MOL    C9732677   5.752   5.166   0.313  0.0991  0.3699 -0.1323
   91MOL    H9832678   5.956   5.102   0.000 -1.7560  1.6558  1.3021
   91MOL    H9932679   6.124   5.116   0.007  0.7102  1.2671 -1.2764
   91MOL   H10032680   5.915   5.314   0.137 -0.1875 -0.1321 -0.7362
   91MOL   H10132681   6.020   5.207   0.341  1.1063  1.8701 -1.4206
   91MOL   H10232682   6.072   5.079   0.225 -1.1891 -1.7180  0.2946
   91MOL   H10332683   5.829   5.043   0.161 -1.1626  3.4932 -1.1239
   91MOL   H10432684   5.911   4.970   0.444 -0.8466  2.6595 -0.4057
   91MOL   H10532685   5.953   4.876   0.296 -1.0196 -2.1719  2.2707
   91MOL   H10632686   5.785   4.904   0.346 -1.2603  2.8492  0.1851
   91MOL   H10732687   5.672   5.102   0.349  0.7462  0.2473  1.0888
   91MOL   H10832688   5.702   5.225   0.235 -1.2168  0.5573  0.8372
   91MOL   H10932689   5.796   5.221   0.396  1.6396 -1.5732  0.3790
   91MOL   C11032690   6.128   5.364   0.159  0.0916 -0.3801 -0.1448
   91MOL   C11132691   6.106   5.488   0.255 -0.1909 -0.6583  0.8681
   91MOL   C11232692   6.239   5.542   0.316  0.4119 -0.0748 -0.5175
   91MOL   C11332693   6.344   5.606   0.222 -0.0021  0.8234  1.0635
   91MOL   C11432694   6.458   5.510   0.194  0.9805  0.4806  0.3887
   91MOL   C11532695   6.393   5.747   0.265  0.1561  0.4836 -0.0053
   91MOL   H11632696   6.155   5.407   0.063  0.5734  1.0576  0.6246
   91MOL   H11732697   6.217   5.306   0.184  0.5364  0.7616  0.9613
   91MOL   H11832698   6.044   5.447   0.335 -0.9886 -0.4549  0.3619
   91MOL   H11932699   6.288   5.458   0.366 -0.0046 -1.4078 -2.2917
   91MOL   H12032700   6.222   5.611   0.398 -1.4523  0.0508 -0.9911
   91MOL   H12132701   6.294   5.615   0.125  1.5480  1.5328  0.3001
   91MOL   H12232702   6.524   5.482   0.276  2.8108  2.7283 -0.2904
   91MOL   H12332703   6.511   5.554   0.110 -0.2739 -2.0570 -1.8135
   91MOL   H12432704   6.422   5.414   0.156  0.0079  1.3497 -0.9249
   91MOL   H12532705   6.494   5.766   0.229 -0.3057 -1.7356 -2.6518
   91MOL   H12632706   6.415   5.756   0.371 -3.4624 -0.7223  0.9281
   91MOL   H12732707   6.324   5.826   0.235  0.0468  0.2631 -0.3341
   91MOL   C12832708   6.022   5.601   0.193 -0.5133  0.4153 -0.0208
   91MOL   C12932709   5.966   5.700   0.301  0.1279 -0.1372  0.0319
   91MOL   C13032710   5.809   5.696   0.295  0.3317  0.5595 -0.3344
   91MOL   C13132711   5.733   5.560   0.327  0.4904 -0.2403 -0.2785
   91MOL   C13232712   5.698   5.543   0.479 -0.3255  0.1836  0.6087
   91MOL   C13332713   5.600   5.543   0.247 -0.3025 -0.2070  0.3100
   91MOL   H13432714   5.947   5.539   0.143  0.7319 -1.9961  1.0095
   91MOL   H13532715   6.079   5.650   0.115 -1.1717 -1.1992 -1.5474
   91MOL   H13632716   5.989   5.661   0.399 -0.5203 -1.1664 -0.2203
   91MOL   H13732717   5.764   5.780   0.348 -3.1457 -1.7284  0.5164
   91MOL   H13832718   5.792   5.713   0.188 -0.1629  0.1860 -0.3184
   91MOL   H13932719   5.805   5.485   0.295  0.9933  0.9697 -2.0229
   91MOL   H14032720   5.636   5.457   0.504  0.3909  0.5800  3.9438
   91MOL   H14132721   5.655   5.632   0.524 -2.0929 -0.6294  0.5692
   91MOL   H14232722   5.793   5.517   0.525  0.6977  1.1029 -0.9591
   91MOL   H14332723   5.565   5.440   0.241 -1.3262  0.2272 -1.4117
   91MOL   H14432724   5.515   5.597   0.288 -0.3095 -0.4907  0.6684
   91MOL   H14532725   5.598   5.570   0.142  0.4677  2.0185  0.8482
   91MOL   C14632726   6.018   5.848   0.282 -0.1292 -0.0242 -0.3089
   91MOL   C14732727   5.970   5.964   0.373  0.7929  1.0865 -0.0269
   91MOL   C14832728   6.017   6.104   0.329  0.3637  0.3928  0.5247
   91MOL   C14932729   5.941   6.154   0.208 -0.0257  0.2436 -0.3909
   91MOL   C15032730   5.786   6.145   0.211 -0.5907  0.3953  0.1565
   91MOL   C15132731   5.973   6.298   0.169  0.0154 -0.3663  0.0234
   91MOL   H15232732   6.004   5.867   0.176  0.0731  0.2316 -0.2905
   91MOL   H15332733   6.126   5.851   0.295  0.2102  1.2152 -3.0052
   91MOL   H15432734   5.862   5.959   0.388  0.7439 -0.1777 -0.7013
   91MOL   H15532735   6.007   6.165   0.418  0.5771 -0.0883  0.8811
   91MOL   H15632736   6.124   6.094   0.312 -0.0226 -2.0986 -0.8124
   91MOL   H15732737   5.974   6.094   0.123 -2.2838 -0.0612 -1.1051
   91MOL   H15832738   5.743   6.217   0.142 -2.3439 -0.2454  0.5688
   91MOL   H15932739   5.738   6.175   0.303 -0.6087  1.6185 -0.2378
   91MOL   H16032740   5.756   6.043   0.185 -1.3959  0.8092 -0.5424
   91MOL   H16132741   6.077   6.321   0.143 -0.3273  2.4238  0.9215
   91MOL   H16232742   5.951   6.349   0.264 -1.3170 -2.5567  0.9233
   91MOL   H16332743   5.915   6.335   0.085  2.0842  0.4908 -1.0511
   91MOL   C16432744   6.019   5.939   0.522 -0.1564 -0.0423 -0.3544
   91MOL   C16532745   5.913   5.996   0.622 -0.0159 -0.0265  0.3431
   91MOL   C16632746   5.817   5.880   0.670 -0.0205 -0.7115 -0.2824
   91MOL   C16732747   5.681   5.928   0.735  0.2868  0.7431 -0.3686
   91MOL   C16832748   5.591   6.000   0.628  0.0655 -0.3008 -0.0555
   91MOL   C16932749   5.602   5.818   0.811  0.3407 -0.1642  1.0683
   91MOL   H17032750   6.039   5.833   0.537  0.3669 -0.0794 -1.2325
   91MOL   H17132751   6.119   5.980   0.539  0.6900 -2.9444  2.2219
   91MOL   H17232752   5.855   6.074   0.574 -0.0341 -0.6893 -0.7410
   91MOL   H17332753   5.780   5.833   0.579  0.6800 -0.9628 -0.4408
   91MOL   H17432754   5.873   5.802   0.722 -0.2387  0.3238  1.5427
   91MOL   H17532755   5.717   6.000   0.809  0.8088 -0.6662  0.7707
   91MOL   H17632756   5.647   6.073   0.571 -2.8001  2.4827  0.5295
   91MOL   H17732757   5.506   6.056   0.669 -0.8469 -0.8997 -1.0811
   91MOL   H17832758   5.553   5.932   0.551  0.5364 -0.8571  0.2005
   91MOL   H17932759   5.572   5.743   0.738 -0.9883 -0.4991  1.9392
   91MOL   H18032760   5.505   5.859   0.838  0.7065  1.9273 -0.5756
   91MOL   H18132761   5.650   5.768   0.895 -1.3276 -2.3325  0.7524
   91MOL   C18232762   5.973   6.057   0.746 -0.3659  0.3931  0.2759
   91MOL   C18332763   5.999   6.203   0.740 -0.0308  0.2168  0.1340
   91MOL   C18432764   5.863   6.280   0.739 -0.6674 -0.0797  0.5329
   91MOL   C18532765   5.861   6.422   0.676  0.2052  0.3639  0.2720
   91MOL   C18632766   5.858   6.426   0.520 -0.0355 -0.3492  0.2033
   91MOL   C18732767   5.738   6.502   0.721  0.2095 -0.0834 -0.0980
   91MOL   H18832768   6.067   6.005   0.766 -1.0615 -1.5108 -1.2843
   91MOL   H18932769   5.917   6.037   0.837 -0.3012 -1.6582 -0.1160
   91MOL   H19032770   6.040   6.233   0.643  0.7565 -0.4586  0.2564
   91MOL   H19132771   5.839   6.285   0.845 -2.4650  0.3457  0.1145
   91MOL   H19232772   5.785   6.221   0.692 -0.2421  0.6439 -1.1089
   91MOL   H19332773   5.949   6.474   0.715 -2.4952  4.9057  0.7159
   91MOL   H19432774   5.951   6.383   0.485  0.0600 -0.7365  0.9167
   91MOL   H19532775   5.842   6.528   0.486 -0.6739 -0.7745 -0.7856
   91MOL   H19632776   5.770   6.367   0.494 -0.8966  1.6922 -1.5910
   91MOL   H19732777   5.747   6.606   0.689 -0.9256  0.8096  2.2974
   91MOL   H19832778   5.712   6.502   0.827 -0.0683  0.0534 -0.1657
   91MOL   H19932779   5.657   6.459   0.663 -1.6904  3.2373 -0.0240
   91MOL   C20032780   6.079   6.254   0.861 -0.1823  0.1084 -0.2944
   91MOL   C20132781   6.225   6.205   0.877  0.4003 -0.5914  0.0622
   91MOL   C20232782   6.262   6.201   1.024  0.5427 -0.5847  0.4127
   91MOL   C20332783   6.224   6.070   1.100 -0.4533 -0.3756 -0.0710
   91MOL   C20432784   6.311   5.953   1.052  0.3021  0.0474  0.4494
   91MOL   C20532785   6.255   6.098   1.249  0.5777  0.2825  0.2053
   91MOL   H20632786   6.023   6.204   0.941  1.6336 -1.3503  0.1006
   91MOL   H20732787   6.071   6.362   0.866 -3.1620  0.0176 -2.0329
   91MOL   H20832788   6.230   6.104   0.835 -1.2067 -0.4759 -0.4409
   91MOL   H20932789   6.369   6.221   1.029 -0.1438  3.3958  0.4740
   91MOL   H21032790   6.208   6.285   1.067  1.9910  1.2841 -1.3511
   91MOL   H21132791   6.117   6.051   1.092 -0.6003  0.6930 -0.7657
   91MOL   H21232792   6.278   5.863   1.105  0.0273 -0.2275 -0.1823
   91MOL   H21332793   6.418   5.967   1.071  0.7773 -1.8392 -0.6860
   91MOL   H21432794   6.311   5.947   0.943  0.8433  2.3449  0.2954
   91MOL   H21532795   6.211   6.021   1.313  0.7761 -0.4093 -0.4789
   91MOL   H21632796   6.219   6.193   1.288 -0.7354  0.1268 -0.5975
   91MOL   H21732797   6.360   6.099   1.279 -0.0791  1.0239  2.6084
   91MOL   C21832798   6.331   6.271   0.783 -0.8197 -0.0939  0.1926
   91MOL   C21932799   6.319   6.423   0.759  0.5400 -0.4988 -0.0094
   91MOL   C22032800   6.407   6.448   0.637 -0.4388 -0.0026 -0.7168
   91MOL   C22132801   6.333   6.430   0.505  0.2512  0.2258 -0.0332
   91MOL   C22232802   6.225   6.533   0.480  0.3070  0.1982  0.5126
   91MOL   C22332803   6.437   6.423   0.389  0.5270  0.2683 -0.7569
   91MOL   H22432804   6.431   6.250   0.821 -0.7658 -0.6873 -0.2785
   91MOL   H22532805   6.318   6.230   0.683  2.3882  2.0545 -1.1747
   91MOL   H22632806   6.214   6.441   0.736  0.5915 -0.4681 -0.2190
   91MOL   H22732807   6.447   6.550   0.639  1.0795 -0.5628 -1.6487
   91MOL   H22832808   6.497   6.387   0.647 -1.4884 -1.4437  0.0264
   91MOL   H22932809   6.279   6.336   0.494 -0.8080  0.5721  1.9875
   91MOL   H23032810   6.258   6.637   0.480 -0.6298  0.5425 -2.5357
   91MOL   H23132811   6.190   6.523   0.377 -0.3187  1.7902  0.5660
   91MOL   H23232812   6.137   6.519   0.542 -0.1303 -0.4084 -0.2290
   91MOL   H23332813   6.486   6.517   0.364  2.3222 -0.6201 -0.6783
   91MOL   H23432814   6.521   6.355   0.403  0.6065  0.6750  0.7482
   91MOL   H23532815   6.385   6.396   0.297 -2.8551  0.7784  0.9533
   91MOL   C23632816   6.361   6.504   0.884 -0.2672 -0.2989 -0.1752
   91MOL   C23732817   6.309   6.643   0.879 -0.3876  0.6466  0.6748
   91MOL   C23832818   6.393   6.739   0.971  0.3994  0.4231 -0.0534
   91MOL   C23932819   6.527   6.782   0.914 -0.4985  0.3102  0.4212
   91MOL   C24032820   6.513   6.878   0.796 -0.1959 -0.1973  1.0819
   91MOL   C24132821   6.603   6.855   1.026  0.4242 -0.2428  0.6570
   91MOL   H24232822   6.470   6.497   0.890 -0.1163  1.3798 -0.6747
   91MOL   H24332823   6.306   6.447   0.958 -1.5126 -0.7591 -1.4280
   91MOL   H24432824   6.321   6.679   0.777 -1.1586 -1.0954 -0.0380
   91MOL   H24532825   6.407   6.693   1.069  1.4422  1.6890  0.3972
   91MOL   H24632826   6.334   6.828   0.994  1.2821  0.3701  2.5586
   91MOL   H24732827   6.585   6.693   0.887  0.9745  1.5712 -0.7086
   91MOL   H24832828   6.600   6.929   0.755 -0.1480 -0.8971  0.2944
   91MOL   H24932829   6.455   6.969   0.812 -1.9439 -1.0598 -0.2218
   91MOL   H25032830   6.462   6.823   0.717 -0.2099  0.6090  0.5202
   91MOL   H25132831   6.709   6.875   1.008  0.4990 -0.6172  0.6866
   91MOL   H25232832   6.598   6.806   1.123  0.9242 -3.5024 -0.8878
   91MOL   H25332833   6.560   6.954   1.040  0.4709  0.2747 -2.3472
   91MOL   C25432834   6.159   6.646   0.922 -0.3859  0.4438  0.3199
   91MOL   C25532835   6.070   6.763   0.868  0.0721 -0.4070 -0.0912
   91MOL   C25632836   6.051   6.769   0.716 -0.1054 -0.0360 -0.3495
   91MOL   C25732837   6.000   6.904   0.661 -0.8891  0.6445 -0.3047
   91MOL   C25832838   5.958   6.891   0.513  0.2132 -0.0980 -1.1034
   91MOL   C25932839   6.103   7.020   0.668  0.3409  0.3978  0.5482
   91MOL   H26032840   6.113   6.550   0.901  2.5045 -1.2520  1.4511
   91MOL   H26132841   6.167   6.654   1.030  2.1572 -0.0068  0.1963
   91MOL   H26232842   6.113   6.859   0.896  0.2832  0.0047 -1.7709
   91MOL   H26332843   5.992   6.684   0.681 -0.6753  0.9500 -1.7823
   91MOL   H26432844   6.149   6.758   0.668  0.4464 -1.1134  0.9698
   91MOL   H26532845   5.912   6.930   0.721 -1.1323  0.4295 -0.5689
   91MOL   H26632846   6.046   6.859   0.459  0.5273 -0.7144 -0.2368
   91MOL   H26732847   5.908   6.976   0.467 -0.4936 -1.6533 -3.2943
   91MOL   H26832848   5.885   6.811   0.501  1.3978 -1.8739  2.7061
   91MOL   H26932849   6.163   7.023   0.577 -1.4018  2.6989 -0.5646
   91MOL   H27032850   6.037   7.106   0.671 -2.0087 -1.3131 -0.2884
   91MOL   H27132851   6.163   7.018   0.759  2.1776 -0.7319 -0.6502
   91MOL   C27232852   5.933   6.768   0.949  0.6587 -0.3622 -0.1960
   91MOL   C27332853   5.938   6.839   1.083  0.1407  0.0993 -0.5760
   91MOL   C27432854   5.937   6.989   1.061  0.4021  0.3129 -0.5079
   91MOL   C27532855   6.007   7.063   1.173  0.6506 -0.2035 -0.5148
   91MOL   C27632856   5.969   7.212   1.183 -0.3401 -0.6938  0.2461
   91MOL   C27732857   6.162   7.042   1.166  0.0597 -0.2312 -0.4958
   91MOL   H27832858   5.855   6.817   0.892 -0.0423  1.5334  2.3008
   91MOL   H27932859   5.887   6.669   0.948  0.9933 -0.5164 -0.6541
   91MOL   H28032860   6.033   6.814   1.130  0.3852 -0.0478 -1.1480
   91MOL   H28132861   5.836   7.025   1.039  0.1815 -1.1631 -1.9719
   91MOL   H28232862   5.997   7.012   0.973 -1.4874 -0.8392 -2.1425
   91MOL   H28332863   5.975   7.021   1.269 -0.3581 -0.3667 -0.9169
   91MOL   H28432864   5.869   7.216   1.227 -0.8588  0.3713 -0.9702
   91MOL   H28532865   6.038   7.259   1.253 -0.1585 -0.3083 -0.1807
   91MOL   H28632866   5.969   7.262   1.085 -0.3810 -1.8708 -0.3574
   91MOL   H28732867   6.208   7.071   1.071  1.9951  2.6767  1.2604
   91MOL   H28832868   6.216   7.110   1.231  0.9728 -1.3365 -0.0905
   91MOL   H28932869   6.195   6.943   1.198  0.6139 -0.2347 -1.0731
   91MOL   C29032870   5.815   6.803   1.166 -0.0270  0.2831  0.3803
   91MOL   C29132871   5.840   6.655   1.221  0.2736  0.4259 -0.5319
   91MOL   C29232872   5.933   6.666   1.347  0.4253 -0.6287  0.4964
   91MOL   C29332873   6.009   6.538   1.401  0.4156 -0.3103  0.2370
   91MOL   C29432874   6.090   6.463   1.295 -0.2881  0.2801 -0.0917
   91MOL   C29532875   6.111   6.593   1.504 -0.4642  0.7252 -0.6383
   91MOL   H29632876   5.787   6.872   1.246 -2.5282 -0.3650  0.1095
   91MOL   H29732877   5.720   6.806   1.112  0.5391  1.0681 -0.6003
   91MOL   H29832878   5.875   6.583   1.147 -2.3071 -1.0324 -0.4049
   91MOL   H29932879   5.872   6.694   1.433  1.0836  0.5921  0.5735
   91MOL   H30032880   6.009   6.740   1.323  1.0460 -1.2641  0.4692
   91MOL   H30132881   5.944   6.470   1.456 -2.0292  1.0318 -0.9141
   91MOL   H30232882   6.029   6.415   1.218 -0.8302 -2.1565  1.8061
   91MOL   H30332883   6.158   6.387   1.333 -1.9482 -2.2452 -1.9456
   91MOL   H30432884   6.162   6.529   1.247  0.7245 -0.4960  0.3475
   91MOL   H30532885   6.054   6.632   1.589 -3.2443 -0.0764 -2.0719
   91MOL   H30632886   6.160   6.686   1.475 -1.4481  1.2750 -0.5738
   91MOL   H30732887   6.179   6.522   1.550  0.7037  1.3070 -1.4606
   91MOL   C30832888   5.710   6.583   1.257  0.2671  0.4315  0.3264
   91MOL   C30932889   5.631   6.516   1.147 -0.3075 -0.0598  0.3967
   91MOL   C31032890   5.674   6.378   1.103 -0.5726  0.0127  0.4420
   91MOL   C31132891   5.708   6.276   1.220 -1.0723  0.2511  0.7142
   91MOL   C31232892   5.591   6.255   1.315  0.2714  0.0357 -0.6701
   91MOL   C31332893   5.753   6.139   1.152  0.1829 -0.0081  0.2878
   91MOL   H31432894   5.721   6.523   1.347 -0.6763 -0.5795 -0.2115
   91MOL   H31532895   5.640   6.657   1.295 -0.6966  0.0720 -0.7078
   91MOL   H31632896   5.654   6.586   1.067 -1.0082 -0.3672 -0.0739
   91MOL   H31732897   5.756   6.392   1.032  1.5101 -2.5367  2.2284
   91MOL   H31832898   5.597   6.353   1.031 -0.1498  1.4376 -0.5256
   91MOL   H31932899   5.797   6.309   1.273  1.9543 -3.6735 -1.6337
   91MOL   H32032900   5.572   6.349   1.365  1.7017  0.6337 -1.2301
   91MOL   H32132901   5.617   6.174   1.384 -0.8780  0.3539  0.1554
   91MOL   H32232902   5.495   6.228   1.270  0.5051 -1.7320 -0.1438
   91MOL   H32332903   5.814   6.169   1.067 -1.4439  1.4069 -0.4219
   91MOL   H32432904   5.798   6.070   1.223 -1.9567 -0.0833  1.6304
   91MOL   H32532905   5.664   6.092   1.110 -1.0324  2.0522  0.4733
   91MOL   C32632906   5.473   6.533   1.160  1.1936 -0.6023 -0.2137
   91MOL   C32732907   5.414   6.657   1.090  1.2557  0.1853  0.1435
   91MOL   C32832908   5.274   6.697   1.148  0.0154 -0.4984  0.6943
   91MOL   C32932909   5.265   6.778   1.278  0.1332  0.0598 -0.0320
   91MOL   C33032910   5.363   6.899   1.288 -0.0541 -0.0183  0.6324
   91MOL   C33132911   5.118   6.807   1.293 -1.0295 -0.4881 -0.2180
   91MOL   H33232912   5.458   6.551   1.267 -1.3586  0.8423 -0.7856
   91MOL   H33332913   5.418   6.439   1.149  0.1438 -0.1678  1.1099
   91MOL   H33432914   5.487   6.734   1.113  1.6166 -0.5061  1.3286
   91MOL   H33532915   5.230   6.759   1.070 -0.1773 -0.7731  0.5819
   91MOL   H33632916   5.208   6.610   1.154  2.4001 -2.5658 -1.7167
   91MOL   H33732917   5.285   6.709   1.361 -3.0515 -2.2599 -1.0863
   91MOL   H33832918   5.358   6.962   1.199 -0.3606 -0.0294  0.6399
   91MOL   H33932919   5.469   6.877   1.304  0.7129  3.7409  1.2195
   91MOL   H34032920   5.342   6.958   1.377 -0.5409 -1.7964  1.7049
   91MOL   H34132921   5.102   6.875   1.376  2.7012 -1.6853  1.6289
   91MOL   H34232922   5.069   6.852   1.207 -1.2396  0.2679  0.2908
   91MOL   H34332923   5.056   6.719   1.310 -2.2787  0.5067  0.4054
   91MOL   C34432924   5.416   6.631   0.940 -0.3839 -1.0098  0.4261
   91MOL   C34532925   5.457   6.754   0.854  0.4111  0.7924  0.3808
   91MOL   C34632926   5.417   6.726   0.708  0.4013  0.7106 -0.3345
   91MOL   C34732927   5.455   6.834   0.608  0.1365  0.2984 -0.4067
   91MOL   C34832928   5.362   6.828   0.489 -0.2609  0.2929 -0.0871
   91MOL   C34932929   5.605   6.835   0.567  0.4389  0.0801  0.4299
   91MOL   H35032930   5.321   6.588   0.907 -0.5230  0.4306 -1.0702
   91MOL   H35132931   5.490   6.552   0.927  3.5238  2.4244  0.7921
   91MOL   H35232932   5.562   6.776   0.870  0.6026 -0.3138  0.6462
   91MOL   H35332933   5.470   6.633   0.686  2.3660  1.5723  0.6862
   91MOL   H35432934   5.313   6.694   0.701  0.3413  0.4240  1.4802
   91MOL   H35532935   5.445   6.928   0.664 -2.4117 -0.6333  0.7530
   91MOL   H35632936   5.255   6.824   0.511 -0.5706 -1.3513 -1.7348
   91MOL   H35732937   5.366   6.922   0.435  0.2328  1.5317  2.0402
   91MOL   H35832938   5.398   6.748   0.424  1.6399  1.4775 -0.5202
   91MOL   H35932939   5.638   6.926   0.517 -0.0351  0.4399  0.7639
   91MOL   H36032940   5.636   6.760   0.494 -0.3969 -0.8615  1.0275
   91MOL   H36132941   5.668   6.838   0.656  0.6613 -1.9496  0.3657
   91MOL   H36232942   5.392   6.836   0.886 -0.2237 -0.3104  1.9454
   92MOL     C132943   4.070   2.750   7.623 -0.6426  0.7445 -0.6336
   92MOL     C232944   4.187   2.706   7.720  0.6133 -0.1076  0.7334
   92MOL     C332945   4.185   2.796   0.094 -0.3692 -0.2187  0.2639
   92MOL     C432946   4.285   2.781   0.207  0.2691  0.8137  0.0222
   92MOL     C532947   4.233   2.835   0.343 -0.2038 -0.1044 -0.1459
   92MOL     C632948   4.419   2.843   0.177  0.2665  0.0934  0.0315
   92MOL     H732949   4.092   2.845   7.575  2.6944  0.2523 -0.2368
   92MOL     H832950   4.047   2.678   7.544  1.2139 -0.2465 -0.3060
   92MOL     H932951   4.157   2.609   0.005 -2.9162  0.6445  0.0566
   92MOL    H1032952   4.199   2.900   0.064  0.7289 -0.5434 -0.3932
   92MOL    H1132953   4.084   2.790   0.134 -0.6285 -2.0042 -0.6042
   92MOL    H1232954   4.298   2.675   0.227  0.7256  0.6680 -1.0077
   92MOL    H1332955   4.133   2.801   0.369 -0.3472  0.8827  0.6395
   92MOL    H1432956   4.316   2.826   0.414 -1.1399 -0.4390  0.9181
   92MOL    H1532957   4.224   2.944   0.341 -0.1160 -0.0971 -0.1643
   92MOL    H1632958   4.481   2.826   0.265 -0.3518  0.7508  0.6035
   92MOL    H1732959   4.417   2.946   0.142  3.0587 -0.3751 -1.7110
   92MOL    H1832960   4.479   2.797   0.099 -0.7514 -2.0457  0.4898
   92MOL    H1932961   3.987   2.778   7.687 -0.0623  0.5265  0.2353
   92MOL    C2032962   4.326   2.699   7.650  0.0618 -0.0655  0.3625
   92MOL    C2132963   4.330   2.623   7.515 -0.1525  0.0892  0.4004
   92MOL    C2232964   4.463   2.640   7.451  0.3272 -0.1766 -0.0746
   92MOL    C2332965   4.494   2.763   7.357  0.7065 -0.4979 -0.1344
   92MOL    C2432966   4.641   2.793   7.344 -0.5166 -0.3688 -0.4432
   92MOL    C2532967   4.429   2.733   7.222 -0.5587  0.2392  0.8474
   92MOL    H2632968   4.355   2.803   7.634  2.3777 -0.8051 -0.4482
   92MOL    H2732969   4.398   2.653   7.718 -0.5260 -1.2009  0.2214
   92MOL    H2832970   4.251   2.663   7.451 -1.0485 -0.1030  1.3673
   92MOL    H2932971   4.492   2.548   7.401 -1.2229 -1.5964  1.5762
   92MOL    H3032972   4.519   2.643   7.544 -1.8222  0.3535  1.2428
   92MOL    H3132973   4.466   2.861   7.398 -2.5009 -0.4242 -2.2734
   92MOL    H3232974   4.694   2.789   7.439 -0.5530 -3.8195 -0.4993
   92MOL    H3332975   4.666   2.883   7.287 -0.1426 -0.6333 -0.6996
   92MOL    H3432976   4.686   2.709   7.291 -0.2474 -0.3277 -0.2789
   92MOL    H3532977   4.459   2.796   7.138  1.0927  0.0232  1.2475
   92MOL    H3632978   4.462   2.634   7.189  2.9928  0.9237  2.0522
   92MOL    H3732979   4.321   2.731   7.225 -0.6548  0.1106 -1.7535
   92MOL    C3832980   4.307   2.474   7.545  0.5826 -0.2941 -0.4173
   92MOL    C3932981   4.311   2.365   7.434 -0.2180  0.0167  0.2475
   92MOL    C4032982   4.197   2.376   7.338 -0.2846  0.3882 -0.0504
   92MOL    C4132983   4.238   2.396   7.187 -0.7000 -0.1510 -1.3196
   92MOL    C4232984   4.117   2.442   7.104 -0.4521  0.8370 -0.4045
   92MOL    C4332985   4.285   2.260   7.140  0.1984 -0.0138 -0.3632
   92MOL    H4432986   4.213   2.456   7.597  0.2028  1.0187 -0.6204
   92MOL    H4532987   4.387   2.451   7.615  0.1328  1.9020  0.8648
   92MOL    H4632988   4.398   2.370   7.367  0.7240 -0.6109  1.4158
   92MOL    H4732989   4.151   2.471   7.364  0.4110  0.2992  1.5363
   92MOL    H4832990   4.122   2.301   7.360 -1.4404  1.1514 -1.3340
   92MOL    H4932991   4.327   2.458   7.174  0.5117 -0.8960  2.6850
   92MOL    H5032992   4.092   2.544   7.134  1.2453  1.1405  0.0250
   92MOL    H5132993   4.138   2.436   6.997  1.2518  0.2750 -0.0509
   92MOL    H5232994   4.034   2.372   7.113  0.4885 -0.1523  0.7939
   92MOL    H5332995   4.307   2.269   7.034 -1.5926 -1.7938 -0.9220
   92MOL    H5432996   4.223   2.175   7.169  0.5021  0.5654  2.0603
   92MOL    H5532997   4.380   2.235   7.186 -0.0467 -1.4882 -0.6299
   92MOL    C5632998   4.337   2.218   7.498 -0.4483 -0.2429 -1.0271
   92MOL    C5732999   4.482   2.174   7.525  0.2002  0.0091  0.5288
   92MOL    C5833000   4.586   2.162   7.411  0.0136  0.5107  0.1726
   92MOL    C5933001   4.730   2.206   7.455  1.0033 -0.3464 -0.2130
   92MOL    C6033002   4.740   2.353   7.484  0.5463  0.7886 -0.4946
   92MOL    C6133003   4.822   2.150   7.348 -0.3822  0.2219 -0.0308
   92MOL    H6233004   4.284   2.147   7.435  2.1398 -1.3495 -2.0609
   92MOL    H6333005   4.287   2.221   7.595  1.7432  0.6780  0.1355
   92MOL    H6433006   4.504   2.263   7.584 -1.3475 -0.1674  1.4092
   92MOL    H6533007   4.593   2.061   7.369  4.7885  1.8025 -2.5319
   92MOL    H6633008   4.552   2.227   7.330  1.7992 -0.2915 -1.2489
   92MOL    H6733009   4.758   2.158   7.549 -1.3377  1.0352  1.2170
   92MOL    H6833010   4.843   2.384   7.502 -0.1210  3.1895 -0.6159
   92MOL    H6933011   4.682   2.381   7.572 -3.0605 -2.3812 -1.7084
   92MOL    H7033012   4.731   2.412   7.393 -0.5155  0.7673 -0.4088
   92MOL    H7133013   4.826   2.041   7.348 -1.3131  0.1772 -1.0115
   92MOL    H7233014   4.922   2.191   7.362 -0.2104 -0.1501 -0.1801
   92MOL    H7333015   4.790   2.180   7.248  1.0842 -0.5999 -0.7683
   92MOL    C7433016   4.479   2.054   7.623 -0.2351 -0.2062 -0.3309
   92MOL    C7533017   4.382   1.936   7.601  0.1100 -0.5200  0.3031
   92MOL    C7633018   4.410   1.823   7.704  0.2217 -0.4294 -0.6887
   92MOL    C7733019   4.386   1.848   0.105 -0.4229  0.2457 -0.5134
   92MOL    C7833020   4.397   1.713   0.183 -0.3933 -0.1451  0.1323
   92MOL    C7933021   4.245   1.906   0.127 -0.1568  0.7868 -0.0578
   92MOL    H8033022   4.467   2.086   7.727  3.2428  0.5570 -0.0925
   92MOL    H8133023   4.577   2.006   7.613 -0.2484 -0.9250  2.5028
   92MOL    H8233024   4.280   1.972   7.613 -0.4079 -1.7582 -0.2577
   92MOL    H8333025   4.349   1.737   7.678  1.0529 -0.7648 -1.5530
   92MOL    H8433026   4.515   1.800   7.690  1.0938  2.5712  0.4756
   92MOL    H8533027   4.464   1.912   0.145 -0.9225 -0.3961  1.5467
   92MOL    H8633028   4.492   1.673   0.148  0.0125  1.6966 -0.9189
   92MOL    H8733029   4.323   1.637   0.156  0.6970 -1.2553  0.2239
   92MOL    H8833030   4.390   1.727   0.290 -1.2624 -1.4162  0.2506
   92MOL    H8933031   4.222   1.999   0.077 -0.9105  0.2632 -0.6983
   92MOL    H9033032   4.171   1.837   0.085  2.3325 -0.1355 -3.1087
   92MOL    H9133033   4.236   1.921   0.235 -0.3179  1.4234 -0.1604
   92MOL    C9233034   4.394   1.873   7.457  0.4836  0.6722  0.5007
   92MOL    C9333035   4.310   1.747   7.401 -0.5184  0.4007  0.7266
   92MOL    C9433036   4.176   1.801   7.352 -0.3660 -1.1304  0.4240
   92MOL    C9533037   4.081   1.709   7.271 -0.1440 -0.4791 -0.0509
   92MOL    C9633038   4.028   1.593   7.353  0.2195  0.1612  0.3838
   92MOL    C9733039   3.971   1.776   7.200 -0.1805 -0.6093  0.0480
   92MOL    H9833040   4.369   1.949   7.383 -0.3432 -0.0223  0.0589
   92MOL    H9933041   4.501   1.852   7.448  0.1641 -0.5974 -0.5317
   92MOL   H10033042   4.283   1.666   7.469  1.5997 -0.3082  0.7684
   92MOL   H10133043   4.195   1.890   7.293 -0.3503 -1.0219  0.5931
   92MOL   H10233044   4.118   1.837   7.437  1.1759  0.4157  0.8451
   92MOL   H10333045   4.139   1.669   7.188 -2.7222 -0.6382 -1.8569
   92MOL   H10433046   3.975   1.533   7.279 -0.9449 -0.6531  1.8572
   92MOL   H10533047   3.962   1.628   7.432 -0.4624  2.6108 -1.2229
   92MOL   H10633048   4.115   1.543   7.397 -0.3961 -0.8076  0.5079
   92MOL   H10733049   3.891   1.826   7.255 -0.5330 -1.6331  0.4829
   92MOL   H10833050   3.921   1.700   7.139 -1.4971  0.9773 -0.8786
   92MOL   H10933051   4.011   1.849   7.130  1.3515 -0.1386  1.3856
   92MOL   C11033052   4.389   1.667   7.294 -0.8334  0.5373  0.3950
   92MOL   C11133053   4.505   1.581   7.352 -0.5899  0.5867 -0.5311
   92MOL   C11233054   4.486   1.421   7.368  0.2565 -0.0151 -0.0573
   92MOL   C11333055   4.381   1.374   7.475 -0.3375  0.3925 -0.9153
   92MOL   C11433056   4.420   1.397   7.622  0.1893  0.1466 -0.3918
   92MOL   C11533057   4.337   1.227   7.446  0.1270  0.2516  0.5541
   92MOL   H11633058   4.416   1.740   7.219 -0.2561  0.0258  0.0975
   92MOL   H11733059   4.328   1.607   7.226  0.1951 -1.7664  1.4291
   92MOL   H11833060   4.525   1.617   7.453  1.8186  0.5211 -0.9517
   92MOL   H11933061   4.579   1.365   7.381  0.0743 -0.2753  0.1198
   92MOL   H12033062   4.447   1.388   7.272  0.9485 -1.2795  0.0930
   92MOL   H12133063   4.300   1.446   7.462  1.2094  2.4516  0.4586
   92MOL   H12233064   4.501   1.334   7.660 -0.2535 -0.3916 -0.3253
   92MOL   H12333065   4.333   1.374   7.684  0.4371 -2.6569 -1.0132
   92MOL   H12433066   4.444   1.503   7.630 -0.3670  0.2444  0.0405
   92MOL   H12533067   4.237   1.210   7.485  0.1794 -1.1540  0.1136
   92MOL   H12633068   4.403   1.153   7.493 -2.0954 -0.7529  2.1599
   92MOL   H12733069   4.321   1.216   7.339 -1.2353 -0.0216  0.7761
   92MOL   C12833070   4.639   1.608   7.268  0.3991  0.3453 -0.7001
   92MOL   C12933071   4.770   1.591   7.351  0.1773  0.0581 -0.0287
   92MOL   C13033072   4.782   1.705   7.460 -0.1142  0.6772  0.4985
   92MOL   C13133073   4.877   1.685   7.577  0.2713  0.3046  0.0071
   92MOL   C13233074   4.902   1.813   7.657 -1.0119 -0.2486 -0.2906
   92MOL   C13333075   4.829   1.579   7.668  0.0932 -0.0721 -0.1673
   92MOL   H13433076   4.644   1.705   7.218  0.4165  1.4699  1.4173
   92MOL   H13533077   4.639   1.533   7.190  1.2013  0.0497 -0.4152
   92MOL   H13633078   4.752   1.501   7.410 -0.7449  0.7827  0.8044
   92MOL   H13733079   4.807   1.799   7.410 -1.1863 -0.0406 -1.4242
   92MOL   H13833080   4.684   1.729   7.501 -0.4450 -0.6628  0.5043
   92MOL   H13933081   4.970   1.643   7.538 -0.0607  1.6688 -2.4008
   92MOL   H14033082   4.986   1.812   7.726 -1.9849  1.5070  0.9725
   92MOL   H14133083   4.809   1.850   7.700 -0.1101  1.9305 -0.1349
   92MOL   H14233084   4.933   1.887   7.582 -0.1159  0.2356  0.5528
   92MOL   H14333085   4.906   1.576   7.746 -0.1208 -0.4988  0.0234
   92MOL   H14433086   4.736   1.608   7.717  0.4242  2.2835 -0.8781
   92MOL   H14533087   4.814   1.484   7.618  4.2141 -1.4541  1.0293
   92MOL   C14633088   4.900   1.584   7.263 -0.5154  0.2717  0.1921
   92MOL   C14733089   4.934   1.437   7.239  0.0290  0.0067  0.4440
   92MOL   C14833090   5.004   1.375   7.367 -0.1099  0.1551  0.0924
   92MOL   C14933091   4.985   1.216   7.371 -0.1070  0.2740  0.1366
   92MOL   C15033092   5.071   1.155   7.485  0.1736  0.1575  0.8521
   92MOL   C15133093   4.841   1.164   7.387 -0.1572  0.4333  0.3517
   92MOL   H15233094   4.977   1.625   7.329 -0.4222 -2.2958  1.7873
   92MOL   H15333095   4.898   1.647   7.175  1.2502  1.2336  0.8165
   92MOL   H15433096   4.841   1.387   7.213 -1.1219  2.4876 -0.3730
   92MOL   H15533097   5.108   1.407   7.377  0.3112 -1.6347  1.7402
   92MOL   H15633098   4.951   1.410   7.456  0.6756 -1.1673  1.1107
   92MOL   H15733099   5.031   1.180   7.279 -0.5488  1.4738 -0.5680
   92MOL   H15833100   5.022   1.168   7.582 -1.3729 -1.0257  0.2520
   92MOL   H15933101   5.169   1.201   7.490  0.3367  0.3631 -2.9751
   92MOL   H16033102   5.088   1.052   7.453 -0.3392  0.8674 -1.7543
   92MOL   H16133103   4.842   1.062   7.426  1.0498  0.6346  0.8794
   92MOL   H16233104   4.795   1.146   7.290  0.1782 -0.1247  0.2928
   92MOL   H16333105   4.778   1.224   7.452 -2.0841 -2.5510  1.3281
   92MOL   C16433106   5.009   1.414   7.113  0.2216  0.5275 -0.3022
   92MOL   C16533107   4.941   1.432   6.971  0.2162 -0.4520  0.1045
   92MOL   C16633108   5.051   1.447   6.864 -0.0406  0.0459 -0.0520
   92MOL   C16733109   5.090   1.587   6.836  0.2466  0.8038 -0.1765
   92MOL   C16833110   5.186   1.602   6.718  0.7988  0.1605 -0.4448
   92MOL   C16933111   4.985   1.695   6.828 -0.0766 -0.7923  0.1762
   92MOL   H17033112   5.094   1.482   7.120 -0.6603  1.5423  0.5985
   92MOL   H17133113   5.055   1.315   7.113 -1.1736 -0.1266 -0.1900
   92MOL   H17233114   4.881   1.523   6.978  0.5387 -0.2524  0.2969
   92MOL   H17333115   5.133   1.383   6.895 -1.4327 -2.0607 -0.6181
   92MOL   H17433116   5.021   1.400   6.770  0.5719  2.3126 -1.4331
   92MOL   H17533117   5.151   1.615   6.921  0.7629 -1.0245  0.0587
   92MOL   H17633118   5.216   1.705   6.700  2.6548  0.0669  1.9528
   92MOL   H17733119   5.140   1.567   6.625 -1.6195 -1.5603  1.3199
   92MOL   H17833120   5.280   1.549   6.730  0.2659 -0.9253 -0.9019
   92MOL   H17933121   4.922   1.671   6.742  0.6899  1.9058 -1.2042
   92MOL   H18033122   5.017   1.797   6.810  1.0866 -1.1438  0.2017
   92MOL   H18133123   4.932   1.711   6.922  0.3038  1.6642 -0.0049
   92MOL   C18233124   4.850   1.309   6.944 -0.5534  0.4682 -0.3333
   92MOL   C18333125   4.755   1.310   6.815 -0.4372  0.2139  0.0708
   92MOL   C18433126   4.662   1.186   6.805  0.7930 -0.3993 -0.0684
   92MOL   C18533127   4.739   1.044   6.810 -0.3967 -0.0987  0.0318
   92MOL   C18633128   4.645   0.942   6.873 -0.5637  0.0259  0.0679
   92MOL   C18733129   4.776   1.015   6.663 -0.0798 -0.6764  0.4257
   92MOL   H18833130   4.785   1.289   7.029  2.4016 -0.8062  1.7019
   92MOL   H18933131   4.923   1.229   6.944  0.6455  1.5004  2.0036
   92MOL   H19033132   4.818   1.323   6.727 -1.1287  2.0602 -0.1728
   92MOL   H19133133   4.607   1.187   6.711  0.8259  2.5919 -0.0949
   92MOL   H19233134   4.604   1.190   6.898 -1.9366 -0.4505 -1.7280
   92MOL   H19333135   4.827   1.039   6.874 -1.1151  1.0468  1.1246
   92MOL   H19433136   4.581   0.901   6.794  0.0304  0.9173 -0.8791
   92MOL   H19533137   4.585   0.976   6.958  1.5002 -2.0109  2.4492
   92MOL   H19633138   4.706   0.859   6.908  2.0000  1.6010 -0.5792
   92MOL   H19733139   4.839   1.098   6.630  0.1381 -1.0621 -0.1407
   92MOL   H19833140   4.692   1.007   6.594 -0.0731  0.5822  0.2661
   92MOL   H19933141   4.831   0.921   6.656 -2.1103 -1.8906  0.3660
   92MOL   C20033142   4.663   1.429   6.814 -0.7002 -0.5782  0.6937
   92MOL   C20133143   4.595   1.473   6.680  0.0267 -0.5128 -0.2487
   92MOL   C20233144   4.691   1.495   6.558 -0.0919 -0.2528 -0.6405
   92MOL   C20333145   4.712   1.371   6.464  0.1410  0.1360 -0.4807
   92MOL   C20433146   4.605   1.345   6.357  0.2453 -0.2791 -0.2152
   92MOL   C20533147   4.842   1.397   6.392 -0.4396  0.1073  0.0666
   92MOL   H20633148   4.719   1.517   6.846  2.0742 -1.5721 -1.2109
   92MOL   H20733149   4.587   1.419   6.891  1.4108 -0.3725  2.8427
   92MOL   H20833150   4.519   1.402   6.648 -0.4419  0.5116 -1.4568
   92MOL   H20933151   4.658   1.573   6.490  1.2522 -0.4199 -1.5100
   92MOL   H21033152   4.787   1.528   6.597  0.4209 -5.2159  2.7765
   92MOL   H21133153   4.720   1.284   6.529 -0.1845  0.6393  0.2459
   92MOL   H21233154   4.510   1.312   6.397  1.7582 -2.0610  2.0062
   92MOL   H21333155   4.632   1.255   6.301  0.3179  0.2485 -1.0402
   92MOL   H21433156   4.601   1.422   6.280  0.2337  0.6351  0.6895
   92MOL   H21533157   4.917   1.405   6.471 -0.8987  1.9710  0.3264
   92MOL   H21633158   4.838   1.495   6.347 -2.2741  1.0515  2.1335
   92MOL   H21733159   4.871   1.319   6.322  0.2693  1.2943 -0.9667
   92MOL   C21833160   4.507   1.595   6.698 -0.4059 -0.5270 -0.5648
   92MOL   C21933161   4.401   1.597   6.812 -0.5249 -0.6342 -0.4369
   92MOL   C22033162   4.296   1.481   6.791 -0.2814 -0.2851 -0.7436
   92MOL   C22133163   4.194   1.474   6.906  0.5547 -0.0344  0.0755
   92MOL   C22233164   4.073   1.399   6.860  0.0915 -0.4080 -0.5583
   92MOL   C22333165   4.260   1.404   7.028 -0.0876 -0.2574  0.6168
   92MOL   H22433166   4.578   1.678   6.707  0.2902 -0.8224 -2.8782
   92MOL   H22533167   4.461   1.619   6.602  0.3094  1.9084 -0.3464
   92MOL   H22633168   4.441   1.571   6.910 -0.3706 -0.6199 -0.4960
   92MOL   H22733169   4.242   1.501   6.698  0.5482 -3.6665 -2.0097
   92MOL   H22833170   4.340   1.382   6.778 -0.6853 -0.5835  0.1532
   92MOL   H22933171   4.153   1.572   6.931 -0.2856 -0.6302  1.0720
   92MOL   H23033172   4.004   1.396   6.945 -1.0291  0.3537 -1.4259
   92MOL   H23133173   4.011   1.454   6.789  1.2602  1.0893 -0.4545
   92MOL   H23233174   4.104   1.303   6.819  0.6024 -0.4489 -0.0781
   92MOL   H23333175   4.194   1.410   7.114  0.7512  1.0702  1.1939
   92MOL   H23433176   4.290   1.303   7.002  0.0831  0.0128 -0.2550
   92MOL   H23533177   4.347   1.460   7.063 -1.7054  2.4404  0.4616
   92MOL   C23633178   4.331   1.733   6.821  0.3045 -0.6215  0.7133
   92MOL   C23733179   4.420   1.860   6.813  0.7413 -0.3271 -0.5807
   92MOL   C23833180   4.520   1.870   6.937  0.1408  0.3166  0.3039
   92MOL   C23933181   4.640   1.968   6.911 -0.0912 -0.5100 -1.0111
   92MOL   C24033182   4.722   1.980   7.043  0.5141 -0.4366 -0.2423
   92MOL   C24133183   4.734   1.932   6.800  0.2136  0.8513 -0.4747
   92MOL   H24233184   4.282   1.742   6.918 -0.7798 -1.7789  0.2806
   92MOL   H24333185   4.257   1.735   6.740  1.1053  0.2950 -0.0018
   92MOL   H24433186   4.479   1.869   6.722  1.6091  1.3601  0.1208
   92MOL   H24533187   4.571   1.774   6.943  0.0909  0.4137  2.6482
   92MOL   H24633188   4.473   1.893   7.033 -1.7044 -0.6854 -0.3322
   92MOL   H24733189   4.594   2.065   6.891 -0.5848 -0.5740 -0.2378
   92MOL   H24833190   4.782   1.890   7.061  0.3381 -0.0594  2.3221
   92MOL   H24933191   4.662   1.999   7.131  1.0732  3.3568 -0.5950
   92MOL   H25033192   4.807   2.048   7.041  1.4849 -1.6226  0.2009
   92MOL   H25133193   4.831   1.981   6.814  0.1250  1.2283 -1.1623
   92MOL   H25233194   4.694   1.972   6.707  0.2572 -1.7705 -1.6525
   92MOL   H25333195   4.747   1.825   6.781  1.2250  1.2533 -2.1980
   92MOL   C25433196   4.330   1.990   6.805 -0.5925 -0.2237 -0.5671
   92MOL   C25533197   4.260   2.008   6.662 -0.2252  0.4606  0.6652
   92MOL   C25633198   4.132   2.092   6.668 -0.0807 -0.8521 -0.5552
   92MOL   C25733199   4.031   2.067   6.782 -0.3577  0.2906 -0.0610
   92MOL   C25833200   3.975   1.918   6.782 -0.2003 -0.0563 -0.0308
   92MOL   C25933201   3.911   2.161   6.787 -0.3366  0.4384 -0.4897
   92MOL   H26033202   4.254   1.976   6.882  0.3064  1.4446  0.6583
   92MOL   H26133203   4.386   2.079   6.834  3.5782 -2.3433 -1.7256
   92MOL   H26233204   4.213   1.915   6.628  1.2952 -0.2251  0.4159
   92MOL   H26333205   4.072   2.072   6.579 -0.7301  1.0012 -0.5561
   92MOL   H26433206   4.164   2.196   6.660 -0.8524 -0.1142  4.6195
   92MOL   H26533207   4.074   2.080   6.881 -0.0751 -0.2953 -0.1037
   92MOL   H26633208   3.906   1.904   6.865 -0.3525  1.3915  0.0896
   92MOL   H26733209   4.055   1.846   6.798  0.4041 -0.0370 -2.7432
   92MOL   H26833210   3.933   1.891   6.686 -1.3564 -0.8474  0.6840
   92MOL   H26933211   3.899   2.145   6.894  2.1719 -2.5851 -0.5672
   92MOL   H27033212   3.932   2.266   6.769 -0.8446  0.6983  0.4131
   92MOL   H27133213   3.821   2.129   6.734 -1.0548  0.9256  0.4228
   92MOL   C27233214   4.364   2.051   6.554  0.1453 -0.6983 -0.5521
   92MOL   C27333215   4.339   1.998   6.417  0.3315 -0.5498  0.2523
   92MOL   C27433216   4.399   2.098   6.319  0.9428 -0.3695  0.6071
   92MOL   C27533217   4.311   2.212   6.265  0.3831  0.1734 -0.2848
   92MOL   C27633218   4.198   2.169   6.172  0.0288 -0.5725  0.0365
   92MOL   C27733219   4.387   2.328   6.195  0.2671 -0.0447  0.8426
   92MOL   H27833220   4.350   2.159   6.556 -0.3658 -0.7734 -0.1359
   92MOL   H27933221   4.470   2.037   6.574  0.3143 -0.3173 -1.1615
   92MOL   H28033222   4.235   1.981   6.388  0.2422 -0.4781  0.5237
   92MOL   H28133223   4.424   2.041   6.230 -0.5329  0.6965 -0.5267
   92MOL   H28233224   4.496   2.135   6.350  1.2041  1.3994 -2.1102
   92MOL   H28333225   4.275   2.263   6.354  1.3349  0.8362 -0.2725
   92MOL   H28433226   4.156   2.256   6.123 -0.8314 -0.8665  0.2482
   92MOL   H28533227   4.223   2.096   6.095 -0.2805  0.8506 -1.4259
   92MOL   H28633228   4.123   2.123   6.236  1.1362  0.3603  2.0879
   92MOL   H28733229   4.467   2.364   6.259  0.1772  0.5585  0.6200
   92MOL   H28833230   4.433   2.298   6.101  0.4521  0.0728  0.8957
   92MOL   H28933231   4.322   2.414   6.177  0.7998  0.4271  1.1792
   92MOL   C29033232   4.402   1.860   6.400  0.0998 -0.0150 -0.0395
   92MOL   C29133233   4.334   1.770   6.296 -0.5131  0.8695  0.4258
   92MOL   C29233234   4.449   1.696   6.212 -0.9332  0.0661 -0.1167
   92MOL   C29333235   4.531   1.788   6.115  0.8736  0.0175 -0.3167
   92MOL   C29433236   4.658   1.717   6.061  0.0245 -0.5256 -0.0257
   92MOL   C29533237   4.444   1.834   5.995 -0.4523 -0.0086  0.2043
   92MOL   H29633238   4.506   1.873   6.371  0.2253  1.7244  1.1373
   92MOL   H29733239   4.414   1.813   6.498  0.4892  0.3896  0.1081
   92MOL   H29833240   4.278   1.834   6.228  0.6833 -0.0405 -1.4436
   92MOL   H29933241   4.407   1.618   6.149  1.4367 -2.4318  1.2871
   92MOL   H30033242   4.526   1.644   6.269 -0.1095  0.5180 -0.8057
   92MOL   H30133243   4.566   1.872   6.175  0.8775  0.3675 -0.8137
   92MOL   H30233244   4.727   1.696   6.144  0.3050 -1.4279 -0.4838
   92MOL   H30333245   4.708   1.757   5.973  1.8060 -2.5909  0.0091
   92MOL   H30433246   4.617   1.618   6.042 -0.6174 -0.1115 -0.8270
   92MOL   H30533247   4.402   1.747   5.946  0.2195  0.0338 -0.4736
   92MOL   H30633248   4.495   1.891   5.917 -2.2600 -1.5791 -2.1664
   92MOL   H30733249   4.366   1.901   6.032  0.5871  1.0552  0.5270
   92MOL   C30833250   4.238   1.688   6.381  0.6560 -0.0808  0.6016
   92MOL   C30933251   4.147   1.587   6.294  0.0639  0.1509  0.1835
   92MOL   C31033252   4.215   1.458   6.256 -0.0269  0.3028  0.6524
   92MOL   C31133253   4.177   1.383   6.122  0.6128  0.0051 -0.0420
   92MOL   C31233254   4.176   1.478   5.997  0.1821 -0.1221  0.2662
   92MOL   C31333255   4.265   1.264   6.093  0.6227 -0.1136  0.4280
   92MOL   H31433256   4.299   1.628   6.449  0.6119  0.5321  1.1892
   92MOL   H31533257   4.174   1.764   6.426 -0.8006  0.6200 -2.4665
   92MOL   H31633258   4.127   1.640   6.201  0.6237 -0.8183 -0.4993
   92MOL   H31733259   4.200   1.390   6.340 -1.1493 -0.9161 -0.5112
   92MOL   H31833260   4.324   1.460   6.256 -0.0333  2.0976 -0.6669
   92MOL   H31933261   4.077   1.342   6.136  0.8977 -0.9781 -0.8721
   92MOL   H32033262   4.102   1.556   6.014 -0.3305 -0.4517 -0.4099
   92MOL   H32133263   4.141   1.428   5.907 -0.4461  0.1036  0.3826
   92MOL   H32233264   4.273   1.523   5.976  0.4708 -1.8258 -2.2290
   92MOL   H32333265   4.366   1.292   6.062  0.8211  0.6958  1.7855
   92MOL   H32433266   4.276   1.210   6.186  1.0420  1.4032  1.2793
   92MOL   H32533267   4.217   1.203   6.016  0.6338  0.1841  0.1809
   92MOL   C32633268   4.015   1.546   6.361 -0.2182  0.6578 -0.5953
   92MOL   C32733269   3.886   1.630   6.330  0.5891  0.2940  0.7253
   92MOL   C32833270   3.900   1.787   6.353  0.2945 -0.2139 -0.2006
   92MOL   C32933271   3.770   1.864   6.317 -0.3994  0.1709  0.1480
   92MOL   C33033272   3.796   2.010   6.332  0.1914 -0.6051  0.1384
   92MOL   C33133273   3.737   1.837   6.166 -0.0242 -0.0240 -0.0432
   92MOL   H33233274   4.037   1.547   6.468  1.2653 -0.0334 -0.8762
   92MOL   H33333275   3.985   1.450   6.321 -0.6577  0.2107  0.7699
   92MOL   H33433276   3.875   1.611   6.223  2.3620 -0.5709  0.6757
   92MOL   H33533277   3.926   1.803   6.458  0.7829 -1.0755 -0.1817
   92MOL   H33633278   3.982   1.825   6.292 -1.2463  1.1135 -1.4886
   92MOL   H33733279   3.685   1.840   6.380  0.2859  0.2557  1.1035
   92MOL   H33833280   3.824   2.032   6.435 -0.2944  1.1307 -0.0730
   92MOL   H33933281   3.715   2.071   6.292  0.3108  0.0567  0.8938
   92MOL   H34033282   3.878   2.042   6.267  0.4910 -1.6035  0.0163
   92MOL   H34133283   3.718   1.732   6.142  0.1151 -0.1270  0.2906
   92MOL   H34233284   3.656   1.891   6.118  0.1479 -0.1082 -0.4274
   92MOL   H34333285   3.824   1.861   6.104 -0.7719  2.2718 -0.2225
   92MOL   C34433286   3.761   1.566   6.391  0.4740  0.1989 -0.4566
   92MOL   C34533287   3.731   1.597   6.544 -0.2087  0.1717  0.9525
   92MOL   C34633288   3.683   1.476   6.622  0.5806 -0.0187 -0.2237
   92MOL   C34733289   3.607   1.515   6.755 -0.0760 -0.1694  0.3100
   92MOL   C34833290   3.689   1.594   6.857 -0.2467 -0.4087  0.2940
   92MOL   C34933291   3.550   1.383   6.815 -0.0560  0.6116  1.1538
   92MOL   H35033292   3.785   1.460   6.379  1.4022  0.1160  1.8545
   92MOL   H35133293   3.671   1.590   6.335  0.3547 -0.8252 -0.7147
   92MOL   H35233294   3.674   1.690   6.548  3.2512  2.4570 -0.8189
   92MOL   H35333295   3.609   1.417   6.569  2.2351 -1.4774 -0.9622
   92MOL   H35433296   3.774   1.417   6.639 -0.1282 -1.8024 -2.3629
   92MOL   H35533297   3.514   1.563   6.727 -0.5791 -1.2142  0.1539
   92MOL   H35633298   3.637   1.627   6.947 -0.1081 -0.8058  0.5204
   92MOL   H35733299   3.781   1.550   6.895  1.2429  2.4665  0.1558
   92MOL   H35833300   3.722   1.685   6.808  0.0121 -0.3552  0.5649
   92MOL   H35933301   3.638   1.337   6.860 -1.1297 -1.2210  1.4011
   92MOL   H36033302   3.512   1.321   6.734  1.1715  0.1984  0.8853
   92MOL   H36133303   3.460   1.397   6.874 -1.9124 -0.2851 -1.4119
   92MOL   H36233304   3.828   1.626   6.583 -0.0744 -0.3570  1.0229
   93MOL     C133305   6.143   4.767   1.252 -0.3581  0.1171 -0.4612
   93MOL     C233306   6.105   4.838   1.384  0.5270 -0.3339  0.2080
   93MOL     C333307   6.223   4.923   1.431 -0.4196 -0.5208 -0.8242
   93MOL     C433308   6.195   5.026   1.554  0.1150 -0.7313  0.3117
   93MOL     C533309   6.156   5.168   1.506 -0.3139 -0.1951  0.2152
   93MOL     C633310   6.312   5.026   1.649 -0.4036 -0.1853 -0.2818
   93MOL     H733311   6.056   4.727   1.200 -0.7580 -0.4358  0.6167
   93MOL     H833312   6.196   4.828   1.178  0.3566  1.4202  1.1040
   93MOL     H933313   6.020   4.905   1.373  0.6763 -0.3064 -0.7921
   93MOL    H1033314   6.318   4.871   1.448  0.5255  0.8920 -1.6886
   93MOL    H1133315   6.240   4.980   1.340  0.4945  2.4248  1.1197
   93MOL    H1233316   6.113   4.993   1.618 -0.6230 -0.1569 -0.3302
   93MOL    H1333317   6.094   5.218   1.581 -1.6894 -0.6284 -0.6087
   93MOL    H1433318   6.244   5.232   1.496 -0.7535  0.3392 -0.3321
   93MOL    H1533319   6.096   5.171   1.415  1.1196 -0.1517 -0.7431
   93MOL    H1633320   6.295   5.081   1.742 -1.3199 -0.3867 -0.3289
   93MOL    H1733321   6.407   5.064   1.610 -1.2552  1.5860 -0.6883
   93MOL    H1833322   6.326   4.929   1.697  0.3054  0.8904  1.7886
   93MOL    H1933323   6.202   4.679   1.280 -0.9507 -0.5155 -1.1730
   93MOL    C2033324   6.060   4.727   1.481  0.4264 -0.7391  0.1675
   93MOL    C2133325   5.913   4.668   1.463  0.5134 -0.6163  1.3260
   93MOL    C2233326   5.898   4.553   1.569 -1.0416  0.1328 -0.0495
   93MOL    C2333327   5.962   4.417   1.532  0.1129  0.1573 -0.5102
   93MOL    C2433328   5.930   4.312   1.643 -0.0525 -0.3632 -0.3853
   93MOL    C2533329   5.936   4.364   1.385 -0.3851 -0.8174  0.0414
   93MOL    H2633330   6.137   4.650   1.477  0.7925 -0.4486  1.3485
   93MOL    H2733331   6.058   4.769   1.582 -2.8669 -0.6434  0.1313
   93MOL    H2833332   5.906   4.618   1.366 -1.7816  1.2810  0.4970
   93MOL    H2933333   5.791   4.540   1.586 -0.6416 -0.2123  2.4432
   93MOL    H3033334   5.933   4.592   1.665 -0.8680 -0.7250  0.2412
   93MOL    H3133335   6.071   4.419   1.542  0.0617 -0.2757  0.1926
   93MOL    H3233336   5.964   4.344   1.742  1.5461  0.4454 -1.1824
   93MOL    H3333337   5.987   4.220   1.629 -0.2323 -0.4726 -0.3919
   93MOL    H3433338   5.824   4.288   1.652  0.3217 -1.8101  0.3568
   93MOL    H3533339   5.973   4.262   1.375  1.5854 -0.0543 -0.5949
   93MOL    H3633340   5.829   4.368   1.364 -0.4634  0.3403  0.6611
   93MOL    H3733341   5.985   4.420   1.306 -0.1048 -0.1848  0.6651
   93MOL    C3833342   5.805   4.774   1.496  0.3839  0.4885 -0.5437
   93MOL    C3933343   5.676   4.756   1.406 -0.6782  0.5486 -0.8181
   93MOL    C4033344   5.698   4.821   1.270 -0.0317 -0.1427 -0.1652
   93MOL    C4133345   5.608   4.752   1.167  0.1062  0.1531  0.0360
   93MOL    C4233346   5.652   4.608   1.130  0.3391  0.3781 -0.2082
   93MOL    C4333347   5.597   4.838   1.040  0.3481  0.1124 -0.0640
   93MOL    H4433348   5.850   4.873   1.501  0.3241  0.4177  2.0186
   93MOL    H4533349   5.759   4.759   1.593 -3.1018  0.6889 -2.1104
   93MOL    H4633350   5.656   4.650   1.395 -1.4547  0.4210  1.4183
   93MOL    H4733351   5.801   4.819   1.234  0.6983  0.2754  1.8216
   93MOL    H4833352   5.669   4.926   1.272 -2.7148 -0.8722  0.2636
   93MOL    H4933353   5.509   4.744   1.211 -0.3208  0.1769 -0.9041
   93MOL    H5033354   5.622   4.577   1.030  2.5231 -1.4993 -0.3186
   93MOL    H5133355   5.760   4.599   1.118  0.5718  1.5802  0.8334
   93MOL    H5233356   5.624   4.529   1.200  0.7343  1.7546  1.5214
   93MOL    H5333357   5.515   4.799   0.980  0.0277  1.1626 -0.3261
   93MOL    H5433358   5.688   4.834   0.980  0.5523  0.2300  0.2308
   93MOL    H5533359   5.586   4.946   1.055 -1.3423  0.0555 -0.8032
   93MOL    C5633360   5.558   4.822   1.485  0.2086  0.4707 -0.2612
   93MOL    C5733361   5.499   4.743   1.602  0.2292 -0.9296 -0.3709
   93MOL    C5833362   5.391   4.652   1.544  0.2237 -0.5052  0.1417
   93MOL    C5933363   5.346   4.534   1.629  0.1261  0.1994 -0.1247
   93MOL    C6033364   5.453   4.426   1.655 -0.4167 -0.4601  0.2623
   93MOL    C6133365   5.214   4.470   1.579  0.3640 -0.1566 -0.2755
   93MOL    H6233366   5.475   4.865   1.429 -1.4938  0.2279  2.0008
   93MOL    H6333367   5.609   4.914   1.516 -1.6398  2.2735 -2.3471
   93MOL    H6433368   5.582   4.688   1.648  0.3817 -3.1880 -3.2539
   93MOL    H6533369   5.299   4.708   1.526 -0.5443 -0.6861  3.2409
   93MOL    H6633370   5.410   4.609   1.445  1.8561  1.1895 -0.3185
   93MOL    H6733371   5.325   4.564   1.732  1.0115  0.7102 -0.0799
   93MOL    H6833372   5.545   4.469   1.696 -0.1159  0.5311 -1.3936
   93MOL    H6933373   5.482   4.370   1.566 -0.6169 -2.9897  1.7508
   93MOL    H7033374   5.422   4.349   1.726 -0.4616  1.1261  2.0083
   93MOL    H7133375   5.136   4.546   1.575 -0.1925 -0.5362  2.2190
   93MOL    H7233376   5.191   4.390   1.649  2.0586 -0.8196 -0.4595
   93MOL    H7333377   5.223   4.425   1.481 -2.4894 -3.3876  0.8563
   93MOL    C7433378   5.448   4.834   1.714  0.5752  0.1732 -0.4641
   93MOL    C7533379   5.560   4.910   1.794 -0.3866  0.5314  0.5955
   93MOL    C7633380   5.602   4.834   1.917  0.0136  0.0408  0.1081
   93MOL    C7733381   5.752   4.803   1.913  0.0583  0.1704  0.7363
   93MOL    C7833382   5.789   4.706   2.026  0.2973 -0.0820 -0.0021
   93MOL    C7933383   5.854   4.919   1.908 -0.5945  0.1001 -0.8554
   93MOL    H8033384   5.378   4.786   1.783  0.9584  0.4862  0.1524
   93MOL    H8133385   5.381   4.907   1.668  2.4313  2.7599  0.8461
   93MOL    H8233386   5.644   4.921   1.725  1.6592  1.2640  3.1455
   93MOL    H8333387   5.573   4.884   2.009 -1.6421 -0.5059 -0.1063
   93MOL    H8433388   5.559   4.734   1.916  0.9765 -0.3843  0.2917
   93MOL    H8533389   5.755   4.737   1.826 -0.4965  0.3026  0.6104
   93MOL    H8633390   5.744   4.607   2.022  1.1515 -0.6192  2.7284
   93MOL    H8733391   5.763   4.749   2.123 -0.0365 -0.8733  0.2602
   93MOL    H8833392   5.892   4.671   2.024 -0.2164 -1.7552  1.6065
   93MOL    H8933393   5.948   4.878   1.943 -1.2070  0.3827  1.1691
   93MOL    H9033394   5.869   4.957   1.806  0.2774 -0.0001 -0.7658
   93MOL    H9133395   5.825   5.004   1.970  2.9601  1.2629 -0.6676
   93MOL    C9233396   5.528   5.054   1.834 -0.3074  0.7382 -0.9334
   93MOL    C9333397   5.526   5.161   1.719 -1.0327  0.2838  0.5540
   93MOL    C9433398   5.447   5.286   1.772 -0.2426  0.1224  0.4640
   93MOL    C9533399   5.288   5.282   1.761 -0.0347 -0.2096 -0.4045
   93MOL    C9633400   5.225   5.379   1.854 -0.1809  0.0371 -0.4907
   93MOL    C9733401   5.257   5.314   1.616  0.4110 -0.4776 -0.6383
   93MOL    H9833402   5.432   5.049   1.884 -0.9313  0.7918 -2.1074
   93MOL    H9933403   5.607   5.077   1.906  0.7962 -0.5619 -1.7038
   93MOL   H10033404   5.484   5.128   1.624 -1.7129  0.5592  0.7561
   93MOL   H10133405   5.484   5.375   1.722  1.0913 -1.4852 -1.5406
   93MOL   H10233406   5.475   5.295   1.877 -1.8799 -1.1744  1.0318
   93MOL   H10333407   5.245   5.184   1.782 -1.7584  0.2688 -1.5924
   93MOL   H10433408   5.118   5.370   1.873  0.1781 -0.9699  1.1586
   93MOL   H10533409   5.237   5.485   1.833 -0.7682  0.1346 -0.3352
   93MOL   H10633410   5.269   5.369   1.954 -0.4966  0.0128 -0.3541
   93MOL   H10733411   5.290   5.229   1.555  0.8179 -0.3023 -0.6693
   93MOL   H10833412   5.326   5.394   1.589 -0.3423  1.0371  1.8278
   93MOL   H10933413   5.154   5.340   1.595  0.9796  1.7661 -0.7569
   93MOL   C11033414   5.674   5.205   1.689 -0.1533 -0.2268 -0.1811
   93MOL   C11133415   5.696   5.294   1.561  0.0170  0.0452 -0.3119
   93MOL   C11233416   5.820   5.380   1.564 -0.1120  0.0075 -0.4164
   93MOL   C11333417   5.809   5.508   1.648  0.5090 -0.4174  0.2711
   93MOL   C11433418   5.720   5.603   1.571 -0.3226  0.1728 -0.0816
   93MOL   C11533419   5.947   5.572   1.645 -0.5687 -0.4925 -0.0106
   93MOL   H11633420   5.745   5.122   1.686 -0.2718 -0.4399  1.7707
   93MOL   H11733421   5.700   5.252   1.784 -0.8552 -0.5963  0.1999
   93MOL   H11833422   5.605   5.348   1.538 -0.4803 -1.3809 -1.7743
   93MOL   H11933423   5.853   5.416   1.467  0.7758  1.7099  0.5021
   93MOL   H12033424   5.905   5.325   1.602 -1.1622 -1.2615  0.1261
   93MOL   H12133425   5.764   5.476   1.742 -0.2348 -2.4965 -0.7457
   93MOL   H12233426   5.740   5.623   1.466 -1.1843 -0.0251 -0.2865
   93MOL   H12333427   5.703   5.697   1.625  0.7719  1.4224 -1.8452
   93MOL   H12433428   5.622   5.558   1.562  0.3789 -1.8007  1.8522
   93MOL   H12533429   5.982   5.596   1.545 -2.8307 -2.1807 -1.2362
   93MOL   H12633430   6.032   5.516   1.687  0.7103  1.0507 -0.4963
   93MOL   H12733431   5.938   5.667   1.697  4.7102  0.4486 -0.5041
   93MOL   C12833432   5.719   5.213   1.433  0.1636  0.1385 -0.0410
   93MOL   C12933433   5.686   5.273   1.299 -0.5066  0.2190  0.1485
   93MOL   C13033434   5.537   5.302   1.283 -0.6364 -0.2690 -0.7589
   93MOL   C13133435   5.504   5.418   1.187  0.0300  0.2485 -0.1235
   93MOL   C13233436   5.352   5.400   1.143 -0.3200  0.0370  0.6131
   93MOL   C13333437   5.517   5.560   1.254 -0.6816  0.3275 -0.1462
   93MOL   H13433438   5.667   5.117   1.437  0.3875  0.0113 -0.1830
   93MOL   H13533439   5.822   5.180   1.421 -0.2025 -1.7843  1.8912
   93MOL   H13633440   5.738   5.369   1.300  2.3780 -1.1878 -2.9741
   93MOL   H13733441   5.493   5.211   1.243  0.0341 -0.9951  0.1343
   93MOL   H13833442   5.486   5.316   1.378  1.0279  0.6584  0.0254
   93MOL   H13933443   5.576   5.408   1.106 -1.6706 -0.9157 -1.5009
   93MOL   H14033444   5.283   5.434   1.220 -2.5013 -1.5790 -0.5742
   93MOL   H14133445   5.326   5.296   1.121 -1.3539  0.4749 -0.2605
   93MOL   H14233446   5.331   5.452   1.049 -0.2080  1.5995  1.4347
   93MOL   H14333447   5.608   5.574   1.313 -2.4775 -0.2579  2.8791
   93MOL   H14433448   5.518   5.634   1.174  1.0065  0.5146  0.0245
   93MOL   H14533449   5.439   5.574   1.329 -0.3675  0.1128  0.2275
   93MOL   C14633450   5.747   5.206   1.168 -0.5623  0.3888  0.0008
   93MOL   C14733451   5.840   5.294   1.081 -0.2685 -0.1226 -0.0345
   93MOL   C14833452   5.848   5.244   0.936 -0.6435  0.3054 -0.8746
   93MOL   C14933453   5.724   5.261   0.842  0.2401  0.3819 -0.1579
   93MOL   C15033454   5.673   5.404   0.808  0.6901  0.4943  0.5725
   93MOL   C15133455   5.740   5.172   0.723 -0.1469 -0.2054  0.2688
   93MOL   H15233456   5.664   5.169   1.108 -0.8293 -0.8037  1.0991
   93MOL   H15333457   5.798   5.111   1.181 -1.1945 -0.2706 -2.0485
   93MOL   H15433458   5.781   5.386   1.071  1.5788  1.2608  1.4658
   93MOL   H15533459   5.927   5.298   0.883  1.6472 -1.8536  0.2499
   93MOL   H15633460   5.882   5.141   0.943  0.2772  0.6329 -0.5063
   93MOL   H15733461   5.652   5.209   0.904 -0.0959  0.3243 -0.5966
   93MOL   H15833462   5.662   5.464   0.899  2.1806  1.0660  0.3924
   93MOL   H15933463   5.569   5.400   0.775  0.2836 -0.9117  1.9703
   93MOL   H16033464   5.735   5.464   0.741 -0.2537 -0.2061 -0.9481
   93MOL   H16133465   5.643   5.184   0.673 -2.3188  0.7157  4.4274
   93MOL   H16233466   5.743   5.069   0.755  0.9797  0.2858  1.7522
   93MOL   H16333467   5.822   5.194   0.654  1.4968  0.9076  2.5385
   93MOL   C16433468   5.975   5.315   1.145  0.2276 -0.5913  0.6987
   93MOL   C16533469   6.040   5.454   1.129 -0.1372  0.7544 -0.3265
   93MOL   C16633470   5.962   5.568   1.208 -0.1805  0.2778  0.0654
   93MOL   C16733471   5.999   5.715   1.177  0.4401 -0.1213  0.2831
   93MOL   C16833472   5.927   5.762   1.052 -0.1517 -0.6336 -0.5820
   93MOL   C16933473   5.970   5.801   1.302  0.1624  0.5929 -0.1587
   93MOL   H17033474   5.976   5.283   1.250  0.1459  0.7398  1.1147
   93MOL   H17133475   6.035   5.232   1.109 -0.5977 -1.5661  1.5228
   93MOL   H17233476   6.035   5.472   1.022 -1.3476 -2.6833 -0.9054
   93MOL   H17333477   5.854   5.556   1.197 -0.1448 -1.2020  1.1873
   93MOL   H17433478   5.981   5.551   1.313  2.5374 -1.1378 -0.6173
   93MOL   H17533479   6.108   5.722   1.169  0.3976  2.0631  1.2609
   93MOL   H17633480   5.939   5.697   0.965 -2.1370 -0.5384 -0.9403
   93MOL   H17733481   5.955   5.864   1.025 -0.9965  0.0157  0.9333
   93MOL   H17833482   5.820   5.771   1.067  0.0530  0.9201  0.1170
   93MOL   H17933483   6.018   5.750   1.385  0.1690 -1.2399 -1.2616
   93MOL   H18033484   5.863   5.790   1.320  0.0017 -1.6506 -2.2912
   93MOL   H18133485   6.004   5.904   1.292  1.6500  0.1554  0.2649
   93MOL   C18233486   6.190   5.462   1.159  0.2510  0.0629  0.0237
   93MOL   C18333487   6.289   5.413   1.060  0.3973 -0.3560 -0.6019
   93MOL   C18433488   6.285   5.501   0.932  0.5926 -0.1754  0.0556
   93MOL   C18533489   6.219   5.443   0.802 -0.4333 -0.7693 -0.2869
   93MOL   C18633490   6.187   5.551   0.696 -0.0907  0.6124  0.0125
   93MOL   C18733491   6.289   5.326   0.734  0.4050 -0.0780  0.7079
   93MOL   H18833492   6.206   5.411   1.254 -0.9381  0.0370  0.2209
   93MOL   H18933493   6.221   5.561   1.190 -0.3789 -0.4044  2.2153
   93MOL   H19033494   6.260   5.311   1.037  1.8304 -1.1746  1.1212
   93MOL   H19133495   6.390   5.523   0.912  0.3987  0.9347  0.1841
   93MOL   H19233496   6.236   5.596   0.955 -0.5934 -0.7389 -0.1100
   93MOL   H19333497   6.122   5.401   0.825  0.4737 -2.3177  0.7678
   93MOL   H19433498   6.153   5.505   0.603 -0.1079 -2.4929  1.4932
   93MOL   H19533499   6.277   5.610   0.678 -1.3424  1.7728 -2.6472
   93MOL   H19633500   6.099   5.613   0.714  0.7881  1.6015  0.9914
   93MOL   H19733501   6.224   5.272   0.665 -0.1805  0.6573  0.6853
   93MOL   H19833502   6.333   5.254   0.803 -0.0068  0.6648  1.7404
   93MOL   H19933503   6.363   5.367   0.665  1.6051  0.7660  2.4568
   93MOL   C20033504   6.430   5.423   1.120 -0.9344  0.0233  0.1626
   93MOL   C20133505   6.525   5.317   1.057  0.7849 -0.4702  0.5345
   93MOL   C20233506   6.499   5.183   1.131  0.3749 -0.1536 -0.0677
   93MOL   C20333507   6.546   5.056   1.062  0.2223  0.2455 -0.0851
   93MOL   C20433508   6.533   4.944   1.164 -0.0893  0.2627  1.1127
   93MOL   C20533509   6.460   5.020   0.938  0.0211  0.1155 -0.0770
   93MOL   H20633510   6.437   5.403   1.227  1.2687  2.2621  0.4756
   93MOL   H20733511   6.476   5.521   1.113  0.7093 -0.7384  0.1525
   93MOL   H20833512   6.486   5.288   0.960  0.4301 -1.3496  0.9321
   93MOL   H20933513   6.552   5.194   1.225  0.0177  2.6004 -0.1321
   93MOL   H21033514   6.393   5.169   1.152  1.0119 -1.5575  2.3487
   93MOL   H21133515   6.650   5.061   1.029  0.1406 -0.4607 -0.4400
   93MOL   H21233516   6.565   4.966   1.266  1.0680 -0.3596  0.8964
   93MOL   H21333517   6.573   4.848   1.132 -0.3111  1.1312 -1.8996
   93MOL   H21433518   6.428   4.925   1.183  0.2477 -0.1823  2.5539
   93MOL   H21533519   6.357   5.054   0.952  0.1067  0.3248  0.0517
   93MOL   H21633520   6.456   4.913   0.918 -1.4760 -0.3664  2.5826
   93MOL   H21733521   6.504   5.068   0.851 -0.3360 -0.2832 -0.4803
   93MOL   C21833522   6.669   5.351   1.038 -0.1175 -0.6789  0.6775
   93MOL   C21933523   6.688   5.467   0.935  0.1694  0.7674  0.1806
   93MOL   C22033524   6.669   5.417   0.786  0.3187  0.0381 -0.1787
   93MOL   C22133525   6.673   5.521   0.669  0.0056 -0.0442  1.1186
   93MOL   C22233526   6.622   5.459   0.536 -1.0802 -0.8536  0.1039
   93MOL   C22333527   6.598   5.654   0.701 -0.8404  0.3450  0.1698
   93MOL   H22433528   6.715   5.386   1.130  0.6922 -0.6473  0.2656
   93MOL   H22533529   6.735   5.266   1.019  0.8279  0.6091 -1.9841
   93MOL   H22633530   6.610   5.542   0.949  0.3757  1.1587 -0.7499
   93MOL   H22733531   6.741   5.337   0.771 -0.9592 -0.9968 -0.9049
   93MOL   H22833532   6.574   5.365   0.779  1.3001 -1.9992  1.2313
   93MOL   H22933533   6.777   5.537   0.644 -0.5955  1.9629 -0.2317
   93MOL   H23033534   6.659   5.520   0.454 -3.1198  0.3027  0.0115
   93MOL   H23133535   6.663   5.359   0.526 -1.4137 -0.7642 -2.4982
   93MOL   H23233536   6.514   5.463   0.522 -1.1659 -0.2096  0.8755
   93MOL   H23333537   6.558   5.711   0.617 -0.9885  2.0281  1.3661
   93MOL   H23433538   6.506   5.634   0.756  0.3001 -2.1072  1.2813
   93MOL   H23533539   6.669   5.723   0.747  0.5200  0.4798 -2.0207
   93MOL   C23633540   6.836   5.532   0.955  0.3336 -0.2293 -0.1363
   93MOL   C23733541   6.876   5.618   1.080  0.5994  0.4209  0.3522
   93MOL   C23833542   6.812   5.758   1.082  0.1405  0.7457 -1.2302
   93MOL   C23933543   6.795   5.817   1.224  0.0689  0.9302 -0.7779
   93MOL   C24033544   6.766   5.966   1.216 -0.3352 -0.1916 -0.0022
   93MOL   C24133545   6.685   5.750   1.310  0.5378 -0.7961 -0.0322
   93MOL   H24233546   6.852   5.603   0.874  0.5874  0.1741  0.2620
   93MOL   H24333547   6.909   5.452   0.942  0.5322 -0.1533  0.4758
   93MOL   H24433548   6.828   5.568   1.164 -1.2052  0.0636 -0.8534
   93MOL   H24533549   6.715   5.760   1.032 -0.5567 -2.7817 -0.1914
   93MOL   H24633550   6.879   5.821   1.023  3.5123  0.6047  2.2780
   93MOL   H24733551   6.887   5.806   1.282  0.0084  0.7475 -0.7145
   93MOL   H24833552   6.774   6.024   1.307  0.1654 -2.4442  1.4379
   93MOL   H24933553   6.684   5.985   1.147  1.8493  2.5638 -1.9436
   93MOL   H25033554   6.851   6.007   1.162  1.8837 -2.8394  1.3266
   93MOL   H25133555   6.696   5.779   1.414  1.1223  0.3742 -0.4076
   93MOL   H25233556   6.690   5.642   1.321  2.3321 -0.4697  2.7880
   93MOL   H25333557   6.589   5.781   1.270  0.5257  1.0198  1.3631
   93MOL   C25433558   7.023   5.610   1.118 -0.0987 -0.0398 -0.2992
   93MOL   C25533559   7.068   5.479   1.190  0.4533  0.4561  0.2180
   93MOL   C25633560   7.197   5.435   1.131 -0.0665 -0.0450  0.3343
   93MOL   C25733561   7.211   5.363   0.996 -0.1059  0.1261  0.3867
   93MOL   C25833562   7.160   5.222   1.004  0.4775  0.9475 -0.3081
   93MOL   C25933563   7.354   5.358   0.946  0.3970  0.5686 -0.1818
   93MOL   H26033564   7.076   5.616   1.022 -2.7784 -0.2095 -1.8478
   93MOL   H26133565   7.054   5.698   1.175  0.1167 -1.8676  2.4488
   93MOL   H26233566   6.990   5.408   1.166 -0.8349  0.3006  4.3408
   93MOL   H26333567   7.260   5.396   1.211  1.3019  0.3582 -0.5230
   93MOL   H26433568   7.254   5.525   1.107 -0.5294  0.3194  0.5963
   93MOL   H26533569   7.157   5.416   0.917 -3.5806  0.7195  3.0057
   93MOL   H26633570   7.190   5.166   1.092  0.2276 -0.6999 -1.2555
   93MOL   H26733571   7.193   5.150   0.929  2.2722 -0.5770  1.8717
   93MOL   H26833572   7.052   5.210   0.998  0.7852 -1.4739 -1.5807
   93MOL   H26933573   7.423   5.297   1.005 -1.1683 -0.6906  0.3685
   93MOL   H27033574   7.367   5.322   0.844  2.7135  0.7600  0.0023
   93MOL   H27133575   7.383   5.463   0.938 -1.5659  1.2744  1.5690
   93MOL   C27233576   7.071   5.489   1.350  0.5592 -0.1289  0.2237
   93MOL   C27333577   7.023   5.353   1.427 -0.0902  0.1479 -0.0139
   93MOL   C27433578   6.863   5.338   1.411 -0.3976  0.1823  0.4161
   93MOL   C27533579   6.786   5.341   1.540 -0.2730  0.1267  0.6765
   93MOL   C27633580   6.650   5.275   1.513  0.5276  0.8253  0.2365
   93MOL   C27733581   6.776   5.476   1.603 -0.0063  0.1111  0.1010
   93MOL   H27833582   7.168   5.528   1.380  0.7189  1.1647 -1.8438
   93MOL   H27933583   7.012   5.575   1.383  2.9745  1.8904 -0.5252
   93MOL   H28033584   7.041   5.373   1.532  3.2551 -0.3913 -0.4404
   93MOL   H28133585   6.842   5.244   1.359 -1.0648 -0.3375  1.5994
   93MOL   H28233586   6.825   5.414   1.342 -1.3855 -0.8169 -0.1607
   93MOL   H28333587   6.841   5.278   1.611 -1.3800 -1.6392 -0.0074
   93MOL   H28433588   6.571   5.334   1.466 -0.3929  0.4571  1.2785
   93MOL   H28533589   6.648   5.181   1.458  0.2017  1.4268 -0.8015
   93MOL   H28633590   6.603   5.262   1.611 -0.6381  4.0513  0.1629
   93MOL   H28733591   6.724   5.550   1.543 -2.1340 -1.1492  0.3416
   93MOL   H28833592   6.713   5.458   1.691  0.8706 -1.2871  0.4674
   93MOL   H28933593   6.872   5.521   1.628  0.9351 -1.1732 -1.1062
   93MOL   C29033594   7.100   5.226   1.383 -0.5726  0.7439  0.1899
   93MOL   C29133595   7.075   5.103   1.471  0.4884 -0.2413 -0.2642
   93MOL   C29233596   7.102   4.975   1.387 -0.4461  0.2706 -0.2726
   93MOL   C29333597   6.985   4.891   1.350  0.5795 -0.1207  0.4676
   93MOL   C29433598   6.908   4.961   1.232 -0.1463  0.2873 -0.1438
   93MOL   C29533599   7.025   4.742   1.313  0.0840  0.0906 -0.4960
   93MOL   H29633600   7.067   5.204   1.281  1.5046  1.3265 -0.6408
   93MOL   H29733601   7.206   5.252   1.379 -0.1155 -0.8891  1.1656
   93MOL   H29833602   6.970   5.116   1.496  0.9790 -1.7452  2.7700
   93MOL   H29933603   7.162   4.906   1.446 -0.0349  0.9269  0.0797
   93MOL   H30033604   7.160   4.997   1.298  1.7528 -0.2739  1.0060
   93MOL   H30133605   6.914   4.890   1.433  1.6032  0.6658  1.3579
   93MOL   H30233606   6.816   4.912   1.202  1.0884 -1.7929 -0.5792
   93MOL   H30333607   6.973   4.948   1.146  1.2627 -1.6213  1.1587
   93MOL   H30433608   6.870   5.062   1.249 -3.0190 -0.7778  0.0324
   93MOL   H30533609   7.090   4.751   1.226 -1.6749 -3.7113 -2.2971
   93MOL   H30633610   6.938   4.685   1.282 -0.4558  1.6134 -1.8682
   93MOL   H30733611   7.087   4.694   1.388  0.3375  2.9592  1.2184
   93MOL   C30833612   7.154   5.099   1.607  0.9669  0.9214 -0.0784
   93MOL   C30933613   7.118   4.990   1.716  0.6985  0.0677 -0.2833
   93MOL   C31033614   7.182   5.020   1.855 -0.0186 -0.2827 -0.2911
   93MOL   C31133615   7.325   5.050   1.865 -0.3384  0.7327  0.3653
   93MOL   C31233616   7.360   5.094   2.003  0.2838  0.0766  0.0948
   93MOL   C31333617   7.407   4.929   1.817 -0.1860  0.7582  0.0053
   93MOL   H31433618   7.257   5.076   1.581  0.3457 -0.5135 -1.3789
   93MOL   H31533619   7.164   5.202   1.641 -0.5776  1.8361 -2.3118
   93MOL   H31633620   7.149   4.890   1.686 -3.0561 -1.2093 -0.2534
   93MOL   H31733621   7.156   4.944   1.929  2.1305 -0.9825 -0.2168
   93MOL   H31833622   7.126   5.103   1.898  0.5364  0.4490 -0.9760
   93MOL   H31933623   7.350   5.135   1.802 -0.0191  0.5004  0.1783
   93MOL   H32033624   7.461   5.130   2.021 -0.1831  0.4417  2.1120
   93MOL   H32133625   7.354   5.007   2.069 -0.8829 -0.1491 -0.3033
   93MOL   H32233626   7.295   5.174   2.040 -1.7511 -2.8122  3.0756
   93MOL   H32333627   7.408   4.928   1.708 -0.4279  1.8842 -0.0161
   93MOL   H32433628   7.514   4.935   1.836 -0.4609  1.4519  1.4237
   93MOL   H32533629   7.364   4.836   1.855 -1.6324  1.6276  0.5188
   93MOL   C32633630   6.963   4.974   1.728 -0.7568  0.1827  0.2391
   93MOL   C32733631   6.907   4.866   1.820 -0.2056  0.6599  0.1236
   93MOL   C32833632   6.976   4.722   1.810 -0.0900 -0.5096  1.2445
   93MOL   C32933633   6.921   4.614   1.899  0.0150  0.2805  0.4116
   93MOL   C33033634   7.003   4.482   1.891  0.5309  0.2572 -0.6326
   93MOL   C33133635   6.911   4.660   2.041  0.4865 -1.0179  0.4795
   93MOL   H33233636   6.928   4.959   1.626  0.2917  0.5187 -0.1795
   93MOL   H33333637   6.925   5.072   1.757 -0.3660  0.1790  0.7748
   93MOL   H33433638   6.915   4.891   1.925 -0.1881 -0.9505  0.5173
   93MOL   H33533639   6.993   4.684   1.709 -1.0195  0.9720  0.5054
   93MOL   H33633640   7.077   4.727   1.851  0.4901  0.1656 -0.2164
   93MOL   H33733641   6.825   4.582   1.860  1.2538 -1.8423 -0.9799
   93MOL   H33833642   7.099   4.480   1.942  0.6825 -0.6375 -0.9470
   93MOL   H33933643   7.019   4.450   1.788 -0.7767  0.0461 -0.7818
   93MOL   H34033644   6.945   4.408   1.946  2.6994  1.2994  3.2633
   93MOL   H34133645   6.868   4.574   2.093  1.4922 -0.9601  1.4234
   93MOL   H34233646   7.014   4.674   2.074  0.9040 -1.1348 -0.7504
   93MOL   H34333647   6.839   4.739   2.058 -0.4659 -2.1988  2.1051
   93MOL   C34433648   6.754   4.858   1.797 -0.8019 -0.2188 -0.5940
   93MOL   C34533649   6.715   4.776   1.671 -0.2756  0.4568 -0.1387
   93MOL   C34633650   6.565   4.743   1.669 -0.3228 -0.2707 -0.2848
   93MOL   C34733651   6.535   4.621   1.589  0.3175  0.1213  0.3044
   93MOL   C34833652   6.583   4.621   1.444  0.0924 -0.3528 -0.4704
   93MOL   C34933653   6.385   4.585   1.595 -0.0160 -0.3233 -0.2562
   93MOL   H35033654   6.717   4.960   1.789 -2.6386 -0.9209 -1.1474
   93MOL   H35133655   6.707   4.815   1.886  4.6921 -1.5764  1.8856
   93MOL   H35233656   6.756   4.675   1.678  0.5734  0.6833 -1.5446
   93MOL   H35333657   6.536   4.734   1.774  1.4350  1.4846  0.3888
   93MOL   H35433658   6.512   4.831   1.632  0.3780  0.1392 -0.3348
   93MOL   H35533659   6.578   4.533   1.637  0.9994 -0.0619 -0.6186
   93MOL   H35633660   6.691   4.607   1.456  0.0078 -0.7220 -0.1350
   93MOL   H35733661   6.540   4.536   1.391 -1.2591  0.0319 -0.0205
   93MOL   H35833662   6.578   4.721   1.401  0.7649 -0.6915 -1.3459
   93MOL   H35933663   6.366   4.511   1.673  0.7998 -0.0209  0.2405
   93MOL   H36033664   6.344   4.532   1.509  0.4734  1.8899 -1.8841
   93MOL   H36133665   6.328   4.676   1.614  0.1234 -0.1682 -0.5772
   93MOL   H36233666   6.736   4.825   1.576  0.3715  0.6695  0.1153
   94MOL     C133667   0.011   5.890   3.118  0.1739  0.4877  0.6207
   94MOL     C233668   0.157   5.903   3.161  0.9913 -0.2087  0.0820
   94MOL     C333669   0.185   6.024   3.260  0.4623 -0.2398 -0.4763
   94MOL     C433670   0.127   6.014   3.405 -0.8057 -0.5205  0.1819
   94MOL     C533671   0.134   6.139   3.477 -0.0359 -0.0381 -0.2015
   94MOL     C633672   0.205   5.916   3.491 -0.5205  0.3859  0.3001
   94MOL     H733673   7.702   5.876   3.208 -0.1808  0.1656  0.3297
   94MOL     H833674   7.739   5.978   3.059  1.2633 -0.5754 -1.4472
   94MOL     H933675   0.181   5.813   3.218  0.5347 -0.4246 -0.0596
   94MOL    H1033676   0.293   6.033   3.271  0.4201 -0.3358  0.0414
   94MOL    H1133677   0.156   6.121   3.220  1.6720 -0.1711 -1.2157
   94MOL    H1233678   0.020   5.992   3.403 -1.1192  0.9478  0.3155
   94MOL    H1333679   0.094   6.224   3.422 -0.6706 -1.4286 -1.9202
   94MOL    H1433680   0.065   6.143   3.562 -0.9699  0.0215 -0.9564
   94MOL    H1533681   0.233   6.159   3.517  0.2527  0.1546 -1.0000
   94MOL    H1633682   0.219   5.817   3.446  0.9412 -0.9085  3.4710
   94MOL    H1733683   0.162   5.901   3.589  1.4121 -4.1192  0.6238
   94MOL    H1833684   0.303   5.956   3.515 -1.5699  1.9549  2.0220
   94MOL    H1933685   7.750   5.797   3.063  0.6117  0.5042  0.4875
   94MOL    C2033686   0.239   5.921   3.039 -0.0382  0.1488  0.4856
   94MOL    C2133687   0.303   5.795   2.970 -0.3803  0.1293  0.5991
   94MOL    C2233688   0.358   5.843   2.831 -0.1217 -0.4115 -0.3791
   94MOL    C2333689   0.386   5.729   2.731  1.0039  0.7099  0.2073
   94MOL    C2433690   0.256   5.647   2.700 -0.6673  0.5658  0.1549
   94MOL    C2533691   0.458   5.787   2.608 -0.2130  0.2812 -0.0500
   94MOL    H2633692   0.179   5.982   2.972 -0.7951  0.5976  1.5528
   94MOL    H2733693   0.317   5.992   3.068 -0.2908  0.4244  0.4963
   94MOL    H2833694   0.221   5.728   2.947  0.3475 -0.0148 -1.7440
   94MOL    H2933695   0.455   5.892   2.834 -0.3661  0.1563 -1.5631
   94MOL    H3033696   0.295   5.924   2.793 -0.4828 -0.9183 -0.8633
   94MOL    H3133697   0.460   5.660   2.771  1.6350  1.9333  1.1934
   94MOL    H3233698   0.261   5.607   2.599 -0.4680  0.5549  0.1697
   94MOL    H3333699   0.182   5.727   2.701 -1.5731 -0.2519  1.6183
   94MOL    H3433700   0.223   5.573   2.773 -3.0415  0.0770 -1.3504
   94MOL    H3533701   0.443   5.722   2.521  0.8859  1.7993 -1.4089
   94MOL    H3633702   0.418   5.885   2.585 -0.2766  0.0916 -0.7553
   94MOL    H3733703   0.565   5.791   2.629 -0.2436 -1.3759  0.5618
   94MOL    C3833704   0.409   5.736   3.067  1.0962  0.1445 -0.1254
   94MOL    C3933705   0.447   5.586   3.052 -1.1524 -0.2455  0.2378
   94MOL    C4033706   0.338   5.490   3.091  0.5959 -0.6959  0.5443
   94MOL    C4133707   0.354   5.339   3.049  0.3517 -0.4713 -0.6154
   94MOL    C4233708   0.389   5.320   2.896  0.7533  0.8601 -0.2440
   94MOL    C4333709   0.229   5.254   3.084 -0.6772  0.3849 -0.2384
   94MOL    H4433710   0.383   5.757   3.170  1.1767  2.3071 -0.5356
   94MOL    H4533711   0.501   5.795   3.072  1.3387 -0.2830  0.6032
   94MOL    H4633712   0.476   5.561   2.950  1.3692  2.7623  0.1143
   94MOL    H4733713   0.239   5.531   3.069 -0.3256 -1.2524  3.4734
   94MOL    H4833714   0.327   5.488   3.199 -0.1940  1.8836  0.5467
   94MOL    H4933715   0.441   5.294   3.096  0.8649  1.0960 -0.0334
   94MOL    H5033716   0.373   5.216   2.867  1.7035  0.5156  0.4413
   94MOL    H5133717   0.321   5.378   2.835 -0.2176 -0.6286 -0.6141
   94MOL    H5233718   0.488   5.358   2.870  0.1844  1.8501 -0.9545
   94MOL    H5333719   0.136   5.300   3.049 -0.5783  0.9665  0.2405
   94MOL    H5433720   0.218   5.248   3.192  2.8719  0.7260  0.2133
   94MOL    H5533721   0.220   5.154   3.042  1.4297  0.3630 -0.7059
   94MOL    C5633722   0.582   5.557   3.116  0.1374  0.2408 -0.0288
   94MOL    C5733723   0.706   5.573   3.027  0.3910  0.4229  0.7384
   94MOL    C5833724   0.825   5.534   3.117 -0.1373  0.3401 -0.5572
   94MOL    C5933725   0.847   5.380   3.143 -0.1233 -0.4739  0.2830
   94MOL    C6033726   0.975   5.357   3.231 -0.6534  0.3708 -0.3745
   94MOL    C6133727   0.859   5.295   3.013 -0.4001  0.0018  0.1431
   94MOL    H6233728   0.582   5.451   3.141  0.9893  0.9705  3.2861
   94MOL    H6333729   0.585   5.618   3.206 -1.3728  1.6158 -0.8746
   94MOL    H6433730   0.687   5.505   2.943 -1.5450  1.5831  0.2082
   94MOL    H6533731   0.916   5.580   3.081 -0.7464  0.8502 -1.4500
   94MOL    H6633732   0.804   5.584   3.212  1.9201 -1.0551  0.6837
   94MOL    H6733733   0.757   5.350   3.197 -0.2161 -0.0382  0.3755
   94MOL    H6833734   0.979   5.421   3.319  2.8262 -0.3441  0.0549
   94MOL    H6933735   1.062   5.372   3.167  0.6045 -2.9224  0.4526
   94MOL    H7033736   0.991   5.257   3.272 -1.3635 -0.3672 -1.8491
   94MOL    H7133737   0.918   5.341   2.934 -1.1099 -0.6280 -0.7690
   94MOL    H7233738   0.759   5.270   2.978 -0.7675  0.4803  0.8319
   94MOL    H7333739   0.909   5.199   3.026 -0.6609 -0.6119 -3.0716
   94MOL    C7433740   0.723   5.711   2.967  0.2850 -0.0932  0.5860
   94MOL    C7533741   0.841   5.732   2.867  0.2988  0.4087 -0.5639
   94MOL    C7633742   0.844   5.875   2.816  1.2252 -0.6111 -0.1712
   94MOL    C7733743   0.871   5.990   2.920  0.2043 -0.1829  0.2752
   94MOL    C7833744   0.888   6.129   2.852  0.4259  0.1837  0.6171
   94MOL    C7933745   0.999   5.962   2.996  0.6776  0.7702 -0.3923
   94MOL    H8033746   0.722   5.787   3.046  0.1415 -1.8229  2.2630
   94MOL    H8133747   0.636   5.742   2.909  1.3633 -0.4948 -1.3177
   94MOL    H8233748   0.937   5.719   2.918 -0.4788  0.0409  0.8411
   94MOL    H8333749   0.924   5.892   2.743 -0.1962 -1.6226 -1.9969
   94MOL    H8433750   0.755   5.884   2.754  0.5564 -0.1647  0.8325
   94MOL    H8533751   0.795   5.997   2.999  0.4941 -2.1772  0.7492
   94MOL    H8633752   0.794   6.159   2.804 -0.1512 -0.2112  1.4949
   94MOL    H8733753   0.964   6.117   2.775 -0.4586 -0.0517 -0.2293
   94MOL    H8833754   0.928   6.208   2.916  1.4973  2.5264 -2.7501
   94MOL    H8933755   1.033   6.047   3.056 -1.1955 -1.1341  3.5679
   94MOL    H9033756   0.994   5.873   3.059 -3.0303 -0.5207 -2.4075
   94MOL    H9133757   1.083   5.936   2.931  0.6481 -1.4343  0.3926
   94MOL    C9233758   0.828   5.634   2.749  0.4664  0.0109 -0.1528
   94MOL    C9333759   0.946   5.632   2.652  0.2092 -0.3770  0.1178
   94MOL    C9433760   1.077   5.558   2.693  0.4716 -0.1443  0.4717
   94MOL    C9533761   1.210   5.602   2.622 -0.5891 -0.3669  0.3891
   94MOL    C9633762   1.266   5.732   2.666 -0.2466  0.1303  0.1096
   94MOL    C9733763   1.307   5.486   2.642 -0.2599 -0.3728  0.0274
   94MOL    H9833764   0.825   5.534   2.791 -0.8071  0.4883  0.9315
   94MOL    H9933765   0.730   5.643   2.701  1.0156 -1.0227 -1.5172
   94MOL   H10033766   0.988   5.732   2.642  1.0648 -0.6646  0.7107
   94MOL   H10133767   1.050   5.452   2.698  1.4839 -0.4280  0.0742
   94MOL   H10233768   1.098   5.573   2.799 -1.0415  1.2267  0.5858
   94MOL   H10333769   1.195   5.610   2.514 -3.1980 -3.0875  0.4933
   94MOL   H10433770   1.196   5.814   2.651 -1.4489 -1.1146 -1.2051
   94MOL   H10533771   1.359   5.748   2.611 -0.4631  0.9339 -0.0250
   94MOL   H10633772   1.279   5.734   2.774  0.2873  1.4458  0.0316
   94MOL   H10733773   1.253   5.396   2.612  0.5419 -1.0447  0.5838
   94MOL   H10833774   1.342   5.469   2.743  3.3347 -1.2796 -1.2908
   94MOL   H10933775   1.381   5.485   2.562  0.2823 -4.0188  0.4620
   94MOL   C11033776   0.904   5.588   2.507 -0.2935 -0.1131 -0.2815
   94MOL   C11133777   0.852   5.440   2.499 -0.1034 -0.8404 -0.4115
   94MOL   C11233778   0.730   5.420   2.396  0.2107  0.1636 -0.0089
   94MOL   C11333779   0.606   5.333   2.447 -0.3745  0.1934  0.4716
   94MOL   C11433780   0.527   5.269   2.331 -0.0774 -0.3644 -0.0699
   94MOL   C11533781   0.518   5.422   2.539 -0.6535  0.1732 -0.3081
   94MOL   H11633782   0.993   5.601   2.444  0.0835 -2.7771 -0.3405
   94MOL   H11733783   0.827   5.655   2.468  0.1645  0.7203  0.2194
   94MOL   H11833784   0.816   5.416   2.600 -0.5841 -0.2781 -0.4466
   94MOL   H11933785   0.759   5.396   2.294  1.8294 -2.9373  1.0991
   94MOL   H12033786   0.696   5.523   2.393 -0.4522 -0.0691 -0.4287
   94MOL   H12133787   0.648   5.250   2.505 -0.3769 -1.5248 -1.9368
   94MOL   H12233788   0.441   5.210   2.364  1.0060 -1.5538  0.7079
   94MOL   H12333789   0.588   5.196   2.277 -0.1871  0.6941 -1.6457
   94MOL   H12433790   0.493   5.343   2.259  0.9755 -0.4130 -0.6218
   94MOL   H12533791   0.458   5.502   2.495 -2.5994 -0.4837  1.0772
   94MOL   H12633792   0.575   5.471   2.618 -2.7726  1.2817  0.5697
   94MOL   H12733793   0.451   5.357   2.596  2.4624 -0.5205  2.7638
   94MOL   C12833794   0.964   5.335   2.459 -0.5518 -0.0690  0.2690
   94MOL   C12933795   0.937   5.184   2.479  0.4717 -0.3898  0.4739
   94MOL   C13033796   0.938   5.142   2.639 -0.0613 -0.4869  0.2921
   94MOL   C13133797   0.855   5.010   2.669  0.0341 -0.5921  0.4082
   94MOL   C13233798   0.881   4.956   2.799 -0.1758 -0.3969 -0.0226
   94MOL   C13333799   0.707   5.036   2.654 -0.5143  0.2100  0.9207
   94MOL   H13433800   1.055   5.361   2.513 -1.5224  2.2120  0.8735
   94MOL   H13533801   0.982   5.357   2.354  0.3024  2.0234  0.8248
   94MOL   H13633802   0.843   5.159   2.430  0.8831  1.9042 -1.6022
   94MOL   H13733803   1.036   5.140   2.687  0.4257  1.4405 -0.5716
   94MOL   H13833804   0.894   5.224   2.697 -1.0068 -0.3996 -0.5358
   94MOL   H13933805   0.893   4.939   2.595  1.0166  0.3547 -0.0157
   94MOL   H14033806   0.865   5.030   2.876  1.0951 -0.1959  0.0582
   94MOL   H14133807   0.987   4.942   2.819  0.3291 -0.9439 -2.8443
   94MOL   H14233808   0.829   4.861   2.812 -1.4441  0.0846 -1.4528
   94MOL   H14333809   0.683   5.128   2.707 -0.0986  2.0247 -1.9661
   94MOL   H14433810   0.672   5.056   2.553 -0.0727 -0.3198  0.6562
   94MOL   H14533811   0.643   4.957   2.696 -1.7801  0.9784  0.4689
   94MOL   C14633812   1.048   5.109   2.405 -0.3722  0.0670  0.8251
   94MOL   C14733813   1.006   5.069   2.255  0.7306  0.6189  0.0759
   94MOL   C14833814   0.916   4.944   2.259  0.0369  0.3448 -0.9167
   94MOL   C14933815   0.779   4.943   2.199 -0.0876  0.4586  0.4087
   94MOL   C15033816   0.770   4.960   2.044 -0.3479 -0.2728  0.3402
   94MOL   C15133817   0.714   4.815   2.246  0.0889  0.3604 -0.1464
   94MOL   H15233818   1.097   5.024   2.451  1.1337  0.1139 -0.6339
   94MOL   H15333819   1.134   5.175   2.402 -0.0784 -0.3644 -1.9612
   94MOL   H15433820   0.948   5.152   2.216  0.7913  0.6823  0.1199
   94MOL   H15533821   0.975   4.858   2.225  2.3694  1.8001 -0.6703
   94MOL   H15633822   0.891   4.920   2.362 -1.2764  1.0152 -1.0745
   94MOL   H15733823   0.729   5.033   2.236 -2.0313 -1.0984  1.6770
   94MOL   H15833824   0.802   4.872   1.989  1.7377 -0.1170  1.2832
   94MOL   H15933825   0.816   5.046   1.995 -0.0127 -1.2825 -1.1256
   94MOL   H16033826   0.665   4.970   2.016  0.1830  2.1145 -1.0042
   94MOL   H16133827   0.768   4.729   2.206  1.6930  0.0702  2.5236
   94MOL   H16233828   0.611   4.810   2.210  0.3122  1.1529 -0.8948
   94MOL   H16333829   0.705   4.803   2.354 -2.3544 -0.3071 -0.3905
   94MOL   C16433830   1.135   5.051   2.170 -0.1090 -0.5441  0.4324
   94MOL   C16533831   1.122   5.004   2.021 -0.5581  0.1265 -0.6791
   94MOL   C16633832   1.109   5.113   1.911  0.0623  0.5836  0.8843
   94MOL   C16733833   1.091   5.058   1.767  0.0741 -0.2266  0.5666
   94MOL   C16833834   0.982   4.960   1.726  0.9224 -0.2068  0.2606
   94MOL   C16933835   1.070   5.181   1.677  0.3503 -0.2429 -0.4587
   94MOL   H17033836   1.197   5.140   2.181  1.9358 -1.6453 -1.6411
   94MOL   H17133837   1.196   4.978   2.224  2.0784 -0.1171 -1.3906
   94MOL   H17233838   1.029   4.948   2.012 -0.2118 -0.1963 -2.2922
   94MOL   H17333839   1.022   5.177   1.931 -1.0657 -0.5948 -0.1474
   94MOL   H17433840   1.190   5.186   1.916  0.2607  0.4717 -0.6716
   94MOL   H17533841   1.188   5.019   1.735  0.7170  1.0238  0.9643
   94MOL   H17633842   0.989   4.935   1.620  0.4319 -2.2108  0.6771
   94MOL   H17733843   0.882   4.999   1.745 -0.1209 -2.9546  0.5853
   94MOL   H17833844   1.004   4.872   1.787  1.5857  1.2344  2.1753
   94MOL   H17933845   0.972   5.228   1.684  0.5591  0.2034 -0.5335
   94MOL   H18033846   1.064   5.156   1.571 -1.1627  1.1718 -0.7273
   94MOL   H18133847   1.142   5.260   1.697 -0.8601  1.0088 -0.9224
   94MOL   C18233848   1.243   4.910   1.983 -0.2366  0.0693 -0.0700
   94MOL   C18333849   1.256   4.777   2.062 -0.4492  0.2951 -0.1249
   94MOL   C18433850   1.199   4.650   1.996  0.4580  0.2865  1.0426
   94MOL   C18533851   1.043   4.636   2.023 -0.2886 -0.1856  0.6131
   94MOL   C18633852   0.972   4.580   1.904 -0.0934 -0.3736  0.1314
   94MOL   C18733853   0.999   4.561   2.151 -0.0565 -0.0475  0.0259
   94MOL   H18833854   1.333   4.972   1.977 -0.5294  0.7645  2.1928
   94MOL   H18933855   1.231   4.870   1.883  1.8766  0.4561 -0.5065
   94MOL   H19033856   1.204   4.794   2.156  1.4269  1.8048  0.6756
   94MOL   H19133857   1.255   4.560   2.020 -0.8382 -0.7314  0.3142
   94MOL   H19233858   1.219   4.663   1.889  2.9754  2.0930  1.6843
   94MOL   H19333859   1.004   4.737   2.040 -1.3518 -0.3105 -1.0290
   94MOL   H19433860   1.008   4.624   1.811  2.0353 -2.4621 -0.0884
   94MOL   H19533861   0.867   4.607   1.916 -0.6193 -2.1926 -0.2618
   94MOL   H19633862   0.980   4.472   1.897  1.5911 -0.0931 -3.9341
   94MOL   H19733863   0.893   4.536   2.158  0.0577 -0.1864  1.5169
   94MOL   H19833864   1.009   4.621   2.242  1.2518 -2.6897  1.6933
   94MOL   H19933865   1.056   4.469   2.166 -0.7354 -0.3888  0.5758
   94MOL   C20033866   1.407   4.748   2.107 -0.4960 -0.5043  0.1707
   94MOL   C20133867   1.445   4.637   2.215  0.2941  1.0028  0.3413
   94MOL   C20233868   1.384   4.672   2.361  0.2093  1.0984 -0.6498
   94MOL   C20333869   1.429   4.571   2.479  0.0135  0.0359  0.6302
   94MOL   C20433870   1.357   4.613   2.603 -0.7293  0.0607  0.0161
   94MOL   C20533871   1.375   4.431   2.450 -0.5263  0.1657 -0.0702
   94MOL   H20633872   1.438   4.845   2.147  1.4878 -0.9949 -0.1333
   94MOL   H20733873   1.469   4.733   2.019 -1.4751 -1.8377 -0.3150
   94MOL   H20833874   1.399   4.544   2.183  1.1952 -0.0379  2.0082
   94MOL   H20933875   1.411   4.774   2.388  1.8555  0.3767  0.5493
   94MOL   H21033876   1.280   4.686   2.333 -0.1566  0.9472  0.6357
   94MOL   H21133877   1.538   4.576   2.492  0.3784 -0.9914 -1.7438
   94MOL   H21233878   1.381   4.713   2.639 -2.9686  0.8040 -0.4738
   94MOL   H21333879   1.394   4.550   2.684  0.8353  0.0836 -0.6663
   94MOL   H21433880   1.249   4.597   2.609 -0.5576 -1.0024  0.4139
   94MOL   H21533881   1.416   4.383   2.361 -1.4810 -0.6578 -0.0754
   94MOL   H21633882   1.267   4.433   2.439 -0.5509  0.9932  0.2927
   94MOL   H21733883   1.398   4.370   2.538  1.7264 -0.8691 -1.3232
   94MOL   C21833884   1.595   4.614   2.206  0.2416  0.2024 -0.7374
   94MOL   C21933885   1.655   4.530   2.088  0.0075 -0.0520  0.0416
   94MOL   C22033886   1.650   4.380   2.133  0.3534  0.3197 -0.4187
   94MOL   C22133887   1.632   4.263   2.039 -0.0875 -0.5839  0.1940
   94MOL   C22233888   1.666   4.131   2.112 -0.3113 -0.2636  0.2260
   94MOL   C22333889   1.479   4.255   1.984 -0.2139 -0.6247 -0.1612
   94MOL   H22433890   1.636   4.715   2.206 -0.9550  0.7085  0.6022
   94MOL   H22533891   1.647   4.581   2.297 -0.0591 -0.5302 -0.8266
   94MOL   H22633892   1.600   4.536   1.994 -2.4112 -1.4506  1.3268
   94MOL   H22733893   1.721   4.360   2.212 -0.9831 -1.1670  0.4253
   94MOL   H22833894   1.557   4.377   2.189  0.8311  0.8527  0.4141
   94MOL   H22933895   1.712   4.272   1.965 -1.9647  1.7420 -1.6108
   94MOL   H23033896   1.765   4.127   2.157 -0.5395 -1.8068  0.6327
   94MOL   H23133897   1.598   4.098   2.191 -2.7023  3.2252 -0.2812
   94MOL   H23233898   1.667   4.049   2.040  1.9324 -1.7596  1.8928
   94MOL   H23333899   1.440   4.353   1.955 -1.6200 -1.0862  0.1239
   94MOL   H23433900   1.463   4.193   1.896 -1.5664 -2.3390  1.2540
   94MOL   H23533901   1.422   4.236   2.076  0.3321  0.5993  0.4526
   94MOL   C23633902   1.794   4.572   2.042 -0.4921  0.2405 -0.3663
   94MOL   C23733903   1.817   4.557   1.889 -0.2253  1.1335 -0.2807
   94MOL   C23833904   1.975   4.570   1.862  0.8588 -0.3490 -0.0929
   94MOL   C23933905   2.051   4.688   1.924 -0.1804 -0.7158 -0.8535
   94MOL   C24033906   2.203   4.659   1.914 -0.1697 -0.0056  0.2587
   94MOL   C24133907   2.009   4.830   1.889 -0.5067  0.0336  0.8881
   94MOL   H24233908   1.864   4.514   2.103  1.2420 -0.3903 -2.8970
   94MOL   H24333909   1.813   4.673   2.077 -2.1148  1.0926 -1.8463
   94MOL   H24433910   1.784   4.456   1.864  0.7143  0.4069  1.2796
   94MOL   H24533911   1.993   4.577   1.755 -1.3295  0.4291 -0.4252
   94MOL   H24633912   2.020   4.473   1.884 -0.1077 -0.6172  0.7272
   94MOL   H24733913   2.028   4.683   2.031  3.0183  1.6373  0.0344
   94MOL   H24833914   2.210   4.555   1.948 -1.4446  0.8319  3.2262
   94MOL   H24933915   2.263   4.721   1.980 -1.3504 -0.3476  1.6743
   94MOL   H25033916   2.245   4.672   1.814  0.5291  1.5866  0.7506
   94MOL   H25133917   2.068   4.906   1.940  1.0398  0.5812 -1.6108
   94MOL   H25233918   1.903   4.845   1.909 -1.1333  0.1689 -2.2624
   94MOL   H25333919   2.028   4.846   1.783 -0.1202  0.0447  0.9571
   94MOL   C25433920   1.729   4.644   1.795  0.2677  0.0291 -0.5968
   94MOL   C25533921   1.653   4.554   1.689  0.4076 -0.7443  0.0274
   94MOL   C25633922   1.560   4.641   1.604  0.1013  0.6004 -0.8291
   94MOL   C25733923   1.412   4.649   1.654  0.2981 -0.8664  0.4482
   94MOL   C25833924   1.337   4.517   1.639  0.0654  0.6204 -0.2840
   94MOL   C25933925   1.335   4.768   1.594 -0.0946 -0.3360  0.5414
   94MOL   H26033926   1.651   4.697   1.850  1.8682  4.0199 -2.0041
   94MOL   H26133927   1.796   4.714   1.746  0.8370 -0.1112 -0.0234
   94MOL   H26233928   1.592   4.485   1.747 -0.4252 -0.8052 -0.9122
   94MOL   H26333929   1.545   4.590   1.509 -0.6110  0.4135 -0.6172
   94MOL   H26433930   1.589   4.744   1.583 -1.0508  1.0370 -0.3413
   94MOL   H26533931   1.415   4.667   1.761 -0.4031  0.3011  0.2814
   94MOL   H26633932   1.230   4.529   1.659 -0.4881 -1.1593 -2.0154
   94MOL   H26733933   1.380   4.439   1.701  0.7878  2.7227  1.9301
   94MOL   H26833934   1.356   4.489   1.535 -0.5977 -0.3033 -0.1622
   94MOL   H26933935   1.345   4.771   1.485 -1.4626 -0.6743  0.3955
   94MOL   H27033936   1.231   4.763   1.625 -1.1076  0.6216 -2.4972
   94MOL   H27133937   1.370   4.868   1.618 -0.4374 -0.4800  1.6583
   94MOL   C27233938   1.736   4.464   1.600  0.0865  0.1912 -0.2109
   94MOL   C27333939   1.664   4.345   1.535  0.2270 -0.9089  0.5983
   94MOL   C27433940   1.716   4.298   1.389 -0.7322 -0.3531  0.2368
   94MOL   C27533941   1.612   4.267   1.282 -1.0876 -0.4140 -0.5420
   94MOL   C27633942   1.676   4.175   1.175 -0.2110 -0.3079  0.2503
   94MOL   C27733943   1.556   4.395   1.211 -0.2770  0.0750 -0.6336
   94MOL   H27833944   1.777   4.539   1.533  0.0682  2.0424  1.8222
   94MOL   H27933945   1.829   4.435   1.648  0.7100  3.1200  0.3837
   94MOL   H28033946   1.560   4.370   1.512  0.4455  0.2720  0.8931
   94MOL   H28133947   1.771   4.204   1.397  1.3497  0.8514  0.4989
   94MOL   H28233948   1.787   4.374   1.357 -0.1831 -0.8376  0.2800
   94MOL   H28333949   1.535   4.204   1.326 -1.5469  1.3298  1.2483
   94MOL   H28433950   1.738   4.235   1.109 -1.4439  0.1428 -0.5175
   94MOL   H28533951   1.737   4.098   1.220 -0.9925 -0.6300  0.7706
   94MOL   H28633952   1.602   4.111   1.128 -0.4106  0.7288 -0.8690
   94MOL   H28733953   1.500   4.458   1.279  0.5559 -0.7988  0.9074
   94MOL   H28833954   1.646   4.447   1.178 -0.4802  0.5182 -0.4862
   94MOL   H28933955   1.504   4.362   1.121  1.5431 -2.7498 -0.7119
   94MOL   C29033956   1.669   4.231   1.638  0.4101  0.2449  0.4094
   94MOL   C29133957   1.586   4.100   1.607  0.2164  0.6132  0.5646
   94MOL   C29233958   1.605   3.994   1.725  0.4920 -0.6893  0.3139
   94MOL   C29333959   1.730   3.907   1.703  0.0331  0.4049  0.4181
   94MOL   C29433960   1.783   3.816   1.826  0.4583  0.0148 -0.0430
   94MOL   C29533961   1.709   3.813   1.579  0.1272 -0.2682 -0.0557
   94MOL   H29633962   1.773   4.199   1.630  0.9490  1.3589  2.4448
   94MOL   H29733963   1.657   4.267   1.740 -2.6576 -1.3562  0.6944
   94MOL   H29833964   1.611   4.054   1.512 -0.4892  0.0418  0.6561
   94MOL   H29933965   1.515   3.933   1.732  0.9521 -1.2918  1.0107
   94MOL   H30033966   1.608   4.047   1.820 -0.6786  0.0926 -0.0699
   94MOL   H30133967   1.817   3.968   1.680  0.8513 -1.2211 -0.8933
   94MOL   H30233968   1.790   3.870   1.921 -0.8474 -1.3279  0.8452
   94MOL   H30333969   1.879   3.768   1.811 -0.4427 -1.0131 -2.6671
   94MOL   H30433970   1.717   3.736   1.860  4.1811 -3.5077 -0.8178
   94MOL   H30533971   1.798   3.755   1.557  0.8073  0.8545 -0.3216
   94MOL   H30633972   1.666   3.859   1.490 -0.1301 -0.7983 -0.2080
   94MOL   H30733973   1.635   3.740   1.613  0.3825 -0.3872  0.2444
   94MOL   C30833974   1.435   4.140   1.589  0.1882  0.0490 -0.3154
   94MOL   C30933975   1.328   4.038   1.549  0.1122 -0.0061 -0.5283
   94MOL   C31033976   1.200   4.111   1.510 -0.1541 -0.0300  0.0400
   94MOL   C31133977   1.132   4.205   1.617 -0.2336  0.4922 -0.0276
   94MOL   C31233978   1.019   4.285   1.554  0.4127  0.2843  0.4714
   94MOL   C31333979   1.072   4.121   1.735  0.4019 -0.3228 -0.2820
   94MOL   H31433980   1.409   4.173   1.690  1.3425 -1.1823  0.3950
   94MOL   H31533981   1.428   4.213   1.508  1.0998  0.2014 -0.2630
   94MOL   H31633982   1.307   3.975   1.635 -0.9599  1.1353  0.0600
   94MOL   H31733983   1.128   4.036   1.478  0.0311  0.0021 -0.4578
   94MOL   H31833984   1.208   4.168   1.418 -0.6208 -0.0277 -0.0003
   94MOL   H31933985   1.203   4.279   1.654 -0.5617  1.3327 -1.0866
   94MOL   H32033986   1.042   4.321   1.454 -1.7702  0.8608  0.1520
   94MOL   H32133987   1.003   4.373   1.616  1.4613  0.5386  0.3939
   94MOL   H32233988   0.923   4.235   1.547  0.0501  1.1878 -1.1563
   94MOL   H32333989   1.022   4.190   1.802  1.1596 -0.8507  0.8328
   94MOL   H32433990   1.004   4.046   1.695  0.5158 -0.7015  0.2393
   94MOL   H32533991   1.150   4.078   1.796  1.3350  0.9318 -0.5715
   94MOL   C32633992   1.370   3.953   1.428 -0.6526 -0.4287  0.3822
   94MOL   C32733993   1.281   3.836   1.368  0.4391  0.8825  0.3516
   94MOL   C32833994   1.234   3.745   1.489  0.1330 -0.0760 -0.2104
   94MOL   C32933995   1.166   3.611   1.448  0.4347  0.0406 -0.2822
   94MOL   C33033996   1.171   3.513   1.566 -0.5299 -0.1198 -0.2389
   94MOL   C33133997   1.020   3.635   1.400 -0.4150  0.0766  0.4108
   94MOL   H33233998   1.462   3.896   1.443  0.0677  0.6071 -0.0414
   94MOL   H33333999   1.405   4.018   1.348  1.0522  0.4505  1.8181
   94MOL   H33434000   1.189   3.879   1.328  1.3774  2.3233 -0.3444
   94MOL   H33534001   1.316   3.715   1.555  1.4610 -1.9709 -2.6564
   94MOL   H33634002   1.176   3.801   1.563  1.5218 -0.0090  0.8635
   94MOL   H33734003   1.225   3.556   1.375  0.0965 -0.1624 -0.4042
   94MOL   H33834004   1.117   3.419   1.555 -1.7534  0.2510  2.3992
   94MOL   H33934005   1.140   3.555   1.661 -3.7875 -2.1089 -0.3519
   94MOL   H34034006   1.274   3.483   1.587 -0.8542 -0.2579  1.1513
   94MOL   H34134007   0.982   3.537   1.372  2.1537 -0.3411 -1.8214
   94MOL   H34234008   0.967   3.682   1.484 -1.2638 -1.1202  0.5610
   94MOL   H34334009   1.001   3.700   1.315  0.2627 -0.3939 -0.1018
   94MOL   C34434010   1.343   3.770   1.236  0.2065 -0.2755 -0.4364
   94MOL   C34534011   1.486   3.716   1.257 -0.4891  0.6585  0.7122
   94MOL   C34634012   1.535   3.641   1.125  0.3920 -0.3634 -0.6159
   94MOL   C34734013   1.667   3.571   1.137  0.2905 -0.5240  0.3223
   94MOL   C34834014   1.792   3.669   1.134  0.0628 -0.0779 -0.4497
   94MOL   C34934015   1.666   3.463   1.029 -0.1852 -0.4226  0.2769
   94MOL   H35034016   1.348   3.831   1.146 -0.4580  0.0604 -0.2562
   94MOL   H35134017   1.278   3.687   1.211 -0.4803  0.1072  0.0460
   94MOL   H35234018   1.506   3.655   1.345 -1.3857  0.9966  1.1541
   94MOL   H35334019   1.456   3.566   1.116  0.8514 -0.9733  0.3428
   94MOL   H35434020   1.534   3.705   1.037  0.7477 -1.7689 -1.6650
   94MOL   H35534021   1.678   3.517   1.231 -4.1808 -0.5079  0.9660
   94MOL   H35634022   1.886   3.616   1.142 -0.0277 -0.2067 -0.2322
   94MOL   H35734023   1.793   3.736   1.047  0.0758  1.2503  0.5584
   94MOL   H35834024   1.795   3.734   1.221  3.5013 -1.9147  0.9063
   94MOL   H35934025   1.672   3.506   0.930  1.5525  0.9028  0.9302
   94MOL   H36034026   1.578   3.400   1.039  1.1969 -3.1179 -3.3568
   94MOL   H36134027   1.760   3.408   1.036  0.8072  0.6360 -3.7609
   94MOL   H36234028   1.560   3.797   1.255  1.4143 -1.0535 -1.9531
   95MOL     C134029   1.798   2.002   5.171 -0.8954  0.3057  0.0555
   95MOL     C234030   1.720   1.970   5.304  0.4904  0.5710  0.1913
   95MOL     C334031   1.690   2.095   5.395 -0.0910  0.4650 -0.1067
   95MOL     C434032   1.591   2.207   5.340  0.7087 -0.0579  0.4866
   95MOL     C534033   1.599   2.339   5.410  0.8082  0.1267 -0.4958
   95MOL     C634034   1.445   2.164   5.346 -0.2132  0.4282 -0.4751
   95MOL     H734035   1.744   2.086   5.127  0.2890  0.1477 -1.7740
   95MOL     H834036   1.898   2.046   5.182 -1.2819  1.4658 -0.8745
   95MOL     H934037   1.624   1.927   5.276 -0.3321  2.6101 -0.2008
   95MOL    H1034038   1.668   2.076   5.500  0.7527  0.6145  0.1031
   95MOL    H1134039   1.786   2.146   5.404  0.3311 -0.6975  2.5475
   95MOL    H1234040   1.608   2.217   5.233  0.0073  1.3818  0.4974
   95MOL    H1334041   1.700   2.380   5.414  0.3602  1.5176 -2.4567
   95MOL    H1434042   1.541   2.420   5.365  0.1145 -0.5459 -0.8328
   95MOL    H1534043   1.566   2.340   5.514  0.7047  1.6684 -0.5355
   95MOL    H1634044   1.392   2.247   5.300 -0.6330  0.7889  0.6550
   95MOL    H1734045   1.426   2.163   5.453 -0.0186  1.4749 -0.4226
   95MOL    H1834046   1.424   2.069   5.296  0.1588  0.1586 -0.1226
   95MOL    H1934047   1.792   1.921   5.099  0.0484  1.5410 -1.4529
   95MOL    C2034048   1.806   1.869   5.385 -0.0877 -0.9379  0.3832
   95MOL    C2134049   1.807   1.723   5.344  0.2078  0.1019  0.1561
   95MOL    C2234050   1.940   1.644   5.380  0.1859  0.5392 -0.2019
   95MOL    C2334051   2.059   1.660   5.279  0.5706  0.0839 -0.5459
   95MOL    C2434052   2.127   1.800   5.291  0.2830 -0.7623  0.2496
   95MOL    C2534053   2.172   1.554   5.292 -0.6177 -0.2509  0.1046
   95MOL    H2634054   1.906   1.910   5.397  0.5482 -2.5672  0.7521
   95MOL    H2734055   1.772   1.875   5.488 -0.2238  2.6977  0.1885
   95MOL    H2834056   1.796   1.722   5.236  1.1640 -0.5454  0.0583
   95MOL    H2934057   1.910   1.540   5.388  0.2812  0.4718 -0.7110
   95MOL    H3034058   1.970   1.681   5.478  2.1671  1.7331 -1.2127
   95MOL    H3134059   2.014   1.651   5.181  0.9790 -2.3785 -0.5319
   95MOL    H3234060   2.054   1.881   5.278  1.9857  0.8043  0.2319
   95MOL    H3334061   2.211   1.820   5.223 -0.4788 -0.1902 -0.5436
   95MOL    H3434062   2.167   1.806   5.392 -1.0940  0.0220  0.7535
   95MOL    H3534063   2.151   1.448   5.280  1.9529 -0.6320 -1.3544
   95MOL    H3634064   2.255   1.577   5.226 -1.6341  1.0949 -0.7470
   95MOL    H3734065   2.223   1.557   5.388  0.0497  2.0144 -0.2966
   95MOL    C3834066   1.684   1.651   5.410  0.0396 -0.3031  0.5945
   95MOL    C3934067   1.646   1.512   5.366  0.4260  0.6877  0.0784
   95MOL    C4034068   1.517   1.505   5.280  0.0263 -0.2327  0.9305
   95MOL    C4134069   1.537   1.580   5.149  0.3143 -0.1184  0.7253
   95MOL    C4234070   1.401   1.627   5.102  0.3093 -1.0539  0.2593
   95MOL    C4334071   1.617   1.504   5.039  0.9270 -0.4111 -0.7594
   95MOL    H4434072   1.601   1.720   5.398  1.1974  1.0321  0.0901
   95MOL    H4534073   1.698   1.668   5.517  0.2660 -0.1472  0.5417
   95MOL    H4634074   1.728   1.490   5.297  0.4014  1.8831 -0.3346
   95MOL    H4734075   1.431   1.535   5.339 -1.1290 -0.8700 -0.4022
   95MOL    H4834076   1.489   1.403   5.252  2.5665 -0.7123 -0.0561
   95MOL    H4934077   1.591   1.672   5.171  2.1239 -0.9661 -0.0599
   95MOL    H5034078   1.375   1.712   5.165  2.1809 -0.5101  0.3117
   95MOL    H5134079   1.409   1.662   5.000  1.5959  0.0942  0.7361
   95MOL    H5234080   1.327   1.547   5.109  0.3055 -0.9007  2.4527
   95MOL    H5334081   1.613   1.554   4.942  0.7374  1.1938  0.0499
   95MOL    H5434082   1.573   1.405   5.027  2.7636 -1.4781  0.9543
   95MOL    H5534083   1.725   1.501   5.050  1.3104  2.4317 -3.1559
   95MOL    C5634084   1.651   1.409   5.482 -0.1300  0.3720 -0.3163
   95MOL    C5734085   1.660   1.259   5.436  0.5615 -1.1843 -0.3694
   95MOL    C5834086   1.651   1.171   5.562 -0.2140 -0.2660  0.0775
   95MOL    C5934087   1.500   1.150   5.612  0.1257  0.1652 -0.1781
   95MOL    C6034088   1.503   1.074   5.757 -0.6020 -0.0573  0.5310
   95MOL    C6134089   1.412   1.070   5.516 -0.1777  0.0621  0.3420
   95MOL    H6234090   1.563   1.430   5.544 -0.6750  0.5231 -1.1409
   95MOL    H6334091   1.741   1.419   5.543 -0.9666  0.8071  0.8741
   95MOL    H6434092   1.577   1.242   5.367 -0.8236 -1.5227  1.3480
   95MOL    H6534093   1.700   1.074   5.559 -0.6547 -0.4534 -1.1730
   95MOL    H6634094   1.710   1.213   5.644 -1.8803 -0.9751  1.6811
   95MOL    H6734095   1.464   1.253   5.622  0.5670  0.4005 -0.9214
   95MOL    H6834096   1.563   0.983   5.755  1.0357  0.9262  3.0901
   95MOL    H6934097   1.401   1.053   5.789  0.3056  0.3663  3.8454
   95MOL    H7034098   1.546   1.141   5.832  1.6151 -0.6633 -0.1508
   95MOL    H7134099   1.306   1.069   5.541 -0.7161 -1.4882 -1.8009
   95MOL    H7234100   1.449   0.971   5.487  0.9903  1.2814 -2.6010
   95MOL    H7334101   1.410   1.131   5.425  1.3811 -0.7436 -0.2624
   95MOL    C7434102   1.794   1.220   5.368  0.7405 -0.5247 -0.0900
   95MOL    C7534103   1.809   1.097   5.281  0.5303  0.8950  0.9101
   95MOL    C7634104   1.959   1.055   5.270  1.2165 -0.0514  0.2093
   95MOL    C7734105   2.013   0.978   5.395 -0.3120 -0.0941  0.3075
   95MOL    C7834106   2.162   0.967   5.388 -0.3727  0.0830  0.5209
   95MOL    C7934107   1.942   0.836   5.406  0.0830 -0.4669 -0.7176
   95MOL    H8034108   1.878   1.229   5.437  1.0756  0.3193 -0.5832
   95MOL    H8134109   1.833   1.306   5.312 -0.4584 -1.5033 -2.4985
   95MOL    H8234110   1.743   1.018   5.316  0.9869 -0.0948 -0.4392
   95MOL    H8334111   1.985   1.012   5.173  1.8977  0.2247  0.2702
   95MOL    H8434112   2.016   1.148   5.273  1.0879  0.1460 -2.2252
   95MOL    H8534113   1.993   1.019   5.494 -1.0668 -0.0453  0.1423
   95MOL    H8634114   2.205   1.063   5.416 -1.2531  0.6047  0.1129
   95MOL    H8734115   2.195   0.931   5.291 -2.5565 -0.1327 -0.1693
   95MOL    H8834116   2.195   0.902   5.469 -0.6069  0.2836  0.7803
   95MOL    H8934117   1.838   0.850   5.435  0.2271 -0.4058 -0.2237
   95MOL    H9034118   1.930   0.802   5.303  2.3353  1.1753 -1.5506
   95MOL    H9134119   1.988   0.758   5.467  0.2514 -0.4878 -0.8698
   95MOL    C9234120   1.741   1.120   5.140  0.0353 -0.6028  0.5007
   95MOL    C9334121   1.720   0.999   5.054  0.3983 -0.1078  0.0510
   95MOL    C9434122   1.587   0.928   5.087  0.5319 -0.0732 -0.4565
   95MOL    C9534123   1.589   0.774   5.062 -0.5852 -0.0435  0.2181
   95MOL    C9634124   1.663   0.694   5.170  0.1150  0.1768 -0.7014
   95MOL    C9734125   1.452   0.715   5.035  0.5568  0.7088  0.2404
   95MOL    H9834126   1.643   1.166   5.151  1.0301  1.4468  1.1199
   95MOL    H9934127   1.800   1.194   5.085  1.6487 -1.2872  1.2750
   95MOL   H10034128   1.801   0.933   5.084  0.5517 -0.2323 -0.6148
   95MOL   H10134129   1.503   0.975   5.036 -0.7184 -2.4509 -0.6685
   95MOL   H10234130   1.563   0.951   5.191  1.8528 -0.2846 -0.0947
   95MOL   H10334131   1.634   0.765   4.963  1.3253  1.5874  0.9138
   95MOL   H10434132   1.615   0.708   5.267  0.0061  0.1129 -0.7463
   95MOL   H10534133   1.768   0.723   5.173  0.0583  0.2570  1.3366
   95MOL   H10634134   1.652   0.588   5.149 -0.8437 -0.1397  1.2512
   95MOL   H10734135   1.403   0.762   4.949  0.0581  1.3232  0.8564
   95MOL   H10834136   1.390   0.720   5.124 -3.5795 -1.3144 -2.3417
   95MOL   H10934137   1.461   0.609   5.010 -2.6461  0.3254  0.4065
   95MOL   C11034138   1.726   1.030   4.901  0.0036  0.1012  0.6415
   95MOL   C11134139   1.813   0.934   4.812 -0.3051  0.4835  0.3120
   95MOL   C11234140   1.796   0.988   4.664  0.5545  0.1880 -0.2524
   95MOL   C11334141   1.654   0.996   4.607  0.1178  0.1819 -0.0369
   95MOL   C11434142   1.572   0.867   4.628  0.6336  0.5116 -0.6959
   95MOL   C11534143   1.668   1.036   4.461  0.2369  0.1304  0.0062
   95MOL   H11634144   1.761   1.132   4.887 -1.0234  0.0222 -2.8799
   95MOL   H11734145   1.623   1.028   4.865  0.2349  0.0402 -0.0261
   95MOL   H11834146   1.783   0.830   4.828  2.0278 -0.2398  0.1712
   95MOL   H11934147   1.855   0.934   4.590 -0.8646  1.1559 -2.1419
   95MOL   H12034148   1.822   1.093   4.649 -0.8298  0.7447  1.1235
   95MOL   H12134149   1.598   1.072   4.663 -0.7927 -1.3941  1.2449
   95MOL   H12234150   1.600   0.785   4.562 -0.7163 -3.3042  3.2251
   95MOL   H12334151   1.467   0.884   4.604  1.0812  2.7934 -1.0881
   95MOL   H12434152   1.573   0.814   4.724  0.0150  0.4646 -0.7123
   95MOL   H12534153   1.724   0.959   4.408  0.1423  0.8407 -1.1448
   95MOL   H12634154   1.719   1.131   4.447  1.5995 -0.1692  2.5868
   95MOL   H12734155   1.566   1.058   4.429 -0.5788 -1.8363  1.1602
   95MOL   C12834156   1.961   0.933   4.856  0.0193  0.1082  1.3666
   95MOL   C12934157   2.055   0.847   4.776  0.1796 -0.9338  0.5121
   95MOL   C13034158   2.001   0.697   4.775 -0.1325  0.3189 -0.1441
   95MOL   C13134159   1.964   0.633   4.907 -0.0205  0.2216  0.4172
   95MOL   C13234160   1.853   0.524   4.888  0.7978  0.0731 -0.3408
   95MOL   C13334161   2.091   0.570   4.968  0.2584 -0.1064 -0.2897
   95MOL   H13434162   1.960   0.912   4.963  2.6480  1.7952  1.7571
   95MOL   H13534163   1.996   1.034   4.838 -0.0548 -0.5298 -2.6637
   95MOL   H13634164   2.051   0.888   4.675  2.0986 -0.2307  0.7041
   95MOL   H13734165   1.910   0.692   4.717 -0.8365  0.3566  0.9373
   95MOL   H13834166   2.080   0.640   4.726  0.9729  0.7865  1.0523
   95MOL   H13934167   1.932   0.704   4.983 -1.2697  1.0435 -0.8527
   95MOL   H14034168   1.819   0.473   4.978 -0.0082 -2.7910 -2.2093
   95MOL   H14134169   1.886   0.446   4.819 -2.7596  0.4003 -2.4829
   95MOL   H14234170   1.758   0.555   4.846  0.1049 -1.6962 -0.1541
   95MOL   H14334171   2.178   0.633   4.986 -0.4398  0.8738 -0.2897
   95MOL   H14434172   2.060   0.532   5.065 -1.5564  1.8876 -0.0683
   95MOL   H14534173   2.129   0.494   4.899  0.5397  1.2063 -1.6255
   95MOL   C14634174   2.203   0.850   4.817  1.1567 -1.1057  0.2021
   95MOL   C14734175   2.289   0.975   4.781 -0.8100  0.4652 -0.7229
   95MOL   C14834176   2.261   1.104   4.875 -0.5486  0.3893  0.1866
   95MOL   C14934177   2.270   1.076   5.029 -0.4923 -0.3135 -0.3983
   95MOL   C15034178   2.400   1.018   5.082  0.0266 -0.2928 -0.3090
   95MOL   C15134179   2.241   1.221   5.101 -0.2788  0.3174 -0.1217
   95MOL   H15234180   2.249   0.765   4.766  4.9925  0.9954 -0.0338
   95MOL   H15334181   2.211   0.826   4.923 -0.5874  1.7694  1.0369
   95MOL   H15434182   2.389   0.946   4.812  0.3608  3.7637 -1.1990
   95MOL   H15534183   2.337   1.180   4.858  0.5341 -1.2140 -2.4403
   95MOL   H15634184   2.170   1.158   4.850  1.1899  4.0190  1.3951
   95MOL   H15734185   2.185   1.010   5.046 -0.6379  0.3042  1.4241
   95MOL   H15834186   2.406   0.910   5.069  0.8276 -0.4263  1.0888
   95MOL   H15934187   2.403   1.036   5.189 -1.3274 -0.4913 -0.2353
   95MOL   H16034188   2.491   1.070   5.052  1.0781 -2.1148 -0.3465
   95MOL   H16134189   2.220   1.201   5.206  0.3336  0.2912 -0.0034
   95MOL   H16234190   2.143   1.253   5.065 -1.0822  1.0225  2.6209
   95MOL   H16334191   2.317   1.298   5.090  0.3341 -0.1414  0.8859
   95MOL   C16434192   2.293   1.003   4.631  0.1051  0.7232 -0.3532
   95MOL   C16534193   2.394   1.102   4.574 -0.2138 -0.2264 -0.0041
   95MOL   C16634194   2.527   1.037   4.535 -0.0229 -0.0869  0.1318
   95MOL   C16734195   2.635   0.979   4.642  0.9000 -0.3708 -0.0522
   95MOL   C16834196   2.768   0.922   4.592 -0.4552  0.1435  0.1605
   95MOL   C16934197   2.659   1.079   4.760  0.1849  0.5587 -0.0677
   95MOL   H17034198   2.280   0.910   4.577  1.8059 -1.0586  2.1739
   95MOL   H17134199   2.194   1.045   4.615 -0.6166  0.1775  2.3663
   95MOL   H17234200   2.401   1.176   4.654  1.8757 -0.4671  0.0674
   95MOL   H17334201   2.498   0.960   4.463 -0.6595  0.1097  0.1671
   95MOL   H17434202   2.590   1.103   4.477  0.7167  0.3424  1.3974
   95MOL   H17534203   2.588   0.892   4.687  1.4930 -1.3287 -1.2789
   95MOL   H17634204   2.842   0.909   4.671  1.1125  0.4511 -1.2204
   95MOL   H17734205   2.805   0.997   4.523  0.3024 -0.1269  0.2700
   95MOL   H17834206   2.750   0.830   4.536  1.4302 -1.4445  2.0855
   95MOL   H17934207   2.698   1.175   4.726  2.7956 -0.2783  0.4695
   95MOL   H18034208   2.717   1.039   4.843 -1.1099  0.3425  0.7602
   95MOL   H18134209   2.561   1.108   4.799 -1.0353 -1.9485 -1.2095
   95MOL   C18234210   2.337   1.183   4.454  0.2975 -0.0232  0.1593
   95MOL   C18334211   2.418   1.305   4.403  0.1740  0.7865 -0.5530
   95MOL   C18434212   2.347   1.368   4.287 -0.1481  0.5022  0.0450
   95MOL   C18534213   2.348   1.283   4.156  0.0370 -0.5614  0.3994
   95MOL   C18634214   2.280   1.356   4.036 -0.0262 -0.3453  0.5365
   95MOL   C18734215   2.485   1.231   4.110  0.3165 -0.5546 -0.2376
   95MOL   H18834216   2.244   1.230   4.487  0.0654 -0.1576 -0.2995
   95MOL   H18934217   2.319   1.117   4.369  0.5268 -0.6985  0.6336
   95MOL   H19034218   2.510   1.263   4.362 -0.3332  0.5123 -1.4228
   95MOL   H19134219   2.405   1.454   4.255 -0.1025  1.3204  2.2382
   95MOL   H19234220   2.243   1.395   4.309 -0.5939  1.4802 -2.9662
   95MOL   H19334221   2.284   1.196   4.172  0.4575 -1.4447 -2.4251
   95MOL   H19434222   2.199   1.421   4.070 -0.0354  0.0008 -0.1369
   95MOL   H19534223   2.235   1.287   3.964  3.4505 -0.7287 -1.3702
   95MOL   H19634224   2.359   1.420   3.997 -2.0258  1.0091 -1.4862
   95MOL   H19734225   2.527   1.158   4.179  0.0870 -0.5026 -0.0416
   95MOL   H19834226   2.557   1.312   4.108 -1.5909  1.1834 -0.1902
   95MOL   H19934227   2.491   1.180   4.014 -1.9326 -0.8149 -0.2620
   95MOL   C20034228   2.444   1.410   4.514 -0.4036 -0.3121 -0.7985
   95MOL   C20134229   2.530   1.533   4.480  0.0689  0.3276 -0.8303
   95MOL   C20234230   2.677   1.483   4.463 -0.1144  0.1943  0.6043
   95MOL   C20334231   2.763   1.580   4.390 -0.2650  0.0928  0.7141
   95MOL   C20434232   2.906   1.528   4.377 -0.0344  0.1862 -0.0411
   95MOL   C20534233   2.712   1.603   4.243 -0.0886  0.0846  0.1510
   95MOL   H20634234   2.500   1.364   4.596  0.4033  1.3160 -0.4146
   95MOL   H20734235   2.350   1.438   4.560  0.4231 -0.9652  1.3470
   95MOL   H20834236   2.482   1.572   4.391 -0.0230 -0.3847 -1.0981
   95MOL   H20934237   2.715   1.450   4.559 -1.0242 -1.9357  0.2524
   95MOL   H21034238   2.681   1.391   4.405 -0.0667 -0.7852  2.1563
   95MOL   H21134239   2.759   1.676   4.441  1.0575  1.3072 -1.3829
   95MOL   H21234240   2.969   1.581   4.306 -0.2137 -0.5797 -0.7759
   95MOL   H21334241   2.903   1.420   4.359  0.5652 -0.1720  1.9101
   95MOL   H21434242   2.951   1.535   4.476  1.0817 -2.8640 -0.2833
   95MOL   H21534243   2.764   1.686   4.195 -0.5695  0.6896  0.6718
   95MOL   H21634244   2.608   1.633   4.242  0.5402  2.3395 -0.0121
   95MOL   H21734245   2.718   1.511   4.185  1.4179  0.7077 -0.7313
   95MOL   C21834246   2.524   1.635   4.600 -0.1255 -0.0207  0.4928
   95MOL   C21934247   2.388   1.697   4.646 -0.5687  0.9307 -0.1846
   95MOL   C22034248   2.311   1.760   4.531  0.0589  0.3996 -0.2423
   95MOL   C22134249   2.381   1.877   4.454  0.4481  1.1409 -0.4794
   95MOL   C22234250   2.380   1.855   4.305 -0.3938  1.1724  0.5124
   95MOL   C22334251   2.303   2.006   4.488 -0.2075 -0.3564 -0.2176
   95MOL   H22434252   2.567   1.582   4.685 -1.8350 -3.6148 -0.8176
   95MOL   H22534253   2.597   1.712   4.575  1.2453 -0.5853  2.6450
   95MOL   H22634254   2.322   1.618   4.682 -1.0506  0.5405 -1.9196
   95MOL   H22734255   2.285   1.685   4.456  0.8930  1.6088 -1.7830
   95MOL   H22834256   2.215   1.793   4.570  0.9345  2.7128  0.0661
   95MOL   H22934257   2.486   1.878   4.483  0.6517  2.1296 -1.2013
   95MOL   H23034258   2.274   1.849   4.280 -0.3094  1.8347  0.0017
   95MOL   H23134259   2.442   1.930   4.255  0.5255  0.5709  0.7342
   95MOL   H23234260   2.414   1.758   4.268 -1.3286 -0.1533  3.0176
   95MOL   H23334261   2.345   2.089   4.432 -0.5613 -0.3818 -0.5207
   95MOL   H23434262   2.199   1.989   4.460 -0.9585  0.0813  2.2050
   95MOL   H23534263   2.307   2.038   4.592 -0.5312  0.9306 -0.5938
   95MOL   C23634264   2.408   1.793   4.767 -0.5504  0.6008 -0.2030
   95MOL   C23734265   2.282   1.845   4.840  0.0883  0.9847  0.2034
   95MOL   C23834266   2.323   1.950   4.948  0.2882 -0.4659 -0.1413
   95MOL   C23934267   2.219   2.047   5.000 -0.1894 -0.3458  0.6400
   95MOL   C24034268   2.257   2.119   5.134 -0.5721  0.1508 -0.2947
   95MOL   C24134269   2.189   2.160   4.902 -0.4412 -0.3029  0.4121
   95MOL   H24234270   2.474   1.876   4.740 -0.7070  1.1822  1.1701
   95MOL   H24334271   2.467   1.747   4.846  0.0386  2.8540  0.7281
   95MOL   H24434272   2.223   1.897   4.765  0.0954 -1.4184 -1.5349
   95MOL   H24534273   2.408   2.003   4.905  0.6460  0.2058  1.3670
   95MOL   H24634274   2.369   1.892   5.027  1.2895 -0.4691 -0.7164
   95MOL   H24734275   2.136   1.980   5.021  1.0918 -2.5191 -1.1068
   95MOL   H24834276   2.287   2.046   5.209  0.4689 -0.8448 -1.6471
   95MOL   H24934277   2.173   2.170   5.181 -0.9479 -0.4540 -0.3123
   95MOL   H25034278   2.340   2.189   5.121  0.4225 -0.7622  1.0323
   95MOL   H25134279   2.150   2.251   4.947 -1.8482  0.5603 -2.4577
   95MOL   H25234280   2.119   2.124   4.826 -0.9960  0.2596  0.6564
   95MOL   H25334281   2.280   2.195   4.855  0.2001 -3.6058 -0.9317
   95MOL   C25434282   2.189   1.736   4.892 -0.4500  0.3022 -0.6386
   95MOL   C25534283   2.047   1.717   4.815 -0.0583 -0.0109 -0.7843
   95MOL   C25634284   1.969   1.585   4.843 -0.0764 -0.5916  0.5144
   95MOL   C25734285   2.022   1.452   4.777 -0.1190  0.5942  0.2380
   95MOL   C25834286   2.010   1.455   4.620 -0.0096  0.8188  0.2489
   95MOL   C25934287   1.927   1.337   4.822  0.9528 -0.0620 -0.0789
   95MOL   H26034288   2.242   1.642   4.912 -2.5255 -0.4286  1.7369
   95MOL   H26134289   2.147   1.766   4.988  2.7501  0.5953  0.7418
   95MOL   H26234290   2.067   1.706   4.709 -0.8267  2.8696 -1.2875
   95MOL   H26334291   1.863   1.602   4.824 -0.0399  1.3605  1.8619
   95MOL   H26434292   1.968   1.577   4.952  0.5932 -0.6874  0.5185
   95MOL   H26534293   2.123   1.437   4.813 -0.1173 -1.2573 -0.5078
   95MOL   H26634294   2.049   1.358   4.586 -1.0915  0.3145  0.4371
   95MOL   H26734295   2.083   1.525   4.579  1.7984 -1.0326  0.1805
   95MOL   H26834296   1.912   1.472   4.578 -0.0477  0.2459  0.1055
   95MOL   H26934297   1.953   1.241   4.778 -1.0848  0.1871 -1.9077
   95MOL   H27034298   1.945   1.313   4.926  1.2113 -2.7386 -0.7218
   95MOL   H27134299   1.825   1.357   4.788  0.9289  2.4837  1.3527
   95MOL   C27234300   1.946   1.838   4.824  0.0333 -0.7404 -0.3091
   95MOL   C27334301   1.846   1.844   4.702  0.1469 -0.1314 -0.3174
   95MOL   C27434302   1.716   1.925   4.729 -0.1845  0.4613 -0.2168
   95MOL   C27534303   1.605   1.847   4.803 -0.2508 -0.1355  0.1538
   95MOL   C27634304   1.514   1.748   4.718  0.0688  0.6542 -0.3626
   95MOL   C27734305   1.509   1.944   4.870 -0.4055  0.0897 -0.2275
   95MOL   H27834306   1.893   1.832   4.919  0.5463 -0.7473 -0.0271
   95MOL   H27934307   2.000   1.930   4.843  0.9661 -1.5403  0.9737
   95MOL   H28034308   1.810   1.741   4.696  0.9607 -0.3668 -1.3496
   95MOL   H28134309   1.674   1.957   4.633  0.7151  0.7181 -0.5361
   95MOL   H28234310   1.738   2.020   4.777  2.6778  1.3716 -3.0988
   95MOL   H28334311   1.640   1.785   4.885  2.4554  1.1094 -0.0048
   95MOL   H28434312   1.575   1.686   4.652 -1.6614  0.8665 -2.2083
   95MOL   H28534313   1.452   1.686   4.783 -0.5556  1.3301 -0.3135
   95MOL   H28634314   1.450   1.818   4.664 -0.5499 -0.6739 -1.3808
   95MOL   H28734315   1.447   1.889   4.940 -0.0087 -0.2242 -0.1204
   95MOL   H28834316   1.561   2.019   4.928 -2.1203  0.0748  1.3761
   95MOL   H28934317   1.446   1.990   4.794 -1.6675 -0.7921  0.2576
   95MOL   C29034318   1.913   1.892   4.566  0.2203  0.6781  0.0195
   95MOL   C29134319   1.855   1.858   4.436 -0.1143 -0.0847 -0.1809
   95MOL   C29234320   1.943   1.921   4.319 -0.0080 -0.4353  0.1274
   95MOL   C29334321   1.962   2.073   4.314  0.1497  0.6717 -0.0085
   95MOL   C29434322   2.008   2.115   4.176  0.2336 -0.2060 -0.4301
   95MOL   C29534323   1.837   2.153   4.348  0.9229 -0.1337 -0.6012
   95MOL   H29634324   1.918   2.001   4.578  1.4386  0.8643 -2.0082
   95MOL   H29734325   2.017   1.862   4.563 -0.3242 -1.2251 -0.2587
   95MOL   H29834326   1.758   1.907   4.428  0.2011  0.7422  0.9177
   95MOL   H29934327   1.914   1.881   4.223  0.0605  0.7825 -0.4156
   95MOL   H30034328   2.043   1.878   4.332 -0.2516 -0.5799  1.6507
   95MOL   H30134329   2.042   2.105   4.380  1.1531 -1.2971 -0.2352
   95MOL   H30234330   2.100   2.075   4.134  1.4300 -0.1498  2.0881
   95MOL   H30334331   2.007   2.224   4.171  0.9086 -0.2513 -2.1934
   95MOL   H30434332   1.932   2.086   4.104 -0.3663  0.4556 -0.0726
   95MOL   H30534333   1.860   2.259   4.338  4.0765 -0.2882  3.6634
   95MOL   H30634334   1.817   2.145   4.455  0.0050  1.0360 -0.6810
   95MOL   H30734335   1.744   2.117   4.304  0.5521 -0.6892  0.6230
   95MOL   C30834336   1.827   1.707   4.417  0.6442  0.1322  0.4472
   95MOL   C30934337   1.737   1.660   4.298  0.2669 -0.6847  0.0072
   95MOL   C31034338   1.755   1.509   4.282 -0.2301 -0.2097 -0.1612
   95MOL   C31134339   1.881   1.458   4.209  0.0329  0.1523 -1.0452
   95MOL   C31234340   1.919   1.316   4.248 -0.4900 -0.3388  0.2254
   95MOL   C31334341   1.864   1.489   4.066 -0.2691  0.8558  0.9407
   95MOL   H31434342   1.919   1.650   4.414  0.3747 -0.3958  1.7747
   95MOL   H31534343   1.772   1.675   4.506 -0.8191 -0.0771 -0.5149
   95MOL   H31634344   1.773   1.711   4.208  1.4047 -0.8531  0.3603
   95MOL   H31734345   1.658   1.475   4.245 -2.0994  2.1340  2.4432
   95MOL   H31834346   1.755   1.471   4.384  1.5427 -0.9383 -0.4116
   95MOL   H31934347   1.954   1.525   4.253 -0.9544  0.4016  0.2309
   95MOL   H32034348   2.021   1.302   4.213 -0.0092 -1.5223  2.0304
   95MOL   H32134349   1.846   1.238   4.224 -2.6816  1.8163 -0.4052
   95MOL   H32234350   1.938   1.309   4.355  2.6433  2.6231 -0.0775
   95MOL   H32334351   1.859   1.598   4.056  1.7879  0.9828  1.2715
   95MOL   H32434352   1.952   1.452   4.015  0.0482  0.1412  2.0011
   95MOL   H32534353   1.771   1.444   4.031 -0.8389  0.2277  3.2004
   95MOL   C32634354   1.584   1.696   4.315 -0.4313 -0.5362 -0.1179
   95MOL   C32734355   1.504   1.688   4.182  0.3125 -0.6770 -0.4304
   95MOL   C32834356   1.496   1.826   4.117 -0.0530 -0.2254 -0.8201
   95MOL   C32934357   1.463   1.820   3.966  0.0012  0.5540 -0.0960
   95MOL   C33034358   1.443   1.966   3.915 -0.4825  0.1875 -0.3652
   95MOL   C33134359   1.562   1.741   3.881 -0.5705  0.3196  0.0720
   95MOL   H33234360   1.565   1.791   4.365 -3.5701 -1.3632  0.3632
   95MOL   H33334361   1.548   1.631   4.395 -1.8172 -0.5637 -0.7393
   95MOL   H33434362   1.572   1.633   4.116  2.2994  0.5570  0.5119
   95MOL   H33534363   1.414   1.881   4.162 -1.3910 -3.3220  0.7225
   95MOL   H33634364   1.585   1.881   4.147 -0.0898  0.6875 -2.3390
   95MOL   H33734365   1.366   1.769   3.960 -0.0961  0.8058 -0.6669
   95MOL   H33834366   1.360   2.018   3.962 -0.8021 -0.9155  0.3085
   95MOL   H33934367   1.419   1.966   3.809 -1.1620 -0.1131 -0.2104
   95MOL   H34034368   1.539   2.016   3.930 -1.2833  2.0089 -1.2506
   95MOL   H34134369   1.651   1.800   3.901 -1.1667  0.7358  1.5197
   95MOL   H34234370   1.564   1.635   3.906  1.5702  0.8004  2.0584
   95MOL   H34334371   1.525   1.746   3.779  1.7544  2.9689 -0.7006
   95MOL   C34434372   1.362   1.619   4.197  0.4892  0.3138 -0.2285
   95MOL   C34534373   1.380   1.465   4.194  0.3071  0.1589  0.4772
   95MOL   C34634374   1.421   1.406   4.059  0.6844  0.5654  0.3054
   95MOL   C34734375   1.402   1.256   4.043 -0.4696 -0.0916 -0.7118
   95MOL   C34834376   1.506   1.187   4.132  1.0847  0.2741 -0.4827
   95MOL   C34934377   1.426   1.209   3.902  0.1190 -0.2937  0.0517
   95MOL   H35034378   1.297   1.647   4.115  1.0854  1.4093 -0.3302
   95MOL   H35134379   1.314   1.654   4.289  2.1469  0.5115  0.5972
   95MOL   H35234380   1.285   1.416   4.217  0.7384 -0.7416  0.3167
   95MOL   H35334381   1.362   1.455   3.982  0.6493  0.6326  0.3759
   95MOL   H35434382   1.522   1.434   4.027  0.0574  2.1384 -0.3231
   95MOL   H35534383   1.299   1.226   4.064 -0.9162  1.8558  0.0220
   95MOL   H35634384   1.604   1.214   4.094  1.1909 -1.4400 -1.5009
   95MOL   H35734385   1.515   1.199   4.240 -0.2841  0.7725 -0.4188
   95MOL   H35834386   1.510   1.078   4.122 -1.2127 -0.0609  1.7302
   95MOL   H35934387   1.362   1.269   3.837  0.0225  0.8871  1.2133
   95MOL   H36034388   1.409   1.101   3.900  0.6051 -0.3522 -1.5954
   95MOL   H36134389   1.529   1.219   3.867 -0.4912  1.4802 -1.2987
   95MOL   H36234390   1.447   1.425   4.269 -0.4208  0.2175  1.1739
   96MOL     C134391   2.700   5.126   6.185  0.5440  0.3537  0.3848
   96MOL     C234392   2.740   5.173   6.046 -0.0841  0.5524 -0.4536
   96MOL     C334393   2.683   5.074   5.934 -0.0482 -0.7013  0.5585
   96MOL     C434394   2.530   5.077   5.910  0.6290 -0.8077  0.0068
   96MOL     C534395   2.472   4.954   5.831 -0.1907 -0.3160 -0.4087
   96MOL     C634396   2.484   5.203   5.840  0.2792 -0.1088 -0.0270
   96MOL     H734397   2.714   5.210   6.253  2.5883 -0.5818  1.1360
   96MOL     H834398   2.596   5.099   6.206  1.2445 -0.6841  2.6644
   96MOL     H934399   2.690   5.269   6.031  0.6043  0.9304 -0.3449
   96MOL    H1034400   2.729   5.083   5.835  0.3035  3.3034  0.9954
   96MOL    H1134401   2.719   4.972   5.949  3.1951  0.2477 -0.3549
   96MOL    H1234402   2.490   5.090   6.010  0.7116 -3.5100  0.4300
   96MOL    H1334403   2.529   4.950   5.738 -1.4059  1.2151 -1.2412
   96MOL    H1434404   2.481   4.868   5.897 -1.9374  0.0081  0.2603
   96MOL    H1534405   2.366   4.960   5.809 -0.7147 -1.2985  1.6600
   96MOL    H1634406   2.540   5.214   5.747  0.5797  0.0523  0.1710
   96MOL    H1734407   2.502   5.287   5.907  0.8183 -0.0222 -0.2730
   96MOL    H1834408   2.378   5.208   5.814  0.7758 -0.6225 -2.2877
   96MOL    H1934409   2.755   5.036   6.212  2.3063  0.2266 -3.2593
   96MOL    C2034410   2.892   5.191   6.034  0.0990 -0.0342  0.1055
   96MOL    C2134411   2.949   5.305   6.123  0.7765 -0.0728 -0.2706
   96MOL    C2234412   3.100   5.314   6.113  0.1524  0.0535  0.1028
   96MOL    C2334413   3.183   5.185   6.153 -0.0666  0.1043 -0.7425
   96MOL    C2434414   3.332   5.220   6.132 -0.0423  0.1651  0.5057
   96MOL    C2534415   3.153   5.129   6.294 -0.1365 -0.0296  0.1423
   96MOL    H2634416   2.945   5.097   6.051  1.5924  1.1329  2.1031
   96MOL    H2734417   2.917   5.214   5.931 -1.1420 -0.0076 -0.2034
   96MOL    H2834418   2.929   5.284   6.228  0.0451 -2.0061 -0.7657
   96MOL    H2934419   3.129   5.405   6.166 -1.3582  0.3320  0.4823
   96MOL    H3034420   3.123   5.336   6.009 -2.1172 -1.5196 -0.7800
   96MOL    H3134421   3.165   5.112   6.073  2.3242 -1.3189 -0.0371
   96MOL    H3234422   3.386   5.238   6.226  1.0108  1.2516 -0.2785
   96MOL    H3334423   3.338   5.304   6.063  2.5089 -0.5987 -0.2515
   96MOL    H3434424   3.391   5.139   6.089  0.8062 -0.2751  2.4182
   96MOL    H3534425   3.062   5.071   6.304 -0.3488  0.1642 -0.6581
   96MOL    H3634426   3.236   5.058   6.304  1.4055  1.7586  0.3888
   96MOL    H3734427   3.165   5.204   6.373  0.1674  0.1682 -0.0888
   96MOL    C3834428   2.882   5.456   6.110  0.3658 -0.1249 -0.1299
   96MOL    C3934429   2.910   5.555   6.224 -0.0355 -0.2127  0.5446
   96MOL    C4034430   2.819   5.526   6.340 -0.4813  0.5224  0.0897
   96MOL    C4134431   2.861   5.589   6.475  0.2429 -0.3093 -0.6426
   96MOL    C4234432   2.996   5.525   6.536 -0.5962  0.3778  0.4239
   96MOL    C4334433   2.751   5.566   6.580  0.5921 -0.0784 -0.2887
   96MOL    H4434434   2.773   5.459   6.103  0.3281  0.1551  0.6339
   96MOL    H4534435   2.913   5.496   6.013 -0.7442 -0.8468 -0.7945
   96MOL    H4634436   3.013   5.561   6.260  1.1494  0.2863 -2.7969
   96MOL    H4734437   2.816   5.417   6.349  1.5496  0.4403  0.0242
   96MOL    H4834438   2.716   5.554   6.316 -0.0221  2.7957  0.7382
   96MOL    H4934439   2.880   5.696   6.479  0.8637 -0.4162 -0.8662
   96MOL    H5034440   3.080   5.522   6.467 -0.9254 -0.1474  0.0443
   96MOL    H5134441   3.021   5.594   6.617 -0.8590  0.6865  0.2404
   96MOL    H5234442   2.989   5.425   6.578 -1.9725  0.6623  0.8970
   96MOL    H5334443   2.656   5.607   6.545  0.4420 -0.7837 -0.7145
   96MOL    H5434444   2.773   5.615   6.675 -0.1498  1.4397 -0.8843
   96MOL    H5534445   2.727   5.462   6.601  0.5595 -0.0552 -0.2092
   96MOL    C5634446   2.880   5.699   6.170 -0.1382 -0.3551  0.1554
   96MOL    C5734447   3.004   5.790   6.129 -0.0981  0.0548  0.0590
   96MOL    C5834448   3.047   5.890   6.239 -0.2895  0.3046  0.3400
   96MOL    C5934449   3.119   5.832   6.361  0.0211  0.0648  1.0639
   96MOL    C6034450   3.107   5.925   6.482 -0.2144 -0.2740  0.7271
   96MOL    C6134451   3.269   5.792   6.330 -0.3990 -0.0265  0.1782
   96MOL    H6234452   2.812   5.752   6.236  0.3751 -0.8636  1.1093
   96MOL    H6334453   2.816   5.685   6.083 -1.0481 -0.8916  0.9025
   96MOL    H6434454   3.083   5.719   6.104 -1.1184 -0.3487 -2.0909
   96MOL    H6534455   3.117   5.967   6.205  0.9590 -1.4378 -1.0845
   96MOL    H6634456   2.958   5.945   6.272  0.5234  0.7350  1.8695
   96MOL    H6734457   3.059   5.746   6.390 -2.2583  1.3380  0.2620
   96MOL    H6834458   3.165   5.886   6.566 -1.0157  1.6663  2.2110
   96MOL    H6934459   3.002   5.921   6.508  0.2859 -0.1936  2.8666
   96MOL    H7034460   3.146   6.023   6.456 -1.1139 -0.5349 -1.7385
   96MOL    H7134461   3.311   5.759   6.425 -0.5310  2.1118  1.0090
   96MOL    H7234462   3.317   5.881   6.290 -2.1991  0.8656 -0.0199
   96MOL    H7334463   3.265   5.710   6.257 -1.3950  0.6022 -0.4931
   96MOL    C7434464   2.985   5.869   6.001  0.4922 -0.7353 -0.4608
   96MOL    C7534465   3.099   5.895   5.898 -0.0791 -0.3509  0.0060
   96MOL    C7634466   3.186   5.773   5.855 -0.5503  0.6299  0.8246
   96MOL    C7734467   3.100   5.654   5.794  0.1554 -1.0121 -1.3751
   96MOL    C7834468   3.188   5.530   5.759  0.3585  0.8940 -0.5632
   96MOL    C7934469   3.035   5.696   5.657  0.3851  0.1130 -0.3457
   96MOL    H8034470   2.939   5.965   6.025  2.3579  0.0740  0.0080
   96MOL    H8134471   2.904   5.827   5.941  0.1254  0.7753 -1.0298
   96MOL    H8234472   3.048   5.926   5.807  0.9430 -0.8163 -0.7334
   96MOL    H8334473   3.259   5.801   5.779 -1.0161  0.6272  0.3728
   96MOL    H8434474   3.246   5.731   5.936  1.8406  0.2777 -1.0696
   96MOL    H8534475   3.011   5.628   5.853 -1.2149  1.8529 -2.0571
   96MOL    H8634476   3.261   5.554   5.681  0.6434  0.1362 -0.5432
   96MOL    H8734477   3.130   5.438   5.741  0.0400  0.9993 -0.0799
   96MOL    H8834478   3.251   5.509   5.845  1.0582 -0.1066 -1.3018
   96MOL    H8934479   2.987   5.609   5.610  0.3790  1.2891 -2.5948
   96MOL    H9034480   2.950   5.764   5.658  1.3724  1.3664 -0.4714
   96MOL    H9134481   3.102   5.728   5.577 -0.1237 -0.1199 -0.8700
   96MOL    C9234482   3.188   6.017   5.944 -0.2590  0.5069 -0.5238
   96MOL    C9334483   3.241   6.098   5.828  0.2836 -0.0605  0.5857
   96MOL    C9434484   3.140   6.184   5.745  0.0884 -0.1230 -0.2178
   96MOL    C9534485   3.176   6.190   5.593  0.0731  0.3399  0.8566
   96MOL    C9634486   3.127   6.062   5.523 -0.3969  0.2106 -0.4150
   96MOL    C9734487   3.122   6.317   5.514  0.9680 -0.2867 -0.1231
   96MOL    H9834488   3.134   6.087   6.008  1.1733  0.1365  1.1536
   96MOL    H9934489   3.273   5.976   5.999  0.8798  2.4303 -0.7827
   96MOL   H10034490   3.285   6.016   5.771 -0.1671 -1.2695  1.9471
   96MOL   H10134491   3.132   6.287   5.781  0.2462 -0.8105  1.8172
   96MOL   H10234492   3.042   6.142   5.766  1.0597 -2.1264  0.4532
   96MOL   H10334493   3.285   6.193   5.586  0.1076 -0.5206  0.9790
   96MOL   H10434494   3.154   5.972   5.577  1.5945  0.4837 -0.8975
   96MOL   H10534495   3.173   6.066   5.424  1.6793 -0.5855  0.4869
   96MOL   H10634496   3.021   6.065   5.498 -0.2028 -0.2750 -1.3115
   96MOL   H10734497   3.162   6.405   5.564  0.3740 -0.8150  1.3184
   96MOL   H10834498   3.015   6.331   5.534  1.3327  2.0282  0.2958
   96MOL   H10934499   3.143   6.308   5.407 -0.6740  2.0859 -0.6841
   96MOL   C11034500   3.355   6.204   5.872 -0.2258 -0.2606 -0.0518
   96MOL   C11134501   3.484   6.169   5.943  0.0686  0.2466 -1.2753
   96MOL   C11234502   3.454   6.128   6.092  0.3090 -0.0859 -0.0352
   96MOL   C11334503   3.556   6.178   6.198 -0.1144 -0.4614 -0.1299
   96MOL   C11434504   3.710   6.144   6.182  0.6864  0.2089  0.0864
   96MOL   C11534505   3.502   6.134   6.338 -0.5114 -0.2163  0.0779
   96MOL   H11634506   3.308   6.287   5.924 -1.1815 -2.0934  2.1344
   96MOL   H11734507   3.382   6.243   5.774  0.7154 -1.9006 -0.4708
   96MOL   H11834508   3.550   6.254   5.960  0.0190 -0.2889  2.0070
   96MOL   H11934509   3.451   6.019   6.098  2.2382 -0.1175  0.7744
   96MOL   H12034510   3.350   6.153   6.111  0.3074  2.9021 -3.5532
   96MOL   H12134511   3.551   6.287   6.198 -1.2630 -0.4810 -2.4127
   96MOL   H12234512   3.719   6.044   6.140  1.3330  0.3132 -0.0281
   96MOL   H12334513   3.751   6.151   6.282 -1.9028 -1.3905  1.3173
   96MOL   H12434514   3.768   6.217   6.125 -0.3562  1.7231  0.9259
   96MOL   H12534515   3.569   6.169   6.416 -0.0638 -0.8312 -0.0223
   96MOL   H12634516   3.490   6.026   6.339  3.2232 -0.7083  2.0060
   96MOL   H12734517   3.399   6.155   6.365 -0.3194  1.7534 -0.6203
   96MOL   C12834518   3.570   6.060   5.871  0.0864 -0.0149  0.0305
   96MOL   C12934519   3.603   6.086   5.721  0.2262  0.4063  0.1958
   96MOL   C13034520   3.657   5.955   5.658  0.0344 -0.1167 -1.2003
   96MOL   C13134521   3.558   5.842   5.632  0.3458 -0.1889  0.2266
   96MOL   C13234522   3.438   5.894   5.541  0.3409  0.0682  0.1698
   96MOL   C13334523   3.633   5.717   5.573  0.9931 -0.3596  0.5777
   96MOL   H13434524   3.508   5.972   5.857 -1.8225  1.3106  0.0121
   96MOL   H13534525   3.666   6.051   5.923 -0.6169 -0.2881  1.2960
   96MOL   H13634526   3.509   6.111   5.673  0.9488 -1.4351 -2.2508
   96MOL   H13734527   3.709   5.975   5.564  1.7663  0.8341 -0.0712
   96MOL   H13834528   3.727   5.920   5.734 -0.1589 -0.2352 -1.0788
   96MOL   H13934529   3.519   5.804   5.726  3.2557  2.1310  2.4640
   96MOL   H14034530   3.363   5.821   5.513 -0.1917  0.9020 -0.6101
   96MOL   H14134531   3.488   5.945   5.458 -1.5918  1.0869 -0.4022
   96MOL   H14234532   3.386   5.971   5.598  0.7035 -1.0993  2.1104
   96MOL   H14334533   3.728   5.695   5.623  1.1597 -0.0213  0.4092
   96MOL   H14434534   3.571   5.629   5.590  0.1510  0.3732  1.3661
   96MOL   H14534535   3.639   5.734   5.466  0.4531  0.4913  0.6756
   96MOL   C14634536   3.707   6.203   5.701 -0.8576 -0.3772 -0.4766
   96MOL   C14734537   3.707   6.267   5.557 -0.0090 -0.0208  0.6204
   96MOL   C14834538   3.822   6.366   5.531  0.2155  0.1497  0.2272
   96MOL   C14934539   3.961   6.301   5.517 -0.1925  0.8336 -1.1689
   96MOL   C15034540   3.984   6.259   5.367 -0.0869  0.6592 -0.6866
   96MOL   C15134541   4.065   6.407   5.548 -0.6674  0.1280  0.2173
   96MOL   H15234542   3.807   6.158   5.707  0.4996  2.7815  2.3012
   96MOL   H15334543   3.695   6.279   5.778  0.7200  0.2429 -0.8281
   96MOL   H15434544   3.714   6.186   5.485  0.2656  0.2901  0.2929
   96MOL   H15534545   3.801   6.436   5.450  1.6045 -1.0024 -1.1571
   96MOL   H15634546   3.812   6.433   5.616  0.6716  0.0172  0.3860
   96MOL   H15734547   3.963   6.203   5.564  2.0783  1.4657  0.1481
   96MOL   H15834548   4.001   6.334   5.290 -1.3525  0.9871 -0.6536
   96MOL   H15934549   3.900   6.198   5.334 -1.0134  1.3277  0.3641
   96MOL   H16034550   4.070   6.193   5.364 -0.5739 -0.0010 -0.0784
   96MOL   H16134551   4.071   6.486   5.473 -1.0311 -0.8893 -0.9031
   96MOL   H16234552   4.167   6.370   5.555  0.4494  2.9374 -0.5185
   96MOL   H16334553   4.037   6.452   5.643  0.2237 -0.2671  0.6687
   96MOL   C16434554   3.574   6.350   5.523 -0.0985  0.0652  0.8300
   96MOL   C16534555   3.538   6.351   5.366 -0.3438  0.0658  0.3649
   96MOL   C16634556   3.476   6.214   5.324  0.2414  0.5852 -0.0888
   96MOL   C16734557   3.472   6.189   5.172  0.5181  0.4505  0.0279
   96MOL   C16834558   3.600   6.221   5.096 -0.2118 -0.0977 -0.2012
   96MOL   C16934559   3.441   6.031   5.162  0.0852 -0.5764 -0.0249
   96MOL   H17034560   3.494   6.307   5.584 -0.3446  0.3170  0.6838
   96MOL   H17134561   3.573   6.453   5.557 -3.3092 -0.3376  2.1608
   96MOL   H17234562   3.629   6.358   5.306 -1.4656 -0.4556 -1.4403
   96MOL   H17334563   3.522   6.135   5.383 -1.0831  1.2580  1.9328
   96MOL   H17434564   3.369   6.217   5.346  0.2000  0.4312 -0.2704
   96MOL   H17534565   3.390   6.248   5.131  1.5256  0.6669 -1.7580
   96MOL   H17634566   3.616   6.326   5.074  0.6007  0.1153  1.3596
   96MOL   H17734567   3.588   6.168   5.001  0.0889 -0.2793 -0.1388
   96MOL   H17834568   3.685   6.190   5.156  0.7350  1.5643 -0.6548
   96MOL   H17934569   3.470   5.979   5.070 -0.3550 -1.3698  0.2742
   96MOL   H18034570   3.337   6.016   5.192 -0.1446 -0.0287 -0.5316
   96MOL   H18134571   3.513   5.979   5.225  0.8559  0.9452  0.3711
   96MOL   C18234572   3.440   6.460   5.311  0.5695 -0.6967 -0.3606
   96MOL   C18334573   3.494   6.605   5.311 -0.5618  0.2148  1.1254
   96MOL   C18434574   3.601   6.633   5.203 -0.5279 -0.4959  0.4975
   96MOL   C18534575   3.706   6.742   5.236 -0.2249  0.5272  0.0698
   96MOL   C18634576   3.813   6.687   5.335 -0.0189  0.6799  0.6465
   96MOL   C18734577   3.774   6.796   5.111  0.1033  0.3858  0.6052
   96MOL   H18834578   3.337   6.458   5.346  0.9359  1.3315  0.9012
   96MOL   H18934579   3.420   6.436   5.206 -1.5000  2.2562 -0.7023
   96MOL   H19034580   3.549   6.606   5.405 -0.6723  2.3403  1.2063
   96MOL   H19134581   3.543   6.656   5.114  1.7429  0.1847 -0.8440
   96MOL   H19234582   3.656   6.543   5.172 -1.9350 -1.0824 -0.3424
   96MOL   H19334583   3.651   6.821   5.287 -2.2694 -0.8516  0.0396
   96MOL   H19434584   3.766   6.688   5.433 -0.1549  2.3156  0.5811
   96MOL   H19534585   3.899   6.751   5.352  1.7276 -1.7194  1.0648
   96MOL   H19634586   3.858   6.593   5.305 -0.4936  0.3988  0.8041
   96MOL   H19734587   3.694   6.811   5.039  0.7585  0.7983 -0.0482
   96MOL   H19834588   3.844   6.720   5.075 -2.0073 -1.5072  0.4227
   96MOL   H19934589   3.825   6.892   5.120 -1.3980  1.1422  1.1433
   96MOL   C20034590   3.372   6.716   5.310 -0.4429  0.3371 -0.8728
   96MOL   C20134591   3.343   6.772   5.451  0.1152  0.7234  0.1967
   96MOL   C20234592   3.258   6.679   5.543  0.1688 -0.0038 -0.1179
   96MOL   C20334593   3.285   6.698   5.692  0.9063  0.7037 -0.0319
   96MOL   C20434594   3.155   6.699   5.773 -0.2147  0.7046  0.1342
   96MOL   C20534595   3.380   6.590   5.750  0.4445  0.6550 -0.7574
   96MOL   H20634596   3.278   6.669   5.281 -1.9165  0.6594  3.0274
   96MOL   H20734597   3.393   6.795   5.238 -0.0326  0.2735 -0.8248
   96MOL   H20834598   3.440   6.775   5.502  0.5446  0.2218 -0.5724
   96MOL   H20934599   3.153   6.692   5.515 -0.1655 -0.3890  0.9203
   96MOL   H21034600   3.284   6.574   5.524  1.7377 -0.0765  2.2292
   96MOL   H21134601   3.330   6.796   5.713 -0.8702  1.6653 -0.6121
   96MOL   H21234602   3.098   6.607   5.772 -1.7317  1.5962  1.9031
   96MOL   H21334603   3.084   6.774   5.736 -0.9752  0.0695  0.3081
   96MOL   H21434604   3.169   6.720   5.879 -2.9095  1.5615  0.3566
   96MOL   H21534605   3.474   6.598   5.695  2.1324  0.4138  2.0062
   96MOL   H21634606   3.324   6.497   5.747 -0.9984  1.4432  0.6621
   96MOL   H21734607   3.404   6.604   5.855  0.9992 -1.0812 -0.6399
   96MOL   C21834608   3.284   6.912   5.451  1.1714  0.7253 -0.4824
   96MOL   C21934609   3.364   7.026   5.381  0.0964 -0.1377 -0.2829
   96MOL   C22034610   3.507   7.028   5.433  0.0696  0.1923 -0.1205
   96MOL   C22134611   3.601   7.120   5.346 -0.4103 -0.6212 -0.6923
   96MOL   C22234612   3.746   7.108   5.381 -0.1480  0.2392 -0.0352
   96MOL   C22334613   3.581   7.126   5.194 -0.2862  0.1090 -0.2004
   96MOL   H22434614   3.186   6.905   5.404  0.6295 -1.3541  0.9011
   96MOL   H22534615   3.265   6.944   5.553 -1.7473 -0.9198 -0.4311
   96MOL   H22634616   3.376   7.012   5.274  0.4104 -2.7879  0.0574
   96MOL   H22734617   3.508   7.062   5.537  0.7787 -1.0542  0.2912
   96MOL   H22834618   3.558   6.932   5.443 -1.0230 -0.2539  1.4089
   96MOL   H22934619   3.588   7.220   5.388 -1.1377 -1.5813  1.4237
   96MOL   H23034620   3.774   7.004   5.365 -2.0924 -0.1826 -0.8863
   96MOL   H23134621   3.819   7.174   5.334  1.8146 -1.7931  0.1108
   96MOL   H23234622   3.761   7.120   5.488 -1.0970 -1.3097  0.2833
   96MOL   H23334623   3.563   7.036   5.135  0.4645 -0.5576  0.5781
   96MOL   H23434624   3.493   7.187   5.173  0.6896  1.8363  0.5800
   96MOL   H23534625   3.647   7.194   5.141 -2.4003  1.9365 -0.5741
   96MOL   C23634626   3.289   7.162   5.415 -0.5644 -0.3871 -0.2729
   96MOL   C23734627   3.182   7.202   5.304 -0.3283  0.8396 -0.2497
   96MOL   C23834628   3.185   7.351   5.271  0.4365 -0.2230  0.5362
   96MOL   C23934629   3.126   7.391   5.136  0.8043 -0.0770 -0.1057
   96MOL   C24034630   3.095   7.546   5.123  0.0228  0.5298 -0.2699
   96MOL   C24134631   3.204   7.350   5.013  0.3158 -0.9417  0.1884
   96MOL   H24234632   3.370   7.230   5.439 -2.0221  0.8799  1.1052
   96MOL   H24334633   3.239   7.162   5.511 -0.9772  1.0874 -0.4813
   96MOL   H24434634   3.207   7.150   5.211 -0.4106 -0.6700  0.5454
   96MOL   H24534635   3.285   7.391   5.284 -0.5104  2.2736  0.3739
   96MOL   H24634636   3.137   7.385   5.363 -1.4785 -0.2676 -0.4082
   96MOL   H24734637   3.029   7.344   5.118  1.0808 -1.0055  0.7515
   96MOL   H24834638   3.061   7.569   5.022  0.9693  1.7712 -0.3167
   96MOL   H24934639   3.185   7.607   5.122 -1.1393  2.2829 -1.3780
   96MOL   H25034640   3.025   7.593   5.193  0.4757  0.8450 -0.0243
   96MOL   H25134641   3.305   7.392   5.017 -0.7146  1.7337 -0.7712
   96MOL   H25234642   3.143   7.378   4.927 -0.5775 -1.2864  0.7092
   96MOL   H25334643   3.219   7.242   5.004 -0.3539 -1.0520  0.3651
   96MOL   C25434644   3.038   7.140   5.330 -0.2129 -0.4015  0.0515
   96MOL   C25534645   2.976   7.081   5.206  0.2196 -0.1996  0.4872
   96MOL   C25634646   3.031   6.939   5.169  1.0142  0.1932  0.0316
   96MOL   C25734647   3.008   6.880   5.024 -0.9723  0.3934  0.9024
   96MOL   C25834648   3.063   6.741   5.014  0.3924 -0.2890 -0.3082
   96MOL   C25934649   3.078   6.972   4.920  0.5244 -0.3841 -0.0197
   96MOL   H26034650   3.051   7.065   5.408 -0.9206 -0.2486  0.3175
   96MOL   H26134651   2.978   7.223   5.367  1.6632 -0.1260  2.6211
   96MOL   H26234652   2.999   7.146   5.121  0.3805 -0.4146  0.3683
   96MOL   H26334653   2.981   6.866   5.233 -0.3516  0.8827 -0.2287
   96MOL   H26434654   3.139   6.945   5.180  0.9886  0.6414  0.0482
   96MOL   H26534655   2.901   6.876   5.006 -1.0214 -1.3315  1.4778
   96MOL   H26634656   3.045   6.690   4.919 -1.4187 -0.7304  0.2464
   96MOL   H26734657   3.013   6.681   5.090  0.6239 -0.2150 -0.0978
   96MOL   H26834658   3.169   6.732   5.040 -0.1062  0.3449  2.0650
   96MOL   H26934659   3.053   6.940   4.819 -2.0454 -0.4338  0.5960
   96MOL   H27034660   3.050   7.077   4.933  0.8463 -0.2894 -0.0842
   96MOL   H27134661   3.183   6.955   4.943  0.1725 -0.3255  1.7177
   96MOL   C27234662   2.822   7.074   5.223 -0.2890 -0.1168  0.0430
   96MOL   C27334663   2.743   7.199   5.175  0.2909 -0.1223  0.1480
   96MOL   C27434664   2.728   7.203   5.020  0.5628  0.0071 -0.3313
   96MOL   C27534665   2.672   7.326   4.954  0.3700  0.1915 -0.2047
   96MOL   C27634666   2.628   7.309   4.806 -0.1094 -0.2366 -0.2512
   96MOL   C27734667   2.759   7.455   4.965 -0.0811 -0.4553 -0.0602
   96MOL   H27834668   2.772   6.986   5.183 -1.8287  0.9300 -0.3804
   96MOL   H27934669   2.800   7.067   5.330  0.5657  1.0756  0.3018
   96MOL   H28034670   2.795   7.288   5.210  0.3721 -0.7836  1.7415
   96MOL   H28134671   2.659   7.122   4.995 -2.7890  2.0598  1.7611
   96MOL   H28234672   2.820   7.171   4.971  1.7987  1.2782  1.0934
   96MOL   H28334673   2.587   7.365   5.011  0.1887 -0.5136  0.0076
   96MOL   H28434674   2.627   7.398   4.742  0.6662 -0.5831 -0.7646
   96MOL   H28534675   2.703   7.249   4.754  0.9135  0.5488  0.2899
   96MOL   H28634676   2.537   7.253   4.786 -0.8472  0.8936 -0.1069
   96MOL   H28734677   2.853   7.445   4.911  0.6545  5.3739 -0.2479
   96MOL   H28834678   2.708   7.545   4.928  0.8645 -0.2900 -0.9782
   96MOL   H28934679   2.780   7.465   5.071  0.2190 -2.8066  0.1111
   96MOL   C29034680   2.599   7.202   5.250 -0.6665 -0.4004  0.0345
   96MOL   C29134681   2.521   7.068   5.286  0.3374  0.1811 -0.2266
   96MOL   C29234682   2.427   7.089   5.410  0.1844 -0.0710  0.0320
   96MOL   C29334683   2.482   7.144   5.547  0.1092  0.5400 -0.3106
   96MOL   C29434684   2.371   7.125   5.649 -0.2595 -0.1211  0.0285
   96MOL   C29534685   2.599   7.065   5.593 -0.1844  0.2673  0.5292
   96MOL   H29634686   2.612   7.263   5.340 -0.4917  1.0081 -0.9184
   96MOL   H29734687   2.532   7.267   5.195 -0.8778  0.4344  1.2441
   96MOL   H29834688   2.592   6.997   5.328  2.5633  1.1571 -2.2660
   96MOL   H29934689   2.379   6.994   5.434  0.7258 -0.5401 -0.7398
   96MOL   H30034690   2.343   7.154   5.384  1.1497  2.2210  2.3274
   96MOL   H30134691   2.499   7.252   5.548 -0.7156  0.6642  1.6090
   96MOL   H30234692   2.392   7.149   5.753 -1.5575 -1.9051  0.7297
   96MOL   H30334693   2.347   7.018   5.647 -0.3293 -0.1306  0.9601
   96MOL   H30434694   2.285   7.187   5.624  2.0467  2.6226 -1.4011
   96MOL   H30534695   2.570   6.964   5.624  3.4288 -1.9358 -2.8303
   96MOL   H30634696   2.654   7.093   5.683  1.1049 -1.4157  0.2835
   96MOL   H30734697   2.686   7.064   5.529  0.5040  4.0609  1.2679
   96MOL   C30834698   2.433   7.010   5.172  0.3424 -0.1107 -0.6881
   96MOL   C30934699   2.371   6.867   5.176  0.8138  0.3760  0.1742
   96MOL   C31034700   2.269   6.838   5.065  0.1178 -0.3919  0.2159
   96MOL   C31134701   2.142   6.911   5.071  0.3131 -0.1103  0.2839
   96MOL   C31234702   2.061   6.889   4.942  0.1158 -0.5086 -0.0998
   96MOL   C31334703   2.062   6.869   5.198 -0.6508 -0.1334 -0.1977
   96MOL   H31434704   2.353   7.084   5.169  2.4021  2.3743  2.2113
   96MOL   H31534705   2.482   7.036   5.079 -2.4164  2.0533 -1.6423
   96MOL   H31634706   2.315   6.860   5.269 -0.4283  0.2899 -0.5678
   96MOL   H31734707   2.250   6.730   5.066 -1.9528 -0.0259  1.4173
   96MOL   H31834708   2.310   6.840   4.964  0.7529 -0.9762  0.4542
   96MOL   H31934709   2.153   7.019   5.081 -0.5358  0.0810 -0.7232
   96MOL   H32034710   2.113   6.930   4.856 -0.7603  0.8859  0.0219
   96MOL   H32134711   1.976   6.957   4.948 -0.4946 -1.2945  0.2485
   96MOL   H32234712   2.028   6.786   4.924 -0.5725 -0.4267  0.6410
   96MOL   H32334713   2.057   6.761   5.207  1.2745 -0.2261 -0.0882
   96MOL   H32434714   2.105   6.915   5.287 -1.4404  0.7129 -0.2384
   96MOL   H32534715   1.963   6.911   5.181  0.3252  2.2033 -0.2800
   96MOL   C32634716   2.487   6.759   5.173  0.6522 -0.1504  0.1606
   96MOL   C32734717   2.490   6.680   5.307 -0.6883 -0.5004 -0.2734
   96MOL   C32834718   2.623   6.605   5.319 -0.5974 -0.0893  0.2634
   96MOL   C32934719   2.715   6.663   5.421 -0.4629 -0.3812  0.1676
   96MOL   C33034720   2.655   6.679   5.570  0.6805 -0.5770  0.1205
   96MOL   C33134721   2.843   6.583   5.414 -0.2581 -0.6821 -0.2982
   96MOL   H33234722   2.581   6.812   5.159  1.3851 -1.4680 -0.0538
   96MOL   H33334723   2.476   6.695   5.085 -1.0041  2.1354 -1.3347
   96MOL   H33434724   2.492   6.760   5.380  1.0412 -0.2689 -0.5587
   96MOL   H33534725   2.605   6.498   5.325 -1.4434  0.0532  0.3819
   96MOL   H33634726   2.670   6.604   5.221 -1.6533  1.2337 -0.2762
   96MOL   H33734727   2.733   6.763   5.380  1.3500  0.2268  2.3349
   96MOL   H33834728   2.720   6.733   5.638 -0.7508 -0.0674  1.1000
   96MOL   H33934729   2.647   6.583   5.621  1.9036 -0.4344  0.5954
   96MOL   H34034730   2.569   6.743   5.588  1.3377  0.1432  0.6852
   96MOL   H34134731   2.890   6.584   5.315 -1.3333  1.1950 -0.7986
   96MOL   H34234732   2.919   6.612   5.486  1.6640  0.7181 -2.7737
   96MOL   H34334733   2.817   6.480   5.439 -1.0777  0.0740  2.0368
   96MOL   C34434734   2.360   6.595   5.329  0.6197 -0.3471  0.6716
   96MOL   C34534735   2.356   6.519   5.473 -0.0274 -0.9520 -0.1631
   96MOL   C34634736   2.246   6.422   5.501  0.1981  0.1023  0.3419
   96MOL   C34734737   2.244   6.374   5.651 -0.9473  0.0535  0.2497
   96MOL   C34834738   2.378   6.357   5.715  0.7272 -0.2076  0.1389
   96MOL   C34934739   2.163   6.240   5.677  0.3544  0.6707  0.1235
   96MOL   H35034740   2.372   6.510   5.262  1.4751 -0.9870  1.6299
   96MOL   H35134741   2.267   6.649   5.311  0.2154 -1.3172 -0.2254
   96MOL   H35234742   2.335   6.597   5.546  1.8253  1.6099 -2.2799
   96MOL   H35334743   2.151   6.463   5.467  0.2402 -0.2860 -0.2492
   96MOL   H35434744   2.272   6.334   5.442  0.7076 -0.2488  1.0725
   96MOL   H35534745   2.193   6.460   5.694 -0.1974  0.7518 -0.2387
   96MOL   H35634746   2.375   6.314   5.815 -1.9405 -1.9235 -0.6263
   96MOL   H35734747   2.444   6.294   5.655  1.4603  0.3837  0.3171
   96MOL   H35834748   2.442   6.444   5.726 -1.3995  1.5709 -1.0392
   96MOL   H35934749   2.061   6.261   5.644 -0.9602 -3.5049  1.2403
   96MOL   H36034750   2.147   6.217   5.782  1.7130  0.7743  0.3609
   96MOL   H36134751   2.194   6.154   5.618 -2.2232  1.0104 -1.8607
   96MOL   H36234752   2.455   6.480   5.494  0.1687 -0.8673 -0.9112
   97MOL     C134753   5.663   6.359   2.239  0.0865 -0.1676  0.7306
   97MOL     C234754   5.525   6.306   2.184  0.5607 -0.8307  0.5553
   97MOL     C334755   5.494   6.356   2.040 -0.3040  0.2523 -0.2067
   97MOL     C434756   5.604   6.332   1.933  0.1257  0.3214 -0.2855
   97MOL     C534757   5.610   6.452   1.833  0.0533  0.1794  0.2017
   97MOL     C634758   5.570   6.204   1.859 -0.5097  0.0952 -0.1576
   97MOL     H734759   5.672   6.341   2.347  1.3498  0.2215  0.6987
   97MOL     H834760   5.755   6.314   2.202  0.0238  1.5751 -1.6202
   97MOL     H934761   5.537   6.198   2.180  0.5125 -0.7649 -2.5274
   97MOL    H1034762   5.401   6.309   2.006  0.3696 -0.2691 -1.3254
   97MOL    H1134763   5.472   6.463   2.043 -0.3505  0.3525 -3.3237
   97MOL    H1234764   5.704   6.320   1.977 -0.6084 -2.0431  0.8280
   97MOL    H1334765   5.635   6.542   1.889  0.7263  0.5821 -0.7181
   97MOL    H1434766   5.681   6.433   1.752  0.0855 -0.1652  0.3126
   97MOL    H1534767   5.516   6.471   1.781 -1.6178 -0.3449  2.9361
   97MOL    H1634768   5.634   6.192   1.771  0.1773 -0.1369  0.3690
   97MOL    H1734769   5.468   6.205   1.821 -0.2696  0.1270 -0.8129
   97MOL    H1834770   5.576   6.116   1.923 -1.5305  1.3342  1.6838
   97MOL    H1934771   5.673   6.468   2.242  0.9275 -0.2551  2.0704
   97MOL    C2034772   5.402   6.357   2.276 -0.0207  0.5056 -0.3546
   97MOL    C2134773   5.385   6.298   2.419  0.0741  0.2927  0.4945
   97MOL    C2234774   5.292   6.389   2.503  0.4128  0.0775  0.3709
   97MOL    C2334775   5.367   6.509   2.564 -0.0254  0.2241 -0.4583
   97MOL    C2434776   5.276   6.627   2.576 -0.2804 -0.2624  0.0394
   97MOL    C2534777   5.441   6.470   2.691 -0.1576 -0.2037 -0.2289
   97MOL    H2634778   5.415   6.464   2.283  1.0570  0.2724  1.2734
   97MOL    H2734779   5.312   6.342   2.215  1.0043  0.6070 -1.9357
   97MOL    H2834780   5.478   6.309   2.474  0.0117  1.9393  0.3101
   97MOL    H2934781   5.241   6.338   2.585 -0.0623 -1.4116 -0.8350
   97MOL    H3034782   5.214   6.424   2.435  0.9514  1.2871  0.3657
   97MOL    H3134783   5.437   6.547   2.490  0.0972  3.0134  1.0332
   97MOL    H3234784   5.326   6.702   2.637 -1.2711  0.5079 -0.0774
   97MOL    H3334785   5.182   6.614   2.630  0.2653  1.1162  1.3515
   97MOL    H3434786   5.256   6.672   2.478  0.1215  1.9354  0.9251
   97MOL    H3534787   5.388   6.427   2.775  1.8556  0.2384  1.3038
   97MOL    H3634788   5.511   6.395   2.655 -0.0610  0.1369 -0.7602
   97MOL    H3734789   5.499   6.556   2.727 -0.5407  0.0248 -0.1573
   97MOL    C3834790   5.342   6.152   2.420  0.1462 -0.1906 -0.2586
   97MOL    C3934791   5.382   6.079   2.551  0.4982  0.5808 -0.1418
   97MOL    C4034792   5.527   6.039   2.541 -1.0358 -0.4833 -0.9574
   97MOL    C4134793   5.598   6.016   2.678  0.1195  0.5324  0.5645
   97MOL    C4234794   5.631   6.140   2.755 -0.2611  0.1975  0.4199
   97MOL    C4334795   5.718   5.922   2.664 -0.2133 -0.0670 -0.2792
   97MOL    H4434796   5.373   6.094   2.333 -0.3347 -1.8842  0.6638
   97MOL    H4534797   5.233   6.147   2.427  0.1472  1.1384  0.9904
   97MOL    H4634798   5.362   6.153   2.628  1.0823 -1.0837  1.6330
   97MOL    H4734799   5.580   6.120   2.492  0.7103 -0.8860  0.2247
   97MOL    H4834800   5.528   5.952   2.475 -0.1934 -0.5289 -0.8967
   97MOL    H4934801   5.532   5.959   2.743  1.9617 -1.7922  0.4868
   97MOL    H5034802   5.709   6.194   2.701 -0.1440 -0.6600 -0.2786
   97MOL    H5134803   5.542   6.194   2.787 -2.0758 -1.7433 -1.2225
   97MOL    H5234804   5.676   6.108   2.850  1.1099  1.7123  0.3026
   97MOL    H5334805   5.781   5.928   2.753  1.7417  0.7528 -1.6957
   97MOL    H5434806   5.776   5.946   2.575 -0.2764  0.1371 -0.2660
   97MOL    H5534807   5.686   5.819   2.648 -2.0792  0.5663 -0.8022
   97MOL    C5634808   5.296   5.959   2.586 -0.6296  0.5434  0.0628
   97MOL    C5734809   5.168   5.989   2.673  0.0022  0.6629  0.9656
   97MOL    C5834810   5.210   6.033   2.819 -0.6035 -0.3107  0.7167
   97MOL    C5934811   5.106   6.125   2.895 -0.0573 -0.6122 -0.2134
   97MOL    C6034812   5.087   6.261   2.832  0.1353 -0.1590  0.1149
   97MOL    C6134813   5.128   6.124   3.048 -0.0343 -0.1465  0.3889
   97MOL    H6234814   5.357   5.881   2.632  1.2185  1.9143  0.0000
   97MOL    H6334815   5.266   5.918   2.490 -0.5029 -0.7517  0.5717
   97MOL    H6434816   5.120   6.077   2.629  0.2619 -0.7414 -2.2023
   97MOL    H6534817   5.236   5.945   2.877 -0.5090 -1.3597 -0.8717
   97MOL    H6634818   5.300   6.093   2.822 -0.6913 -0.2025  1.1529
   97MOL    H6734819   5.012   6.071   2.882 -0.2588 -0.0783 -1.0055
   97MOL    H6834820   5.001   6.309   2.877  0.3083  0.5188 -0.2649
   97MOL    H6934821   5.075   6.270   2.724  0.9914  0.9904  0.1075
   97MOL    H7034822   5.165   6.332   2.862  0.4631 -1.0140  1.3373
   97MOL    H7134823   5.146   6.025   3.090  0.4875 -0.5260 -0.7162
   97MOL    H7234824   5.037   6.150   3.101 -0.9581 -2.0046 -0.2572
   97MOL    H7334825   5.219   6.179   3.074 -1.8252  2.6016  1.0271
   97MOL    C7434826   5.076   5.869   2.681 -0.1670  0.8464  0.3798
   97MOL    C7534827   5.009   5.821   2.553 -0.0380  0.0595  0.3527
   97MOL    C7634828   4.919   5.927   2.488  0.0848  0.3747  0.3504
   97MOL    C7734829   4.865   5.883   2.351  0.6399  0.3594 -0.5888
   97MOL    C7834830   4.955   5.864   2.228 -0.1779 -0.7005  0.5427
   97MOL    C7934831   4.745   5.974   2.315  0.4266  0.3352  0.9097
   97MOL    H8034832   4.994   5.912   2.739 -1.1516 -0.4921 -0.0129
   97MOL    H8134833   5.117   5.786   2.737 -1.1556  0.1168  0.0241
   97MOL    H8234834   5.091   5.809   2.481  1.8336  0.6639  2.3065
   97MOL    H8334835   4.832   5.953   2.549  2.5783 -0.0714  4.2116
   97MOL    H8434836   4.983   6.015   2.485  1.0983 -0.3577  0.3646
   97MOL    H8534837   4.826   5.782   2.366 -0.7419  1.0406  0.4763
   97MOL    H8634838   5.038   5.794   2.239  1.9272  0.8404 -4.3115
   97MOL    H8734839   4.993   5.961   2.195 -1.7439 -0.9261 -2.0319
   97MOL    H8834840   4.903   5.824   2.141  2.9618 -1.9273 -0.8413
   97MOL    H8934841   4.701   5.947   2.218  1.2773 -0.0728  0.6318
   97MOL    H9034842   4.661   5.953   2.381 -0.8070  0.9245 -0.4531
   97MOL    H9134843   4.765   6.079   2.332 -1.2208  0.3384  3.0191
   97MOL    C9234844   4.926   5.689   2.582  0.3048 -0.1739 -0.0969
   97MOL    C9334845   4.982   5.570   2.493  0.3943 -1.3133 -0.2229
   97MOL    C9434846   5.133   5.538   2.519 -0.0335 -0.1850 -0.7721
   97MOL    C9534847   5.202   5.467   2.395  0.5969 -0.2566  0.0921
   97MOL    C9634848   5.207   5.553   2.264  0.2387 -0.3555  0.4474
   97MOL    C9734849   5.350   5.428   2.432  0.6209 -0.3540  0.2699
   97MOL    H9834850   4.944   5.642   2.679  0.9508  1.0421  0.3797
   97MOL    H9934851   4.818   5.698   2.572  0.3714  0.2221 -0.5024
   97MOL   H10034852   4.965   5.602   2.390 -2.5458 -0.7851  0.3751
   97MOL   H10134853   5.138   5.479   2.610 -4.0873 -2.6415 -1.9971
   97MOL   H10234854   5.192   5.625   2.548  1.6983 -2.0402  1.4485
   97MOL   H10334855   5.148   5.376   2.369  1.4710 -0.5259 -0.8151
   97MOL   H10434856   5.282   5.520   2.192  0.9973  1.0322  0.5931
   97MOL   H10534857   5.235   5.655   2.288  0.1654 -0.0289 -0.8136
   97MOL   H10634858   5.107   5.552   2.220  0.6986  0.7976 -0.6551
   97MOL   H10734859   5.351   5.359   2.516  1.2714  0.0868  0.6251
   97MOL   H10834860   5.405   5.516   2.465 -1.6227  1.8102 -1.5364
   97MOL   H10934861   5.400   5.380   2.349  1.5474  1.2314 -0.1043
   97MOL   C11034862   4.890   5.444   2.514 -0.2364 -0.0958  0.0235
   97MOL   C11134863   4.746   5.458   2.464  0.6156  0.3303  0.5567
   97MOL   C11234864   4.744   5.421   2.311 -0.4188 -0.3846 -0.2171
   97MOL   C11334865   4.624   5.485   2.225 -0.4403 -0.1157  0.5933
   97MOL   C11434866   4.616   5.426   2.081 -0.3033  0.0779  0.2018
   97MOL   C11534867   4.620   5.635   2.206  0.0459  0.0665  0.4230
   97MOL   H11634868   4.898   5.412   2.618  0.6085 -1.3539 -0.4085
   97MOL   H11734869   4.945   5.359   2.474  0.5599  0.7974 -0.8176
   97MOL   H11834870   4.704   5.556   2.488  1.1378  0.7168 -0.0918
   97MOL   H11934871   4.737   5.312   2.301 -2.0070 -0.2534 -0.5989
   97MOL   H12034872   4.839   5.452   2.269 -0.2083 -0.0623  0.4832
   97MOL   H12134873   4.537   5.475   2.289 -0.6586  0.2408  0.3575
   97MOL   H12234874   4.603   5.319   2.065  0.2457 -0.1057  0.9596
   97MOL   H12334875   4.709   5.453   2.031 -1.8097  4.2712 -0.4831
   97MOL   H12434876   4.550   5.481   2.014 -1.0835 -0.6296  0.3816
   97MOL   H12534877   4.705   5.677   2.152  1.1905 -2.4342  0.1983
   97MOL   H12634878   4.622   5.676   2.307 -0.3761  0.4767  0.2688
   97MOL   H12734879   4.528   5.667   2.158  1.6913  1.1777 -2.1275
   97MOL   C12834880   4.643   5.358   2.527  0.3458  0.4084  0.6188
   97MOL   C12934881   4.595   5.370   2.673 -0.3513 -0.6969  0.2372
   97MOL   C13034882   4.492   5.258   2.710 -0.3160  0.1512 -0.0003
   97MOL   C13134883   4.534   5.115   2.673  0.6705 -0.0065  0.0437
   97MOL   C13234884   4.670   5.063   2.719 -0.8960  0.2313 -0.7805
   97MOL   C13334885   4.422   5.015   2.709  0.3542  0.0314  0.1667
   97MOL   H13434886   4.683   5.258   2.515  0.4647  0.7781 -2.1836
   97MOL   H13534887   4.551   5.351   2.468  1.9928 -0.6114 -1.8721
   97MOL   H13634888   4.686   5.356   2.731  0.7723 -0.6599 -1.4961
   97MOL   H13734889   4.472   5.260   2.817 -2.6356 -0.4948 -0.3772
   97MOL   H13834890   4.399   5.265   2.653 -0.6467 -0.3133  0.4699
   97MOL   H13934891   4.535   5.115   2.564 -0.7963 -0.6975  0.0188
   97MOL   H14034892   4.694   4.964   2.678 -0.0024  0.6746 -1.3338
   97MOL   H14134893   4.667   5.055   2.828 -2.2066 -0.6601 -0.8702
   97MOL   H14234894   4.756   5.122   2.687 -0.4015 -0.4389 -0.7105
   97MOL   H14334895   4.411   5.002   2.817  0.0237  1.1789  0.2813
   97MOL   H14434896   4.330   5.054   2.668 -0.1669 -2.3897 -1.0107
   97MOL   H14534897   4.453   4.922   2.663 -0.5094 -1.1412  1.9040
   97MOL   C14634898   4.535   5.507   2.695  0.2437  0.0963 -0.0284
   97MOL   C14734899   4.467   5.537   2.832 -0.2162  0.5894  0.4759
   97MOL   C14834900   4.367   5.651   2.833 -0.7354 -0.0094 -0.4363
   97MOL   C14934901   4.246   5.642   2.735  0.2705  0.1835  0.0541
   97MOL   C15034902   4.171   5.510   2.737  0.9919 -0.4385  0.3089
   97MOL   C15134903   4.151   5.757   2.745  0.6210  0.6176  0.3090
   97MOL   H15234904   4.461   5.524   2.617 -0.5938  1.0215  0.9605
   97MOL   H15334905   4.614   5.581   2.679  1.4301 -0.9104  0.9546
   97MOL   H15434906   4.395   5.459   2.856 -0.8427  1.1856  0.5153
   97MOL   H15534907   4.319   5.672   2.929 -1.5859  2.9383 -1.4745
   97MOL   H15634908   4.420   5.741   2.802 -2.0456  1.2750  1.0095
   97MOL   H15734909   4.298   5.644   2.639  1.2651 -1.6512  0.5404
   97MOL   H15834910   4.232   5.428   2.700  1.3257 -0.9301  1.9054
   97MOL   H15934911   4.074   5.517   2.687  2.4099 -1.4664 -2.6719
   97MOL   H16034912   4.140   5.468   2.834 -1.3926  1.2020  0.3105
   97MOL   H16134913   4.099   5.770   2.840  1.4800 -1.1078  1.0384
   97MOL   H16234914   4.071   5.742   2.673  1.4972  2.8677 -1.1607
   97MOL   H16334915   4.196   5.852   2.717  1.5356  0.5892  1.6546
   97MOL   C16434916   4.570   5.558   2.950 -0.0518 -0.3688  0.1201
   97MOL   C16534917   4.517   5.502   3.091  0.2269 -0.2596  0.2458
   97MOL   C16634918   4.561   5.353   3.109 -0.1449 -0.3693  0.1362
   97MOL   C16734919   4.432   5.270   3.125 -0.1631 -0.1132  0.0529
   97MOL   C16834920   4.475   5.121   3.132 -0.7056  0.4372 -0.3185
   97MOL   C16934921   4.354   5.302   3.254 -0.1145  0.1548 -0.1505
   97MOL   H17034922   4.669   5.515   2.940 -0.1767 -0.7951  0.6797
   97MOL   H17134923   4.593   5.664   2.955 -0.5548 -0.2860  0.7112
   97MOL   H17234924   4.409   5.515   3.100  0.0619 -2.3135  1.5477
   97MOL   H17334925   4.621   5.324   3.022 -0.3811  0.3071 -0.2590
   97MOL   H17434926   4.620   5.332   3.198  1.3174  2.6027 -0.0708
   97MOL   H17534927   4.367   5.285   3.039 -1.8399 -1.7331  0.9984
   97MOL   H17634928   4.561   5.107   3.197 -0.6524 -0.4237 -0.5607
   97MOL   H17734929   4.514   5.091   3.034  2.0155  0.0259  0.8524
   97MOL   H17834930   4.401   5.046   3.162  0.9121 -1.3513 -0.7165
   97MOL   H17934931   4.271   5.233   3.270 -0.2860  0.4739  0.3521
   97MOL   H18034932   4.310   5.400   3.273  0.6730  0.2264  1.3533
   97MOL   H18134933   4.427   5.283   3.332 -2.1803  1.3405  2.1302
   97MOL   C18234934   4.587   5.586   3.200  0.4750  0.7400  0.0008
   97MOL   C18334935   4.530   5.735   3.221 -0.3524  0.7778 -0.1983
   97MOL   C18434936   4.413   5.730   3.327 -1.1519  0.2583 -0.1057
   97MOL   C18534937   4.346   5.864   3.358 -0.2599 -0.9149  1.2355
   97MOL   C18634938   4.269   5.922   3.240 -0.2253 -0.7004 -0.4213
   97MOL   C18734939   4.250   5.851   3.472  0.3823  0.5346  0.4764
   97MOL   H18834940   4.694   5.568   3.185  0.3006 -2.6263  2.3515
   97MOL   H18934941   4.566   5.545   3.298  2.7471  0.5072  0.4132
   97MOL   H19034942   4.490   5.774   3.127  0.1228 -1.0398 -1.1796
   97MOL   H19134943   4.453   5.686   3.418  0.2069  2.2548  0.3072
   97MOL   H19234944   4.339   5.655   3.298  0.3261 -0.6743 -1.5293
   97MOL   H19334945   4.426   5.929   3.393  1.5941 -3.2312  1.4351
   97MOL   H19434946   4.199   5.859   3.184  1.3136  0.5169 -3.8345
   97MOL   H19534947   4.335   5.951   3.158 -0.5940 -3.1800 -1.6459
   97MOL   H19634948   4.216   6.014   3.265  0.1358 -0.6351  0.1073
   97MOL   H19734949   4.186   5.938   3.487  2.3683  2.4108 -1.5680
   97MOL   H19834950   4.296   5.832   3.570 -0.0608 -0.7798  0.4455
   97MOL   H19934951   4.183   5.768   3.450  0.8048  0.0708  0.9104
   97MOL   C20034952   4.644   5.822   3.267  0.6338 -0.4468 -0.3242
   97MOL   C20134953   4.759   5.844   3.158  0.1115 -0.3181  0.9459
   97MOL   C20234954   4.900   5.789   3.200 -0.1022  0.1877  0.3192
   97MOL   C20334955   5.002   5.769   3.087 -0.2921 -0.4280  0.6615
   97MOL   C20434956   5.117   5.703   3.162 -0.2517 -0.6648  0.3766
   97MOL   C20534957   4.961   5.684   2.970 -0.1115 -0.1998  0.0774
   97MOL   H20634958   4.691   5.766   3.348  1.1092  0.0066 -0.2845
   97MOL   H20734959   4.602   5.915   3.307  0.5219 -0.6332 -0.0022
   97MOL   H20834960   4.736   5.791   3.066  0.5978  2.2370 -0.7102
   97MOL   H20934961   4.944   5.843   3.284  1.8085 -1.1680  0.2118
   97MOL   H21034962   4.890   5.687   3.238  3.0248 -1.6019 -3.3751
   97MOL   H21134963   5.029   5.869   3.053 -1.1176 -0.0870  0.9980
   97MOL   H21234964   5.160   5.766   3.240  0.3640  0.7308 -1.0857
   97MOL   H21334965   5.197   5.665   3.098 -0.0158  1.2731 -0.4854
   97MOL   H21434966   5.075   5.622   3.223  1.2307 -0.7684  1.2794
   97MOL   H21534967   5.047   5.657   2.908  0.1765  1.8841 -0.4667
   97MOL   H21634968   4.895   5.741   2.904  1.7169  0.3893 -1.2853
   97MOL   H21734969   4.924   5.585   2.998 -2.0841  0.7194  0.8286
   97MOL   C21834970   4.771   5.999   3.143 -0.0461  0.2018 -0.1087
   97MOL   C21934971   4.658   6.082   3.068  0.5279 -0.3622  0.0687
   97MOL   C22034972   4.653   6.053   2.916 -0.7254 -0.3144 -0.2686
   97MOL   C22134973   4.533   6.101   2.836  0.2659 -0.0188  0.0767
   97MOL   C22234974   4.551   6.057   2.686 -0.0832 -0.0755 -0.5302
   97MOL   C22334975   4.404   6.048   2.903 -0.1422 -0.8542 -0.2958
   97MOL   H22434976   4.787   6.034   3.245 -1.1113  2.8381 -0.7935
   97MOL   H22534977   4.863   6.020   3.087 -0.0958 -0.0950 -0.3057
   97MOL   H22634978   4.565   6.047   3.113  0.4795 -0.3794 -0.0441
   97MOL   H22734979   4.729   6.109   2.862 -2.3214  0.2325 -2.0125
   97MOL   H22834980   4.671   5.948   2.897  2.0992 -0.1322  1.2449
   97MOL   H22934981   4.533   6.210   2.844 -1.6168  0.1448 -1.7363
   97MOL   H23034982   4.469   6.093   2.624  1.2248 -1.2245 -3.0124
   97MOL   H23134983   4.648   6.092   2.649  0.6193 -1.7732 -0.3495
   97MOL   H23234984   4.545   5.949   2.674  1.5119 -0.2872  0.3978
   97MOL   H23334985   4.337   6.060   2.818 -0.4518  2.1598  0.3329
   97MOL   H23434986   4.398   5.946   2.942  3.4663 -1.4171 -1.0235
   97MOL   H23534987   4.360   6.123   2.969 -0.3147 -0.4130 -0.9029
   97MOL   C23634988   4.673   6.235   3.108  0.7131  0.4854  0.4977
   97MOL   C23734989   4.663   6.272   3.255  0.7006  0.6097  0.4431
   97MOL   C23834990   4.539   6.363   3.289  0.6278  0.3031 -0.4532
   97MOL   C23934991   4.401   6.308   3.249  0.0431  0.2266  0.4592
   97MOL   C24034992   4.300   6.305   3.362 -0.4083 -0.3594 -0.6200
   97MOL   C24134993   4.341   6.383   3.132 -0.1289  0.3295  0.4879
   97MOL   H24234994   4.597   6.284   3.048  1.1935  1.2725  0.5230
   97MOL   H24334995   4.756   6.270   3.046  0.0881  0.6216 -0.2573
   97MOL   H24434996   4.635   6.181   3.307  3.6779 -0.7821 -0.2925
   97MOL   H24534997   4.554   6.459   3.239  0.4453 -0.1255 -1.3436
   97MOL   H24634998   4.543   6.380   3.396  0.8685  0.7305 -0.5312
   97MOL   H24734999   4.416   6.204   3.220 -1.1972  0.8667 -2.5993
   97MOL   H24835000   4.201   6.286   3.322 -0.6015 -0.9407  0.1245
   97MOL   H24935001   4.309   6.399   3.417  1.6378 -0.6563 -0.4013
   97MOL   H25035002   4.318   6.228   3.437 -0.6078  0.5371  0.3651
   97MOL   H25135003   4.387   6.368   3.035 -0.8731  1.0204  0.0173
   97MOL   H25235004   4.331   6.487   3.164 -0.9349  0.0643  1.0978
   97MOL   H25335005   4.239   6.348   3.114 -0.3782  2.8453 -3.4996
   97MOL   C25435006   4.788   6.348   3.299  0.8148 -0.3286  0.2214
   97MOL   C25535007   4.829   6.325   3.446 -0.2961 -0.0753  0.1642
   97MOL   C25635008   4.826   6.178   3.495 -0.3765 -0.0254 -0.0731
   97MOL   C25735009   4.878   6.150   3.635 -0.3578  0.1418  0.6505
   97MOL   C25835010   4.851   6.003   3.674  0.1622 -0.1711 -0.0247
   97MOL   C25935011   4.825   6.238   3.754  0.1789  0.6489  0.6938
   97MOL   H26035012   4.874   6.324   3.238 -0.0372 -0.7262 -0.8304
   97MOL   H26135013   4.763   6.448   3.263 -0.0264 -0.5296  0.2242
   97MOL   H26235014   4.752   6.369   3.509 -0.6637  0.7110 -0.8057
   97MOL   H26335015   4.884   6.118   3.425  0.8204 -1.0595  1.7449
   97MOL   H26435016   4.722   6.147   3.503  0.3654 -2.7443 -0.7578
   97MOL   H26535017   4.986   6.167   3.634 -0.4392  0.6893  0.5366
   97MOL   H26635018   4.876   5.941   3.589 -1.3452  2.1312 -2.2313
   97MOL   H26735019   4.753   5.981   3.718 -1.0698  1.7708 -1.6759
   97MOL   H26835020   4.921   5.977   3.753  0.9473 -0.8112 -0.9382
   97MOL   H26935021   4.873   6.196   3.843  3.7227  0.1963 -1.3012
   97MOL   H27035022   4.845   6.345   3.751  0.1276  0.6886  1.6508
   97MOL   H27135023   4.718   6.222   3.763  0.5558 -2.5455  0.2842
   97MOL   C27235024   4.976   6.391   3.463  0.3228 -0.3772 -0.2623
   97MOL   C27335025   4.976   6.544   3.430  0.0239 -0.5681  0.2680
   97MOL   C27435026   4.864   6.616   3.506 -0.3215 -0.6560 -0.2977
   97MOL   C27535027   4.855   6.768   3.481  0.4745 -0.2124  0.3298
   97MOL   C27635028   4.765   6.843   3.582  0.0775  0.1610  0.4455
   97MOL   C27735029   4.820   6.813   3.340  0.6385 -0.7922 -0.0795
   97MOL   H27835030   5.018   6.377   3.563 -1.0731  3.7584  0.9998
   97MOL   H27935031   5.041   6.333   3.397 -1.1536  1.4517 -3.4578
   97MOL   H28035032   4.958   6.570   3.326  0.3704 -2.2355 -0.2248
   97MOL   H28135033   4.866   6.609   3.615 -0.0271  0.8752 -0.1977
   97MOL   H28235034   4.768   6.576   3.473 -0.7275  1.1147 -1.2843
   97MOL   H28335035   4.957   6.799   3.506  0.4819 -0.6904  0.9183
   97MOL   H28435036   4.663   6.849   3.543  0.2602  1.6115  0.1618
   97MOL   H28535037   4.761   6.786   3.674  0.6285  0.1373  0.4521
   97MOL   H28635038   4.809   6.939   3.607  0.5893 -0.1374  0.6774
   97MOL   H28735039   4.761   6.735   3.293  0.9271 -2.0963  1.6696
   97MOL   H28835040   4.759   6.904   3.343  1.8283 -0.0261  1.9018
   97MOL   H28935041   4.913   6.837   3.289 -0.6224  2.7228 -0.8923
   97MOL   C29035042   5.120   6.598   3.462 -0.3071 -0.4632 -0.4205
   97MOL   C29135043   5.215   6.572   3.350 -0.2107  0.1973 -0.4081
   97MOL   C29235044   5.202   6.674   3.236  0.5264 -0.0348 -0.0107
   97MOL   C29335045   5.286   6.648   3.107  0.1431 -0.0267 -0.0023
   97MOL   C29435046   5.250   6.510   3.046  0.4716  0.1480  0.5558
   97MOL   C29535047   5.270   6.763   3.005 -0.2943  0.7718  0.1286
   97MOL   H29635048   5.133   6.699   3.499 -0.5016  0.4657 -2.8137
   97MOL   H29735049   5.149   6.547   3.554 -1.2385  0.3339  0.3160
   97MOL   H29835050   5.194   6.476   3.302 -2.3978 -0.0177  0.9208
   97MOL   H29935051   5.233   6.775   3.261 -0.4711  0.0494  0.8640
   97MOL   H30035052   5.105   6.663   3.188  2.0915 -2.5022 -2.8458
   97MOL   H30135053   5.388   6.629   3.139 -0.4989 -1.4902  1.2518
   97MOL   H30235054   5.308   6.501   2.954  0.4075 -2.2783  0.7042
   97MOL   H30335055   5.144   6.516   3.024  0.8019  0.1948 -1.0274
   97MOL   H30435056   5.278   6.424   3.108 -1.3628 -0.2924  0.7919
   97MOL   H30535057   5.363   6.763   2.948  0.5533  0.1110  1.4946
   97MOL   H30635058   5.252   6.864   3.042  0.1634  1.1598 -0.6985
   97MOL   H30735059   5.187   6.757   2.935  1.2537 -1.6461 -1.5816
   97MOL   C30835060   5.362   6.552   3.412  0.2501  0.5589 -0.1533
   97MOL   C30935061   5.382   6.453   3.522  0.7017  0.4894  0.0349
   97MOL   C31035062   5.474   6.332   3.475  0.4208  0.0358 -0.3373
   97MOL   C31135063   5.407   6.239   3.368 -0.5351 -0.4280 -0.1616
   97MOL   C31235064   5.528   6.179   3.285  0.2593  0.2184 -0.8312
   97MOL   C31335065   5.336   6.127   3.446 -0.6305 -0.2022  0.5378
   97MOL   H31435066   5.417   6.525   3.321 -0.6506 -0.6055 -0.3604
   97MOL   H31535067   5.406   6.650   3.433 -0.7293  1.4072 -1.9620
   97MOL   H31635068   5.298   6.405   3.572  0.4831  0.8401  0.0028
   97MOL   H31735069   5.510   6.269   3.557  0.8838 -0.2852 -0.7864
   97MOL   H31835070   5.572   6.370   3.444  0.6272  0.6263  0.9914
   97MOL   H31935071   5.338   6.282   3.295 -0.3248 -2.4203 -1.5778
   97MOL   H32035072   5.564   6.264   3.228  0.1286  0.3663 -0.6914
   97MOL   H32135073   5.493   6.104   3.214 -0.2459 -1.0569  0.7359
   97MOL   H32235074   5.604   6.133   3.348 -0.1291  1.6901  0.7704
   97MOL   H32335075   5.287   6.057   3.379  2.2163 -1.8546  0.0728
   97MOL   H32435076   5.401   6.078   3.518  2.1830  1.8614 -0.4540
   97MOL   H32535077   5.265   6.179   3.509 -0.8108  1.2727 -0.8470
   97MOL   C32635078   5.454   6.514   3.645 -0.8574  0.9863  0.2978
   97MOL   C32735079   5.372   6.626   3.722 -0.8624  0.3706 -0.0333
   97MOL   C32835080   5.467   6.704   3.813 -0.4075 -0.4986 -0.4926
   97MOL   C32935081   5.580   6.781   3.749 -0.1588  0.1126  0.4088
   97MOL   C33035082   5.525   6.891   3.648 -0.1528 -0.0120 -0.4342
   97MOL   C33135083   5.672   6.836   3.855 -0.2990 -0.1508 -0.6730
   97MOL   H33235084   5.553   6.554   3.622 -0.3171 -0.0296  0.8196
   97MOL   H33335085   5.489   6.434   3.710  0.4138  0.6067 -0.8366
   97MOL   H33435086   5.315   6.696   3.661 -2.9666  0.0630  1.5371
   97MOL   H33535087   5.413   6.781   3.868  0.2419 -0.7132  0.4577
   97MOL   H33635088   5.515   6.635   3.883 -3.0559 -1.9660 -0.0468
   97MOL   H33735089   5.641   6.714   3.689  1.6330 -0.0250  2.3376
   97MOL   H33835090   5.457   6.958   3.700 -1.7675 -0.5682 -1.8179
   97MOL   H33935091   5.482   6.827   3.571  0.8392  0.1397 -1.1176
   97MOL   H34035092   5.621   6.928   3.613  0.4198 -0.7179  0.3564
   97MOL   H34135093   5.616   6.897   3.926 -0.4696  0.0725 -1.0019
   97MOL   H34235094   5.728   6.761   3.910 -1.0289  0.7540  1.3630
   97MOL   H34335095   5.751   6.896   3.809  0.7661 -0.5233  0.6214
   97MOL   C34435096   5.265   6.569   3.820 -0.4129  0.2567  0.0645
   97MOL   C34535097   5.152   6.671   3.833 -0.2894 -0.3146  0.3965
   97MOL   C34635098   5.021   6.619   3.900  0.1611  0.5915 -0.0784
   97MOL   C34735099   5.023   6.598   4.049  0.8778  0.2900 -0.3478
   97MOL   C34835100   4.894   6.524   4.095 -0.7056  0.5213  0.1550
   97MOL   C34935101   5.031   6.723   4.143  0.0567  0.0300 -0.3867
   97MOL   H35035102   5.305   6.535   3.915  1.2924  0.3984 -0.5784
   97MOL   H35135103   5.224   6.476   3.781 -0.3355  0.5348 -0.6986
   97MOL   H35235104   5.132   6.718   3.737  2.4278  0.4023  0.1171
   97MOL   H35335105   4.943   6.694   3.884 -2.3584 -1.8783  0.3761
   97MOL   H35435106   4.989   6.531   3.844  1.7581  1.1732 -1.9851
   97MOL   H35535107   5.102   6.528   4.077  1.7182  0.2236 -2.8090
   97MOL   H35635108   4.808   6.578   4.055 -2.0066 -1.9836 -0.5313
   97MOL   H35735109   4.895   6.421   4.062  1.9181  1.0456 -1.5603
   97MOL   H35835110   4.888   6.531   4.203  0.2407 -0.1893  0.2647
   97MOL   H35935111   5.021   6.691   4.247  0.8559 -1.0344 -0.6279
   97MOL   H36035112   4.950   6.794   4.123  1.4750  1.2770 -1.9040
   97MOL   H36135113   5.126   6.774   4.123 -1.1766  1.9815 -1.4748
   97MOL   H36235114   5.203   6.751   3.887  1.6524 -1.1079 -0.2015
   98MOL     C135115   1.336   4.454   0.899 -0.1459  0.6546  0.5763
   98MOL     C235116   1.213   4.396   0.833 -0.4619  0.3197  0.2270
   98MOL     C335117   1.084   4.483   0.825 -0.1683  0.8429 -0.0806
   98MOL     C435118   1.099   4.606   0.724  0.1520  0.2031 -0.1104
   98MOL     C535119   0.965   4.693   0.716 -0.1881 -0.0419  0.2613
   98MOL     C635120   1.154   4.564   0.585  0.7283 -0.0277  0.5294
   98MOL     H735121   1.421   4.399   0.859 -0.1090  0.4343  0.9518
   98MOL     H835122   1.352   4.557   0.868  1.9544  0.3066  0.4258
   98MOL     H935123   1.248   4.381   0.731 -2.5701 -0.9136 -0.3492
   98MOL    H1035124   1.018   4.417   0.770  1.3364  0.2016 -1.1492
   98MOL    H1135125   1.051   4.514   0.924  1.7447  0.6967  0.6296
   98MOL    H1235126   1.177   4.670   0.766 -0.9501  0.4677  1.6129
   98MOL    H1335127   0.954   4.749   0.623  0.3179 -1.4087 -0.6307
   98MOL    H1435128   0.880   4.625   0.714  1.1909 -1.7883 -2.8723
   98MOL    H1535129   0.968   4.765   0.798 -0.6581 -0.9048  1.0353
   98MOL    H1635130   1.130   4.637   0.508  3.5609 -0.8958 -1.2449
   98MOL    H1735131   1.110   4.473   0.542  0.6929  0.5855 -0.7302
   98MOL    H1835132   1.262   4.555   0.584  0.6654 -0.8839  0.9533
   98MOL    H1935133   1.342   4.447   1.008 -0.4430 -0.7378  0.5203
   98MOL    C2035134   1.179   4.255   0.895  0.0400  0.5033  0.3966
   98MOL    C2135135   1.112   4.171   0.791  0.6739 -0.7098 -0.0349
   98MOL    C2235136   1.179   4.040   0.772 -0.8901  0.2227 -0.3097
   98MOL    C2335137   1.332   4.040   0.727  0.3036 -0.7317  0.7973
   98MOL    C2435138   1.390   3.905   0.719 -0.2317  0.3288  0.1230
   98MOL    C2535139   1.354   4.114   0.590 -0.1405 -0.8936 -0.7781
   98MOL    H2635140   1.269   4.209   0.936  0.7553  0.6272 -1.0054
   98MOL    H2735141   1.109   4.258   0.979 -0.0075 -0.6295  0.3931
   98MOL    H2835142   1.108   4.223   0.696 -0.4332  0.9370  0.8725
   98MOL    H2935143   1.132   3.981   0.694  0.2964  1.4219 -1.9531
   98MOL    H3035144   1.173   3.986   0.867 -0.7378 -0.3235 -0.6063
   98MOL    H3135145   1.395   4.092   0.799  0.7546  1.5368 -1.1815
   98MOL    H3235146   1.490   3.904   0.675  0.0164  0.5662  0.6681
   98MOL    H3335147   1.323   3.835   0.669  1.1644  1.3856 -3.4060
   98MOL    H3435148   1.399   3.866   0.820  0.5204 -1.8966 -0.7668
   98MOL    H3535149   1.310   4.077   0.497 -1.0962 -0.3668 -0.5388
   98MOL    H3635150   1.322   4.218   0.588  0.0760 -0.7305  1.8435
   98MOL    H3735151   1.461   4.103   0.571  0.7286  0.0541  3.0451
   98MOL    C3835152   0.970   4.128   0.836 -0.1412  0.0675  0.1628
   98MOL    C3935153   0.875   4.077   0.722 -0.2445  0.4658 -0.1708
   98MOL    C4035154   0.830   4.201   0.631 -0.2020  0.4503 -1.0540
   98MOL    C4135155   0.782   4.172   0.491 -0.3687  0.0764  0.6549
   98MOL    C4235156   0.891   4.121   0.388  0.1082  0.4438 -0.3136
   98MOL    C4335157   0.720   4.301   0.436 -0.1022  0.2292 -0.6116
   98MOL    H4435158   0.913   4.207   0.885  0.3781 -0.9169  2.4037
   98MOL    H4535159   0.974   4.035   0.892 -1.3113 -1.3032 -1.9398
   98MOL    H4635160   0.939   4.007   0.668  0.2979 -0.3162  1.4506
   98MOL    H4735161   0.910   4.275   0.627  0.4286 -0.2486 -1.7430
   98MOL    H4835162   0.752   4.254   0.685  0.1545  0.0788 -0.1599
   98MOL    H4935163   0.709   4.094   0.511  0.2624 -0.6146  0.2913
   98MOL    H5035164   0.851   4.105   0.289  1.4233  0.7724 -0.9135
   98MOL    H5135165   0.968   4.193   0.360  1.1565  0.4136  2.3237
   98MOL    H5235166   0.926   4.031   0.438 -0.9829  0.2282  0.0768
   98MOL    H5335167   0.634   4.329   0.498 -0.3819  0.1778 -0.9778
   98MOL    H5435168   0.693   4.300   0.331  0.3730  1.3034 -0.7535
   98MOL    H5535169   0.786   4.386   0.454 -0.4224  0.5329 -0.8903
   98MOL    C5635170   0.749   3.996   0.781  0.6510 -0.7341  0.2424
   98MOL    C5735171   0.766   3.864   0.853  0.9806  0.9046  0.0176
   98MOL    C5835172   0.801   3.739   0.761 -0.0452 -0.0671 -0.2783
   98MOL    C5935173   0.883   3.633   0.830 -0.6061 -0.6549  0.0084
   98MOL    C6035174   1.033   3.650   0.822 -0.7086  0.2145  0.0361
   98MOL    C6135175   0.838   3.496   0.791 -0.1305  0.3261 -0.4587
   98MOL    H6235176   0.681   3.989   0.696  0.5084  3.4967 -0.0781
   98MOL    H6335177   0.701   4.063   0.852 -1.8084 -1.3779 -0.7410
   98MOL    H6435178   0.854   3.862   0.918  0.7618  1.4584  0.3419
   98MOL    H6535179   0.703   3.708   0.725 -0.0848  2.3496 -2.3828
   98MOL    H6635180   0.852   3.772   0.671 -3.3576  0.2011 -2.1290
   98MOL    H6735181   0.858   3.637   0.936  0.3212 -0.0623  0.2058
   98MOL    H6835182   1.050   3.737   0.886 -1.2355  0.1979  0.2049
   98MOL    H6935183   1.062   3.670   0.719  0.9223  1.1547  0.6531
   98MOL    H7035184   1.086   3.562   0.857 -0.0564  1.8461  3.3049
   98MOL    H7135185   0.729   3.487   0.791 -0.0931 -0.1988 -0.2844
   98MOL    H7235186   0.871   3.423   0.866  2.5024  1.4058 -0.5328
   98MOL    H7335187   0.880   3.467   0.694 -1.5458 -0.1091 -0.9545
   98MOL    C7435188   0.653   3.824   0.950 -0.0957 -0.2220 -0.2060
   98MOL    C7535189   0.632   3.893   1.082  0.7228  0.4676  0.1118
   98MOL    C7635190   0.763   3.932   1.161 -0.0970 -0.3896  0.0307
   98MOL    C7735191   0.811   4.083   1.152  0.8525  0.0629 -0.5710
   98MOL    C7835192   0.958   4.098   1.187  0.7147  0.0445 -0.6488
   98MOL    C7935193   0.723   4.182   1.236  0.3221  0.3452 -0.2172
   98MOL    H8035194   0.663   3.717   0.970  3.8683  0.6321  2.9923
   98MOL    H8135195   0.557   3.838   0.900  0.9816  2.6272 -1.5607
   98MOL    H8235196   0.593   3.991   1.054 -3.2583 -1.8243 -2.9336
   98MOL    H8335197   0.744   3.916   1.267 -2.6001  0.9476 -0.1671
   98MOL    H8435198   0.842   3.858   1.149  1.2689  0.9503  0.6066
   98MOL    H8535199   0.800   4.107   1.046  1.0971  0.6751 -0.4607
   98MOL    H8635200   0.994   4.200   1.171  1.8397  0.1399  2.2798
   98MOL    H8735201   1.011   4.031   1.119  0.9237 -0.8477  0.3814
   98MOL    H8835202   0.980   4.066   1.288 -0.2811 -2.2831 -1.1256
   98MOL    H8935203   0.731   4.151   1.340 -0.1130  0.7010 -0.0771
   98MOL    H9035204   0.755   4.286   1.229 -2.1213  1.1501  0.0841
   98MOL    H9135205   0.617   4.173   1.213  0.2718 -0.7022  0.3982
   98MOL    C9235206   0.532   3.811   1.171 -0.7374 -0.5891  0.0118
   98MOL    C9335207   0.458   3.900   1.272 -1.2912  0.7338  0.2556
   98MOL    C9435208   0.357   3.996   1.198  0.2489  0.6655  0.7259
   98MOL    C9535209   0.286   4.102   1.283  0.1511  0.4149 -0.0732
   98MOL    C9635210   0.393   4.202   1.335 -0.2355 -0.0057 -0.2070
   98MOL    C9735211   0.182   4.173   1.200 -0.5668 -0.4707  0.3421
   98MOL    H9835212   0.467   3.755   1.104  0.2748  0.7145 -2.1041
   98MOL    H9935213   0.598   3.748   1.231 -0.0859  1.0844  1.0917
   98MOL   H10035214   0.534   3.964   1.317 -0.2885 -0.1032 -0.2385
   98MOL   H10135215   0.290   3.933   1.139  1.1765  1.0513 -0.7807
   98MOL   H10235216   0.399   4.052   1.114 -2.9985 -0.3557 -1.7022
   98MOL   H10335217   0.246   4.059   1.375  0.8314 -2.7069 -1.2130
   98MOL   H10435218   0.437   4.266   1.260 -1.2521  0.7152 -0.1951
   98MOL   H10535219   0.477   4.160   1.391 -2.5830  0.4876  3.8709
   98MOL   H10635220   0.349   4.278   1.400 -0.5752  0.1722 -0.6419
   98MOL   H10735221   0.119   4.236   1.263 -0.7157 -0.5753  0.2993
   98MOL   H10835222   0.127   4.095   1.148  1.0531 -2.2937  1.3306
   98MOL   H10935223   0.221   4.234   1.118  0.8693 -0.3711  1.0840
   98MOL   C11035224   0.391   3.812   1.382 -0.1732 -0.5475 -0.1020
   98MOL   C11135225   0.479   3.764   1.499 -0.3257 -0.0657  0.6865
   98MOL   C11235226   0.504   3.881   1.600  0.6267  0.6924 -0.2204
   98MOL   C11335227   0.647   3.932   1.619 -0.1907 -0.7858 -0.1167
   98MOL   C11435228   0.740   3.824   1.667 -0.2661  0.4967  0.0300
   98MOL   C11535229   0.645   4.035   1.737 -1.2007  0.6125 -0.3105
   98MOL   H11635230   0.350   3.725   1.332  1.1001 -2.3288  1.8912
   98MOL   H11735231   0.291   3.848   1.407 -0.0640  0.9925 -1.7409
   98MOL   H11835232   0.574   3.730   1.458 -1.6328 -1.0253 -1.6445
   98MOL   H11935233   0.463   3.850   1.696  0.9435 -0.9425 -0.5848
   98MOL   H12035234   0.440   3.964   1.572 -2.4093 -1.3328  0.4007
   98MOL   H12135235   0.678   3.976   1.524 -2.1432 -2.4050 -1.5409
   98MOL   H12235236   0.700   3.760   1.746 -0.5162  2.1844  1.2845
   98MOL   H12335237   0.833   3.862   1.708  1.5230 -2.5472 -1.0477
   98MOL   H12435238   0.769   3.766   1.579 -1.6449 -0.2351  0.0398
   98MOL   H12535239   0.613   3.984   1.828 -0.3154 -0.2813 -0.4966
   98MOL   H12635240   0.583   4.122   1.717 -0.0868  1.6246  0.6305
   98MOL   H12735241   0.748   4.068   1.748 -0.6044 -0.2841 -2.8136
   98MOL   C12835242   0.399   3.657   1.575  0.0606  0.0935  0.5777
   98MOL   C12935243   0.418   3.511   1.518 -0.1122  0.0777 -0.8032
   98MOL   C13035244   0.311   3.419   1.567 -0.7596  0.2518  0.3441
   98MOL   C13135245   0.167   3.434   1.508 -0.1716  0.3837 -0.1494
   98MOL   C13235246   0.139   3.344   1.383  0.0861  0.1110  0.4297
   98MOL   C13335247   0.060   3.395   1.609  0.2555 -0.1234 -0.0230
   98MOL   H13435248   0.297   3.694   1.583 -0.0144  0.4947 -1.8449
   98MOL   H13535249   0.444   3.648   1.674  1.5929 -0.4190 -0.1440
   98MOL   H13635250   0.405   3.514   1.410 -1.4801  0.0190 -0.6542
   98MOL   H13735251   0.341   3.315   1.556  1.5333  0.9989 -0.9325
   98MOL   H13835252   0.309   3.430   1.675 -0.8517 -0.8162  0.4555
   98MOL   H13935253   0.134   3.536   1.486  0.0247  0.3782 -0.4743
   98MOL   H14035254   0.181   3.378   1.288  1.1977 -0.2635  0.7706
   98MOL   H14135255   0.033   3.335   1.364 -0.4695  0.0822  3.2839
   98MOL   H14235256   0.185   3.246   1.401  0.2857  0.4878  2.0327
   98MOL   H14335257   0.075   3.294   1.649 -1.0438 -0.7566 -1.1334
   98MOL   H14435258   0.065   3.467   1.692 -1.2350 -1.8106  1.5807
   98MOL   H14535259   7.717   3.417   1.563 -1.0951 -1.3493  2.0981
   98MOL   C14635260   0.552   3.452   1.558  0.3973 -0.5935 -0.0322
   98MOL   C14735261   0.618   3.357   1.462 -0.0885 -0.0877  0.1322
   98MOL   C14835262   0.710   3.256   1.534 -0.1822 -0.5830 -0.6731
   98MOL   C14935263   0.830   3.316   1.607 -0.5711  0.3337  0.0911
   98MOL   C15035264   0.806   3.393   1.739  0.0235  0.2904 -0.0931
   98MOL   C15135265   0.931   3.202   1.630  0.3556  0.3558 -0.6853
   98MOL   H15235266   0.547   3.407   1.657 -2.0846  0.4987  0.3805
   98MOL   H15335267   0.626   3.531   1.570  2.7131 -2.7638  0.4034
   98MOL   H15435268   0.528   3.310   1.424 -0.2788 -1.0177  1.7074
   98MOL   H15535269   0.666   3.193   1.612  0.2615  0.2973  0.3004
   98MOL   H15635270   0.745   3.179   1.465 -0.2638  0.5555 -2.0203
   98MOL   H15735271   0.865   3.397   1.542 -2.0968 -0.8112 -2.2549
   98MOL   H15835272   0.747   3.343   1.817 -1.4882  1.6520 -0.3204
   98MOL   H15935273   0.749   3.484   1.722 -0.5036  1.1397  5.2311
   98MOL   H16035274   0.903   3.408   1.786  0.0571 -0.0716 -0.0462
   98MOL   H16135275   0.948   3.144   1.539  0.0903 -0.8605  0.0351
   98MOL   H16235276   0.883   3.141   1.706 -0.8344  0.8554 -1.0269
   98MOL   H16335277   1.022   3.238   1.679  1.2689 -0.2278 -1.9131
   98MOL   C16435278   0.686   3.432   1.342 -0.0100 -0.7694  0.4997
   98MOL   C16535279   0.725   3.326   1.233 -0.0152  0.4664 -0.2385
   98MOL   C16635280   0.662   3.365   1.095 -0.2123 -0.3872 -0.0506
   98MOL   C16735281   0.506   3.343   1.084  0.4119 -0.4371 -0.2148
   98MOL   C16835282   0.452   3.407   0.953  0.6676 -0.5024  0.3022
   98MOL   C16935283   0.461   3.197   1.086  0.0297  0.5229 -0.1679
   98MOL   H17035284   0.620   3.508   1.299 -1.1548 -1.6190  0.7235
   98MOL   H17135285   0.779   3.477   1.375  0.3666  0.9212 -2.6962
   98MOL   H17235286   0.682   3.229   1.260 -3.2569  2.0410  0.4893
   98MOL   H17335287   0.691   3.469   1.078 -0.8394  0.1158  1.7909
   98MOL   H17435288   0.712   3.311   1.014  2.7029 -0.2818  1.6005
   98MOL   H17535289   0.451   3.394   1.163 -1.3636 -0.5312 -1.3643
   98MOL   H17635290   0.447   3.515   0.967 -1.1535 -0.7231  1.4352
   98MOL   H17735291   0.352   3.375   0.925  0.7608  1.5382 -2.5968
   98MOL   H17835292   0.514   3.383   0.866 -1.1441 -0.1582 -1.1182
   98MOL   H17935293   0.507   3.129   1.014 -1.0674  0.9436 -1.2957
   98MOL   H18035294   0.359   3.190   1.049  0.0608 -1.5726  0.1093
   98MOL   H18135295   0.485   3.151   1.181 -0.6533  0.4437 -0.0299
   98MOL   C18235296   0.877   3.284   1.239 -0.6135 -0.3789 -0.6476
   98MOL   C18335297   0.921   3.164   1.155  0.1378  0.3409  0.1150
   98MOL   C18435298   1.073   3.172   1.120  0.0445 -0.0567 -0.1916
   98MOL   C18535299   1.111   3.283   1.018 -0.5073 -0.1879 -0.4899
   98MOL   C18635300   1.245   3.358   1.057 -0.9810 -0.3765 -0.2166
   98MOL   C18735301   1.115   3.227   0.876 -0.1991  0.4494  0.0331
   98MOL   H18835302   0.906   3.268   1.343  0.6571  0.5534 -0.8512
   98MOL   H18935303   0.920   3.379   1.206 -2.0819  0.3109 -0.6071
   98MOL   H19035304   0.879   3.175   1.055  0.9947  1.7239 -0.1178
   98MOL   H19135305   1.120   3.076   1.097  3.6483  1.3526  0.8956
   98MOL   H19235306   1.125   3.189   1.214 -0.3472 -0.0276  0.0211
   98MOL   H19335307   1.039   3.364   1.028  0.7403  0.8905 -0.0142
   98MOL   H19435308   1.233   3.398   1.157  2.0752 -0.2698  0.1549
   98MOL   H19535309   1.266   3.443   0.992 -1.5676 -2.4241 -3.1787
   98MOL   H19635310   1.324   3.283   1.060  0.3695  1.0205 -0.5452
   98MOL   H19735311   1.121   3.311   0.807  0.5665  0.1146 -0.3149
   98MOL   H19835312   1.030   3.163   0.851 -0.2500  1.6214 -2.9996
   98MOL   H19935313   1.202   3.163   0.865  0.0651  1.0101 -1.2812
   98MOL   C20035314   0.871   3.037   1.211  0.1120  0.1736 -0.3203
   98MOL   C20135315   0.894   2.904   1.127 -0.6370 -0.3397 -0.9819
   98MOL   C20235316   0.762   2.825   1.098 -0.0540 -0.2132  0.0062
   98MOL   C20335317   0.663   2.895   1.000 -0.4653  0.5552  0.4326
   98MOL   C20435318   0.722   2.905   0.859  0.1507 -0.1920 -0.0614
   98MOL   C20535319   0.518   2.841   0.988 -0.2339 -0.5370 -0.7099
   98MOL   H20635320   0.763   3.051   1.217  0.3886  2.8427 -0.9382
   98MOL   H20735321   0.901   3.028   1.315 -0.6311 -0.1389 -0.1315
   98MOL   H20835322   0.936   2.934   1.032  0.7637  0.6553 -0.0627
   98MOL   H20935323   0.778   2.728   1.050 -1.5086 -0.7765  0.6460
   98MOL   H21035324   0.716   2.800   1.194  1.3607  1.3399  1.1098
   98MOL   H21135325   0.657   2.998   1.035  2.1096  0.9889 -0.2808
   98MOL   H21235326   0.658   2.965   0.794  0.3423  1.7149  1.4606
   98MOL   H21335327   0.728   2.802   0.825 -1.9205 -0.5534  0.5886
   98MOL   H21435328   0.815   2.961   0.863 -1.4278  2.4587  1.0834
   98MOL   H21535329   0.458   2.857   1.078  0.6430 -0.8044 -0.0697
   98MOL   H21635330   0.524   2.735   0.968  0.1040 -0.5166 -0.7083
   98MOL   H21735331   0.459   2.894   0.913 -1.0074 -0.2520  0.0792
   98MOL   C21835332   1.007   2.815   1.183 -0.5917  0.3930 -0.3806
   98MOL   C21935333   1.069   2.716   1.072  0.5582 -0.3042 -0.2728
   98MOL   C22035334   1.128   2.593   1.142  0.0722 -0.0320  0.6771
   98MOL   C22135335   1.020   2.494   1.200 -0.0976  0.3616  0.3621
   98MOL   C22235336   0.928   2.436   1.091 -0.4126 -0.9778 -0.4866
   98MOL   C22335337   1.097   2.376   1.266  0.4326 -0.3090  0.3056
   98MOL   H22435338   1.089   2.874   1.224 -2.0748  0.2269  3.0469
   98MOL   H22535339   0.967   2.749   1.260  0.6894 -0.8611 -0.7782
   98MOL   H22635340   0.995   2.675   1.003  1.0353 -3.9272  1.2974
   98MOL   H22735341   1.181   2.540   1.063 -2.6399 -1.2548 -0.3780
   98MOL   H22835342   1.213   2.614   1.207  1.4025 -0.4581 -0.9007
   98MOL   H22935343   0.960   2.529   1.284  0.8065  3.0227 -0.0505
   98MOL   H23035344   0.875   2.503   1.024  0.3491 -1.3963 -1.5239
   98MOL   H23135345   0.986   2.375   1.022 -1.1588 -0.9481 -1.1406
   98MOL   H23235346   0.851   2.381   1.146 -1.2433  0.6252 -0.0272
   98MOL   H23335347   1.163   2.414   1.344  1.1274 -0.3746 -0.2452
   98MOL   H23435348   1.026   2.304   1.310  2.0412  0.0380  3.6298
   98MOL   H23535349   1.161   2.321   1.197  1.1331 -0.9031  1.3995
   98MOL   C23635350   1.165   2.785   0.980  0.7858  0.9337  0.7184
   98MOL   C23735351   1.199   2.720   0.838  0.2181  0.3128 -0.0676
   98MOL   C23835352   1.320   2.791   0.782  0.7372 -0.2966  0.5531
   98MOL   C23935353   1.452   2.780   0.860  0.1989  0.1234  0.0903
   98MOL   C24035354   1.498   2.636   0.880 -0.2339 -0.0086 -0.5709
   98MOL   C24135355   1.555   2.856   0.776  0.7438 -0.4681  0.3939
   98MOL   H24235356   1.256   2.789   1.040  0.4421  2.0983  1.1788
   98MOL   H24335357   1.130   2.885   0.953  0.2267  0.1795 -1.4893
   98MOL   H24435358   1.227   2.618   0.864 -0.4434 -0.0289 -0.6917
   98MOL   H24535359   1.300   2.896   0.760 -3.4259 -0.3928  3.3443
   98MOL   H24635360   1.335   2.737   0.688  1.3183 -1.2729  1.1998
   98MOL   H24735361   1.439   2.830   0.957  3.1561  3.0937 -0.9706
   98MOL   H24835362   1.498   2.578   0.788 -1.0691 -3.2302  1.3765
   98MOL   H24935363   1.434   2.589   0.955 -0.6649 -0.8708 -1.4677
   98MOL   H25035364   1.602   2.634   0.913 -0.4520  0.3201  0.1391
   98MOL   H25135365   1.568   2.809   0.678 -0.6532  0.9222 -0.4925
   98MOL   H25235366   1.657   2.866   0.813  1.6589 -2.1474 -1.5690
   98MOL   H25335367   1.533   2.962   0.763 -0.4530 -0.4407  2.5278
   98MOL   C25435368   1.065   2.725   0.754 -0.1376  0.4361  0.7305
   98MOL   C25535369   1.073   2.682   0.605  0.1504  0.3619 -0.3587
   98MOL   C25635370   1.096   2.523   0.585  0.4102 -0.0450  0.0739
   98MOL   C25735371   1.238   2.474   0.594  1.2273 -0.0063 -0.5964
   98MOL   C25835372   1.326   2.519   0.474 -0.5357  0.3381  0.3778
   98MOL   C25935373   1.240   2.317   0.596  0.5931  0.2117 -0.2194
   98MOL   H26035374   0.991   2.661   0.802  0.5494 -0.2872  0.8369
   98MOL   H26135375   1.030   2.828   0.752  2.9254  1.5438  1.4400
   98MOL   H26235376   1.157   2.732   0.556  2.2195 -1.2726  1.3917
   98MOL   H26335377   1.055   2.492   0.489 -1.9933  2.2020  0.2997
   98MOL   H26435378   1.032   2.473   0.658 -0.0697  0.5241  0.0519
   98MOL   H26535379   1.285   2.510   0.685  0.8383 -0.2537 -0.2977
   98MOL   H26635380   1.260   2.539   0.390 -0.1004  2.5643  0.5380
   98MOL   H26735381   1.400   2.446   0.444 -1.1411  0.5107 -1.6172
   98MOL   H26835382   1.371   2.618   0.487 -0.7723  0.6480 -1.0920
   98MOL   H26935383   1.204   2.271   0.503 -0.4881 -0.7521  0.6635
   98MOL   H27035384   1.343   2.286   0.610  0.0707 -1.7853 -0.5972
   98MOL   H27135385   1.182   2.269   0.674 -1.0063  2.3449 -0.0493
   98MOL   C27235386   0.942   2.727   0.530 -0.5884  0.8893  0.5330
   98MOL   C27335387   0.938   2.868   0.467 -0.0807 -0.4606 -0.1523
   98MOL   C27435388   1.015   2.893   0.337 -0.9220  0.4341  0.1301
   98MOL   C27535389   1.168   2.876   0.334 -0.0507 -0.2485 -0.4888
   98MOL   C27635390   1.240   2.964   0.430  0.0309  0.1133  0.5468
   98MOL   C27735391   1.227   2.902   0.194 -0.0862 -0.7154 -0.6449
   98MOL   H27835392   0.922   2.657   0.449  1.9625 -1.7202  2.0578
   98MOL   H27935393   0.865   2.725   0.607 -1.4032 -2.2964 -0.2831
   98MOL   H28035394   0.992   2.933   0.535  0.9978 -2.5698  1.0630
   98MOL   H28135395   1.001   2.998   0.310 -0.5186  0.7692  1.2374
   98MOL   H28235396   0.962   2.838   0.259 -1.0117 -0.0947  0.5648
   98MOL   H28335397   1.193   2.771   0.348  1.2917  0.3293  1.7118
   98MOL   H28435398   1.239   3.069   0.400 -0.2058 -0.5137 -1.7664
   98MOL   H28535399   1.216   2.953   0.535 -1.7006 -0.3131  0.1202
   98MOL   H28635400   1.347   2.940   0.432  0.4205  1.7504 -0.0313
   98MOL   H28735401   1.197   3.003   0.166 -2.9729 -2.0478 -2.6105
   98MOL   H28835402   1.336   2.904   0.195 -0.0754  1.1185  3.0312
   98MOL   H28935403   1.185   2.841   0.115 -3.0205 -0.5028  0.6763
   98MOL   C29035404   0.797   2.935   0.447 -0.3812  0.3008 -0.5589
   98MOL   C29135405   0.706   2.869   0.333  0.7114 -1.2257  0.5903
   98MOL   C29235406   0.617   2.762   0.393  0.2642  0.1033  0.2579
   98MOL   C29335407   0.496   2.693   0.319  0.4267  0.0642 -0.2108
   98MOL   C29435408   0.533   2.631   0.185  0.3007 -0.5267 -0.4380
   98MOL   C29535409   0.439   2.582   0.413 -0.4148 -0.3580  0.0766
   98MOL   H29635410   0.740   2.934   0.539 -2.5355 -1.3411 -1.8569
   98MOL   H29735411   0.827   3.037   0.425  0.2401  0.4521  0.9477
   98MOL   H29835412   0.767   2.830   0.252  2.2906  1.9947  0.1504
   98MOL   H29935413   0.569   2.799   0.484 -0.5615 -0.3542  0.0125
   98MOL   H30035414   0.689   2.702   0.448  1.3988  1.1341 -0.0693
   98MOL   H30135415   0.414   2.764   0.308  1.1710  0.7374 -1.5391
   98MOL   H30235416   0.448   2.572   0.150 -2.2357  2.2774  0.7570
   98MOL   H30335417   0.614   2.559   0.194  0.7455  0.0957  0.5962
   98MOL   H30435418   0.560   2.701   0.106  1.6388 -1.2170 -0.5985
   98MOL   H30535419   0.396   2.628   0.502  0.7149 -0.1222  0.5162
   98MOL   H30635420   0.512   2.513   0.456 -0.3175  0.0098  0.5136
   98MOL   H30735421   0.353   2.527   0.378 -0.6184  0.1798 -0.2813
   98MOL   C30835422   0.615   2.984   0.276  0.1555  0.3119 -0.4274
   98MOL   C30935423   0.682   3.090   0.181 -0.2018  0.0295  0.5009
   98MOL   C31035424   0.680   3.030   0.044 -0.1360  0.0747  0.2974
   98MOL   C31135425   0.768   3.100   7.695 -0.3787 -0.1073  0.1336
   98MOL   C31235426   0.920   3.087   7.720 -0.3337  0.2092  0.4596
   98MOL   C31335427   0.736   3.058   7.546  0.3279  0.1018  0.0593
   98MOL   H31435428   0.529   2.940   0.227 -0.4918  2.0757 -0.8945
   98MOL   H31535429   0.581   3.040   0.363  1.1422  2.2111 -1.2272
   98MOL   H31635430   0.785   3.103   0.214 -0.5670 -2.7057  2.8534
   98MOL   H31735431   0.575   3.028   0.012 -0.4462  0.1157  1.2725
   98MOL   H31835432   0.707   2.925   0.048  1.6595  0.5820  2.5431
   98MOL   H31935433   0.749   3.207   7.686 -0.7673 -0.2991 -1.4763
   98MOL   H32035434   0.957   3.089   0.071 -0.0432 -2.0189  0.4228
   98MOL   H32135435   0.965   3.170   7.666 -3.5456  1.8260  0.1733
   98MOL   H32235436   0.965   3.002   7.670  0.1713  0.8022 -0.1139
   98MOL   H32335437   0.803   3.117   7.484 -0.3766 -0.0767 -0.8819
   98MOL   H32435438   0.748   2.958   7.505 -0.4884  0.7172 -1.7145
   98MOL   H32535439   0.633   3.079   7.516  0.3540  0.6333  0.3287
   98MOL   C32635440   0.616   3.230   0.190  0.5889  0.3267  0.0362
   98MOL   C32735441   0.662   3.324   0.316  0.0509 -0.9328 -0.1204
   98MOL   C32835442   0.571   3.442   0.343 -0.2286  0.3202  0.0121
   98MOL   C32935443   0.442   3.414   0.428 -0.2737  0.4410 -0.0268
   98MOL   C33035444   0.474   3.393   0.578 -0.2395  0.0291  0.1033
   98MOL   C33135445   0.330   3.520   0.416  0.3420 -0.3188 -0.3970
   98MOL   H33235446   0.509   3.208   0.198  0.5844 -0.1115 -1.1123
   98MOL   H33335447   0.626   3.293   0.102 -0.4027 -2.0818 -1.8541
   98MOL   H33435448   0.663   3.263   0.406 -1.2400 -1.1538 -0.2473
   98MOL   H33535449   0.631   3.518   0.394 -0.4530 -0.7057  1.8768
   98MOL   H33635450   0.551   3.476   0.242  0.0177 -1.4241 -0.6408
   98MOL   H33735451   0.401   3.325   0.381  1.1293  0.5937 -1.5741
   98MOL   H33835452   0.493   3.494   0.613  1.4330  0.1000 -0.9824
   98MOL   H33935453   0.557   3.324   0.591  0.4581  1.2991  2.8711
   98MOL   H34035454   0.382   3.344   0.613 -0.4757  1.1669  1.0859
   98MOL   H34135455   0.231   3.484   0.446  1.6043 -2.9788  0.7168
   98MOL   H34235456   0.356   3.608   0.474  0.5144 -1.4712  1.2899
   98MOL   H34335457   0.314   3.552   0.313  0.7090  1.1408 -0.0066
   98MOL   C34435458   0.809   3.363   0.300 -0.5886 -0.6093  0.8018
   98MOL   C34535459   0.874   3.412   0.431  0.3996 -0.2568  0.0440
   98MOL   C34635460   1.012   3.476   0.421  0.0084 -0.1111 -0.5495
   98MOL   C34735461   1.021   3.609   0.335 -0.8808 -0.0492 -0.2862
   98MOL   C34835462   1.166   3.654   0.327  0.7559 -0.3261 -0.3005
   98MOL   C34935463   0.944   3.719   0.406  0.1176  0.1053 -0.2210
   98MOL   H35035464   0.818   3.448   0.232 -1.9108 -1.6262 -0.6712
   98MOL   H35135465   0.867   3.282   0.256  1.4445  1.9086 -1.2546
   98MOL   H35235466   0.882   3.324   0.495  1.0184 -0.3047 -0.0947
   98MOL   H35335467   1.056   3.494   0.519 -1.6272  1.3433 -0.0415
   98MOL   H35435468   1.076   3.400   0.375 -0.0259 -0.2012 -0.4472
   98MOL   H35535469   0.983   3.601   0.233  1.0329 -2.3328 -0.8670
   98MOL   H35635470   1.180   3.722   0.243 -0.7098  1.4052  0.8256
   98MOL   H35735471   1.206   3.697   0.419  1.4889  1.3993 -1.4034
   98MOL   H35835472   1.227   3.568   0.298 -0.4908 -2.0356  2.0554
   98MOL   H35935473   0.933   3.806   0.340 -0.9084  0.3824  0.3063
   98MOL   H36035474   0.995   3.752   0.497  0.1688 -0.5980  0.0088
   98MOL   H36135475   0.838   3.697   0.416  0.3920 -1.0105  0.3139
   98MOL   H36235476   0.809   3.481   0.484 -1.3346 -0.2059 -2.0872
   99MOL     C135477   4.109   1.817   0.480 -0.6106  0.1613  0.4041
   99MOL     C235478   4.104   1.963   0.517 -0.3239 -0.7500 -0.4831
   99MOL     C335479   4.059   1.978   0.662  0.5156  0.0293  0.7088
   99MOL     C435480   4.169   1.944   0.768  0.4422 -0.0697  0.0412
   99MOL     C535481   4.108   1.924   0.909  0.9805 -0.5906  0.1096
   99MOL     C635482   4.272   2.050   0.778 -0.0041  0.0019 -0.1953
   99MOL     H735483   4.170   1.804   0.391 -0.9870 -0.1070  0.1852
   99MOL     H835484   4.147   1.756   0.563  0.1917 -1.2728 -0.9939
   99MOL     H935485   4.208   1.993   0.508  0.0126 -1.4519  0.9759
   99MOL    H1035486   4.015   2.074   0.690 -0.9375 -0.6766  0.9291
   99MOL    H1135487   3.975   1.908   0.664 -0.4511  1.0621 -1.4642
   99MOL    H1235488   4.217   1.848   0.750 -1.4376 -0.6921 -1.8421
   99MOL    H1335489   4.052   2.013   0.936  0.0092 -2.0035  2.9849
   99MOL    H1435490   4.034   1.844   0.921  1.8946 -1.2536  1.5466
   99MOL    H1535491   4.173   1.910   0.995 -0.0619 -0.6765  0.8929
   99MOL    H1635492   4.216   2.143   0.774  1.4054  0.8597 -0.2138
   99MOL    H1735493   4.345   2.052   0.697  0.7280 -0.7040  0.4321
   99MOL    H1835494   4.331   2.037   0.869 -0.3941 -0.1323  0.0401
   99MOL    H1935495   4.005   1.794   0.459 -0.8015  1.5727 -0.2376
   99MOL    C2035496   4.011   2.050   0.428 -0.4686 -0.4807 -0.9573
   99MOL    C2135497   4.058   2.199   0.424  0.3341  0.1975 -0.9009
   99MOL    C2235498   4.159   2.216   0.305  0.6863  0.6617 -0.7037
   99MOL    C2335499   4.232   2.354   0.287 -0.1122  0.2695 -0.1798
   99MOL    C2435500   4.343   2.377   0.388  0.2012  0.2045  0.0807
   99MOL    C2535501   4.289   2.359   0.146 -0.5190  0.0992 -0.1513
   99MOL    H2635502   4.012   2.000   0.332  0.0008 -0.8281 -0.7774
   99MOL    H2735503   3.909   2.042   0.466 -0.4948 -1.0091 -1.1366
   99MOL    H2835504   4.112   2.231   0.514  2.1858 -0.5290 -1.7375
   99MOL    H2935505   4.106   2.182   0.216 -0.0391  1.4699 -0.5912
   99MOL    H3035506   4.244   2.149   0.301  0.2844  0.1963 -1.6484
   99MOL    H3135507   4.163   2.437   0.300  0.3486  0.2558  2.7506
   99MOL    H3235508   4.417   2.302   0.363  0.1667  0.6098 -1.3137
   99MOL    H3335509   4.324   2.365   0.495 -1.2347 -2.0383 -0.4023
   99MOL    H3435510   4.397   2.472   0.390 -1.5750  1.2395 -0.2431
   99MOL    H3535511   4.352   2.447   0.138  0.4015 -0.4779  0.7078
   99MOL    H3635512   4.351   2.271   0.131 -1.9575 -0.6323 -1.9645
   99MOL    H3735513   4.217   2.353   0.063  0.9787 -0.5336 -1.4270
   99MOL    C3835514   3.933   2.294   0.410 -0.0865  0.0464  0.9185
   99MOL    C3935515   3.887   2.359   0.531  0.2366 -0.2405 -0.0915
   99MOL    C4035516   3.736   2.404   0.526  0.1149 -0.1575  0.8019
   99MOL    C4135517   3.649   2.285   0.577 -0.1446 -0.2423  0.9324
   99MOL    C4235518   3.507   2.311   0.531  0.2289  0.6501  0.2180
   99MOL    C4335519   3.655   2.272   0.729  0.8594  0.1581 -0.1495
   99MOL    H4435520   3.857   2.244   0.351 -0.5424  0.4129  1.1949
   99MOL    H4535521   3.965   2.372   0.342 -1.0345  0.2518  0.7035
   99MOL    H4635522   3.900   2.282   0.607  3.7626 -0.8315 -1.1929
   99MOL    H4735523   3.715   2.433   0.423  2.0027 -0.8552  0.2098
   99MOL    H4835524   3.714   2.494   0.583  0.1613 -0.8276  1.8988
   99MOL    H4935525   3.695   2.197   0.534  1.2228 -0.2802  2.4461
   99MOL    H5035526   3.466   2.400   0.579  0.9305  1.0189  0.1404
   99MOL    H5135527   3.502   2.325   0.423  0.4572  0.8669  0.2372
   99MOL    H5235528   3.440   2.227   0.551  0.2502  0.3488 -0.9324
   99MOL    H5335529   3.744   2.222   0.768  0.2930 -0.3156  0.5541
   99MOL    H5435530   3.579   2.207   0.771 -0.7667  1.6724 -0.7153
   99MOL    H5535531   3.632   2.366   0.778 -3.2140 -0.7002 -0.2819
   99MOL    C5635532   3.978   2.475   0.570 -0.7127 -0.4286 -0.3463
   99MOL    C5735533   3.965   2.521   0.726  0.2991  1.1192 -1.0659
   99MOL    C5835534   4.003   2.662   0.758  0.3816  0.3528 -0.3617
   99MOL    C5935535   3.911   2.775   0.712  0.3457  0.4540  0.3438
   99MOL    C6035536   3.993   2.901   0.678 -0.5664  0.3481 -0.1632
   99MOL    C6135537   3.797   2.791   0.823  0.5092  0.2383 -0.4548
   99MOL    H6235538   3.932   2.551   0.507  0.0272 -0.0336 -0.4163
   99MOL    H6335539   4.082   2.455   0.545  0.0404  0.7713  1.6369
   99MOL    H6435540   3.864   2.516   0.767  0.8061  0.6968  0.1524
   99MOL    H6535541   4.024   2.671   0.864  1.5130 -0.6681 -0.4867
   99MOL    H6635542   4.107   2.680   0.730  0.4090  0.6654 -0.0667
   99MOL    H6735543   3.872   2.742   0.617  0.3716 -2.9549  1.4636
   99MOL    H6835544   4.027   2.941   0.774 -3.9437  0.4063  1.0788
   99MOL    H6935545   3.927   2.975   0.636  0.0638  1.9775  1.6336
   99MOL    H7035546   4.076   2.890   0.608  0.1185  0.3557  0.6409
   99MOL    H7135547   3.730   2.873   0.798  1.0796  1.0680  0.7104
   99MOL    H7235548   3.842   2.814   0.919  1.0330 -2.1822 -0.0887
   99MOL    H7335549   3.741   2.697   0.827 -1.4731  1.4465  1.2723
   99MOL    C7435550   4.051   2.420   0.821 -0.4110 -0.4336  0.0005
   99MOL    C7535551   4.051   2.435   0.977 -0.3461  0.4734 -0.1181
   99MOL    C7635552   4.120   2.321   1.050  0.2177  0.0368 -0.3090
   99MOL    C7735553   4.274   2.335   1.039 -0.3018  0.2738 -0.4218
   99MOL    C7835554   4.349   2.207   1.095 -0.4489 -0.0948 -0.1991
   99MOL    C7935555   4.332   2.455   1.108 -0.3174  0.3774 -0.2553
   99MOL    H8035556   4.152   2.411   0.781 -0.1303  1.6335  0.1941
   99MOL    H8135557   4.007   2.324   0.793 -1.1095  0.8463 -3.6065
   99MOL    H8235558   4.102   2.528   1.004 -1.8549  0.5561  2.5826
   99MOL    H8335559   4.096   2.313   1.156  0.5808  2.0673 -0.0364
   99MOL    H8435560   4.086   2.227   1.008  1.5622 -0.3896 -0.4694
   99MOL    H8535561   4.296   2.343   0.933  1.8533 -1.3934 -0.1248
   99MOL    H8635562   4.443   2.185   1.044 -0.2349 -1.7762  0.8890
   99MOL    H8735563   4.287   2.118   1.094 -1.7877  0.7573  1.8283
   99MOL    H8835564   4.388   2.217   1.197  0.8577  0.2171 -0.7118
   99MOL    H8935565   4.440   2.458   1.095 -0.6083 -0.3239 -3.1825
   99MOL    H9035566   4.301   2.548   1.060  0.7183  1.9373  2.0015
   99MOL    H9135567   4.309   2.462   1.214 -2.3268  0.9381 -0.7049
   99MOL    C9235568   3.908   2.454   1.038 -0.0977  0.0881 -0.0911
   99MOL    C9335569   3.892   2.499   1.188  0.1173  0.5009 -0.3469
   99MOL    C9435570   3.908   2.650   1.216  0.0133 -0.2771 -0.8521
   99MOL    C9535571   3.923   2.703   1.362  0.0564  0.1897 -0.0170
   99MOL    C9635572   4.061   2.667   1.409  0.6079  0.0254  0.3116
   99MOL    C9735573   3.895   2.854   1.375  0.5007  0.0167 -0.2172
   99MOL    H9835574   3.846   2.522   0.980  0.9560  0.4560 -0.7996
   99MOL    H9935575   3.857   2.359   1.024  2.3448 -1.3140  0.1551
   99MOL   H10035576   3.981   2.463   1.240  1.2946  3.9319  0.1501
   99MOL   H10135577   3.812   2.683   1.177  0.6556  2.5863 -0.0928
   99MOL   H10235578   3.975   2.699   1.145 -0.2092  1.4742  0.1309
   99MOL   H10335579   3.847   2.662   1.428  0.0414  2.6446  1.5514
   99MOL   H10435580   4.133   2.706   1.337  1.9853 -4.3343 -0.7999
   99MOL   H10535581   4.070   2.559   1.422  0.4976 -0.2727 -1.9379
   99MOL   H10635582   4.061   2.708   1.510 -1.2643 -3.5893  1.8413
   99MOL   H10735583   3.790   2.861   1.347  0.4814  1.4080  0.1675
   99MOL   H10835584   3.960   2.914   1.312 -0.5962 -0.6882 -2.0613
   99MOL   H10935585   3.923   2.894   1.473 -0.1321 -3.0719  1.2774
   99MOL   C11035586   3.755   2.451   1.240 -0.5791 -0.1220  0.0521
   99MOL   C11135587   3.749   2.305   1.294 -0.4371 -0.2638 -0.2288
   99MOL   C11235588   3.837   2.281   1.425  0.0974  1.1141 -0.5000
   99MOL   C11335589   3.911   2.157   1.459  0.1371 -0.0471 -0.6621
   99MOL   C11435590   3.975   2.161   1.601 -1.0430 -0.4754  0.5517
   99MOL   C11535591   4.014   2.112   1.352 -0.1751  0.4276  0.0642
   99MOL   H11635592   3.677   2.456   1.164 -1.1816  0.1922  0.6777
   99MOL   H11735593   3.720   2.510   1.325  0.5546 -1.2324  1.2968
   99MOL   H11835594   3.787   2.241   1.215  2.0140 -0.9672  1.4521
   99MOL   H11935595   3.786   2.316   1.515  0.4355  0.0324  0.1203
   99MOL   H12035596   3.923   2.347   1.414  0.8425 -0.2686 -3.2357
   99MOL   H12135597   3.848   2.068   1.453 -1.4252  1.0105 -0.0762
   99MOL   H12235598   4.033   2.253   1.611 -0.8231 -0.6054  0.4870
   99MOL   H12335599   4.016   2.067   1.639  0.1676  0.2172  0.9959
   99MOL   H12435600   3.890   2.173   1.668 -2.3612 -1.6318 -0.9030
   99MOL   H12535601   4.089   2.191   1.351 -1.0256  1.2503  0.2748
   99MOL   H12635602   3.960   2.097   1.259 -1.4998  1.7744  0.5938
   99MOL   H12735603   4.067   2.019   1.370 -2.4921 -1.2824 -1.6489
   99MOL   C12835604   3.600   2.269   1.313  0.5664  0.3941  0.5447
   99MOL   C12935605   3.555   2.121   1.352 -0.1107 -0.2259  0.2215
   99MOL   C13035606   3.558   2.034   1.220 -0.7991  0.1893  0.0149
   99MOL   C13135607   3.672   1.935   1.205  0.3944 -0.3471 -0.1696
   99MOL   C13235608   3.668   1.811   1.294 -0.1670  0.2636  0.6247
   99MOL   C13335609   3.692   1.895   1.054 -0.5504 -0.6536  0.6745
   99MOL   H13435610   3.542   2.289   1.222  0.2414 -1.2419  0.3838
   99MOL   H13535611   3.552   2.339   1.381  0.4746  0.9312 -0.0625
   99MOL   H13635612   3.626   2.085   1.425  2.8095 -1.4891 -3.0981
   99MOL   H13735613   3.466   1.978   1.206  1.6578 -3.6485 -1.5573
   99MOL   H13835614   3.556   2.101   1.134  0.9998  1.3951  0.8901
   99MOL   H13935615   3.768   1.986   1.208  0.9914 -1.4433 -0.2662
   99MOL   H14035616   3.670   1.830   1.401  0.2757  2.7911  0.1924
   99MOL   H14135617   3.757   1.748   1.292 -0.0601  0.4108  0.7446
   99MOL   H14235618   3.588   1.742   1.268  1.4097 -1.3942 -0.0090
   99MOL   H14335619   3.707   1.983   0.991 -0.2557 -1.7648 -0.8356
   99MOL   H14435620   3.780   1.835   1.035  0.3111  0.8994 -0.3493
   99MOL   H14535621   3.614   1.827   1.018 -0.1937 -0.9831  0.5209
   99MOL   C14635622   3.410   2.122   1.411 -0.5387  0.1471  0.4760
   99MOL   C14735623   3.398   2.173   1.556 -0.3112 -0.0894 -0.1162
   99MOL   C14835624   3.438   2.067   1.662  0.1997 -0.5118  0.0072
   99MOL   C14935625   3.446   2.110   1.813 -0.8571 -0.7627  0.4482
   99MOL   C15035626   3.478   1.994   1.900 -0.3407 -0.3268  0.2620
   99MOL   C15135627   3.546   2.224   1.834  0.6765  0.6823 -0.5614
   99MOL   H15235628   3.357   2.027   1.403  0.1817 -0.4192  2.2108
   99MOL   H15335629   3.352   2.186   1.343  0.0248 -1.2667 -1.3660
   99MOL   H15435630   3.463   2.260   1.570 -0.6839  0.2205 -0.2905
   99MOL   H15535631   3.385   1.973   1.649 -2.4971  0.9031  0.5899
   99MOL   H15635632   3.540   2.034   1.639  0.5846  0.5682  0.1209
   99MOL   H15735633   3.343   2.137   1.836 -0.5265  0.1559  0.8555
   99MOL   H15835634   3.465   2.022   2.004 -1.9155 -1.0948  0.2840
   99MOL   H15935635   3.580   1.955   1.901  0.4029  1.5737  0.4640
   99MOL   H16035636   3.414   1.912   1.869 -0.2541  0.0041 -0.8022
   99MOL   H16135637   3.516   2.314   1.781  1.2091  2.6278  2.3763
   99MOL   H16235638   3.647   2.185   1.822  0.7742  0.0409  2.0466
   99MOL   H16335639   3.534   2.265   1.934 -1.2737 -0.2281 -0.3972
   99MOL   C16435640   3.247   2.207   1.581 -0.3696  0.0011  0.3187
   99MOL   C16535641   3.209   2.342   1.643 -0.5234  0.1917  0.3968
   99MOL   C16635642   3.232   2.452   1.543  0.2832 -0.3505  0.0918
   99MOL   C16735643   3.220   2.602   1.596  0.1395 -0.9769  0.1277
   99MOL   C16835644   3.344   2.651   1.674  0.2052  0.5069  0.0795
   99MOL   C16935645   3.190   2.712   1.485 -0.0898 -0.7433  0.8706
   99MOL   H17035646   3.193   2.187   1.489  1.1293 -0.7137 -0.4314
   99MOL   H17135647   3.214   2.127   1.647  0.7449 -0.3171  0.5067
   99MOL   H17235648   3.284   2.359   1.721  1.0760 -0.5549 -0.9453
   99MOL   H17335649   3.335   2.446   1.508 -0.2361  1.3426 -1.8269
   99MOL   H17435650   3.178   2.432   1.450 -0.5456 -0.4334  0.5904
   99MOL   H17535651   3.134   2.617   1.662  1.1703  1.1296  1.0363
   99MOL   H17635652   3.337   2.758   1.694  0.6251  0.4706  0.4365
   99MOL   H17735653   3.442   2.633   1.631  0.9483 -0.4657  2.0967
   99MOL   H17835654   3.350   2.606   1.774 -0.1517  0.6388  0.1614
   99MOL   H17935655   3.256   2.682   1.404 -2.1064 -2.4827 -0.1803
   99MOL   H18035656   3.190   2.814   1.524  1.1032 -0.5022  0.2671
   99MOL   H18135657   3.091   2.687   1.447 -0.1229 -1.6158  1.5228
   99MOL   C18235658   3.062   2.334   1.694 -0.5385 -0.4310 -0.0022
   99MOL   C18335659   3.048   2.253   1.824  0.3123  1.2527  0.0724
   99MOL   C18435660   2.998   2.340   1.933 -0.1841  0.2249  0.6901
   99MOL   C18535661   3.083   2.463   1.967  0.0220 -0.4137 -0.0251
   99MOL   C18635662   3.007   2.551   2.073 -0.3020 -0.0281  0.0028
   99MOL   C18735663   3.224   2.433   2.021 -0.7083 -0.2040  0.6038
   99MOL   H18835664   2.994   2.297   1.617 -0.3303 -2.3808  0.7380
   99MOL   H18935665   3.022   2.434   1.709  3.3868  1.1045  0.8781
   99MOL   H19035666   3.151   2.223   1.838 -0.3212 -0.3803  1.3175
   99MOL   H19135667   2.972   2.293   2.028  0.1667 -0.0293  0.6594
   99MOL   H19235668   2.902   2.384   1.903  0.3340  0.5810 -0.4623
   99MOL   H19335669   3.099   2.523   1.878  1.7647  0.8261  1.1061
   99MOL   H19435670   2.926   2.500   2.124  1.0245  0.1967  2.4349
   99MOL   H19535671   2.958   2.634   2.023  0.1565  0.0957 -0.2500
   99MOL   H19635672   3.084   2.602   2.132  2.2341 -2.7033 -0.8602
   99MOL   H19735673   3.228   2.392   2.121 -0.1938  1.1138  1.1360
   99MOL   H19835674   3.285   2.522   2.010 -0.0464 -0.7731 -0.4915
   99MOL   H19935675   3.272   2.360   1.957 -1.9283 -0.1712 -0.3808
   99MOL   C20035676   2.962   2.123   1.806  0.3641  0.0778 -0.1785
   99MOL   C20135677   2.945   2.026   1.936  0.4201  0.2745  0.4810
   99MOL   C20235678   3.077   1.973   2.002  0.5549  0.4813 -0.4903
   99MOL   C20335679   3.056   1.934   2.153 -1.0836  0.6621 -0.2242
   99MOL   C20435680   3.172   1.853   2.211  0.1385  0.1158  0.5241
   99MOL   C20535681   3.035   2.056   2.242 -0.0436  0.4069 -0.2484
   99MOL   H20635682   3.022   2.066   1.735 -0.2905  0.3295 -0.9308
   99MOL   H20735683   2.868   2.142   1.756  0.9847 -0.0596 -1.4049
   99MOL   H20835684   2.901   2.088   2.013  1.7488  1.1183  0.5805
   99MOL   H20935685   3.125   1.894   1.944  0.7766 -0.1102  0.4991
   99MOL   H21035686   3.137   2.064   1.993 -1.0435  1.6109 -0.1330
   99MOL   H21135687   2.970   1.866   2.158 -1.5810  1.1660 -1.6398
   99MOL   H21235688   3.157   1.754   2.167  0.1323  0.0667  0.6374
   99MOL   H21335689   3.172   1.845   2.319 -0.7615 -2.6351  0.3585
   99MOL   H21435690   3.269   1.885   2.171 -0.4818  1.2191 -0.1182
   99MOL   H21535691   3.020   2.028   2.347 -1.8689  1.2782 -0.2522
   99MOL   H21635692   2.952   2.123   2.218  1.1127  2.0531  0.2765
   99MOL   H21735693   3.118   2.127   2.242  1.7116 -1.5898  0.0768
   99MOL   C21835694   2.850   1.909   1.903  0.0099 -0.0704  0.0131
   99MOL   C21935695   2.705   1.925   1.955  0.5808  0.5611  0.0225
   99MOL   C22035696   2.633   1.793   1.990  0.0096  0.4576 -0.4513
   99MOL   C22135697   2.680   1.724   2.114  0.4207 -0.4441  0.0337
   99MOL   C22235698   2.650   1.799   2.242 -0.5096  0.1744 -0.6382
   99MOL   C22335699   2.611   1.585   2.123  0.4609  0.0946  0.3090
   99MOL   H22435700   2.857   1.889   1.796  1.9226  3.7209 -0.6463
   99MOL   H22535701   2.894   1.815   1.937  0.2477  0.9428  2.5815
   99MOL   H22635702   2.705   1.982   2.048 -1.7282 -0.8506  0.9236
   99MOL   H22735703   2.524   1.793   1.997  0.0022  0.6546 -0.5604
   99MOL   H22835704   2.649   1.733   1.901 -1.9296  1.9222 -1.8401
   99MOL   H22935705   2.789   1.717   2.106  0.4056 -1.9914  0.8984
   99MOL   H23035706   2.672   1.730   2.324 -1.4877  0.4836 -0.1124
   99MOL   H23135707   2.720   1.882   2.250  1.1210 -1.3013  1.0775
   99MOL   H23235708   2.546   1.827   2.256  0.6729  3.3914  2.3637
   99MOL   H23335709   2.625   1.519   2.038 -0.8730 -1.3355  1.1722
   99MOL   H23435710   2.648   1.530   2.210  2.3590 -0.7179 -0.9873
   99MOL   H23535711   2.504   1.599   2.136  0.4687 -0.5244  1.0243
   99MOL   C23635712   2.611   2.011   1.867 -0.7572 -0.1814  0.4515
   99MOL   C23735713   2.469   2.039   1.908 -0.0053 -0.0902 -0.1987
   99MOL   C23835714   2.408   2.137   1.807  0.1403 -0.0937  0.9308
   99MOL   C23935715   2.380   2.079   1.662  0.4594  0.0439  0.2326
   99MOL   C24035716   2.279   1.954   1.658 -0.0188 -0.1387 -0.0657
   99MOL   C24135717   2.328   2.191   1.576 -0.2049  0.2451 -0.1288
   99MOL   H24235718   2.604   1.956   1.773  1.1554 -0.3865  0.4168
   99MOL   H24335719   2.648   2.112   1.850  0.8930 -0.5614  1.7344
   99MOL   H24435720   2.415   1.945   1.911 -0.2778  0.0747  0.0461
   99MOL   H24535721   2.476   2.221   1.787 -1.8619  1.6664  1.3275
   99MOL   H24635722   2.321   2.191   1.843  0.1238  1.0318 -0.7402
   99MOL   H24735723   2.471   2.049   1.611 -0.8365 -0.8245 -1.6190
   99MOL   H24835724   2.312   1.863   1.707 -1.6475  0.5840  2.4757
   99MOL   H24935725   2.246   1.925   1.559  0.5303 -0.9065 -0.0299
   99MOL   H25035726   2.187   1.982   1.709 -0.6397  1.0309 -1.7815
   99MOL   H25135727   2.391   2.276   1.552 -1.6362  0.6183 -2.7822
   99MOL   H25235728   2.243   2.246   1.615 -0.5967  1.0784 -2.1125
   99MOL   H25335729   2.299   2.155   1.477  1.2106  1.5349 -1.0249
   99MOL   C25435730   2.450   2.098   2.053  0.6299 -0.5780 -1.0066
   99MOL   C25535731   2.309   2.105   2.116 -0.3378  0.0881 -0.0557
   99MOL   C25635732   2.281   1.964   2.176 -0.7715  0.1472 -0.2291
   99MOL   C25735733   2.134   1.929   2.221  0.5414 -0.0687 -0.2450
   99MOL   C25835734   2.144   1.804   2.304 -0.0414 -0.4493  0.4851
   99MOL   C25935735   2.045   1.913   2.096 -0.4523 -0.0688  0.1241
   99MOL   H26035736   2.504   2.043   2.130  1.1359  1.6599  0.2713
   99MOL   H26135737   2.505   2.191   2.061 -0.1308 -0.1405 -0.8253
   99MOL   H26235738   2.238   2.122   2.035 -0.7663 -0.7513  0.1405
   99MOL   H26335739   2.333   1.970   2.272 -0.4646  0.3764 -0.4070
   99MOL   H26435740   2.321   1.888   2.110 -0.0732 -0.1313  0.5019
   99MOL   H26535741   2.101   2.010   2.286 -3.0450 -1.5742 -0.0626
   99MOL   H26635742   2.146   1.721   2.233 -1.0276 -1.8026  2.0122
   99MOL   H26735743   2.046   1.775   2.344 -0.6657  0.0260 -0.6749
   99MOL   H26835744   2.225   1.785   2.375 -1.4099 -0.2884  2.1225
   99MOL   H26935745   2.091   1.831   2.041 -0.5414 -1.4736  2.0708
   99MOL   H27035746   1.944   1.872   2.103 -0.6740  0.2086 -1.3019
   99MOL   H27135747   2.034   2.001   2.033 -0.1197 -0.1635 -0.0651
   99MOL   C27235748   2.288   2.219   2.205  0.5032 -0.0042  0.6281
   99MOL   C27335749   2.265   2.353   2.123  0.2123  0.0429  0.3433
   99MOL   C27435750   2.111   2.348   2.101  0.0583 -0.3559 -0.0920
   99MOL   C27535751   2.046   2.443   1.990  0.5649  0.8094 -0.4415
   99MOL   C27635752   1.896   2.444   2.012 -0.6743  0.0146 -0.0769
   99MOL   C27735753   2.079   2.397   1.845  1.0112  0.8372  0.4436
   99MOL   H27835754   2.207   2.208   2.276 -0.9539  0.2679 -0.9700
   99MOL   H27935755   2.380   2.228   2.263  1.3809 -0.1091 -0.7044
   99MOL   H28035756   2.324   2.346   2.031  2.5060  2.0169  1.5992
   99MOL   H28135757   2.058   2.372   2.193 -2.1121 -2.8470 -0.6497
   99MOL   H28235758   2.078   2.246   2.078 -1.0692 -0.0765  0.2579
   99MOL   H28335759   2.074   2.547   2.006  1.2021  0.6209 -0.2840
   99MOL   H28435760   1.871   2.338   2.016 -3.5248  0.6123 -0.8799
   99MOL   H28535761   1.857   2.483   2.105  0.6177  0.1141  0.4387
   99MOL   H28635762   1.850   2.489   1.924  1.9147  2.7323 -0.1157
   99MOL   H28735763   2.010   2.460   1.789  0.5637  0.2628  0.3332
   99MOL   H28835764   2.182   2.412   1.813  1.0394 -0.6889 -0.2163
   99MOL   H28935765   2.037   2.297   1.829 -1.7569  1.9421  0.4427
   99MOL   C29035766   2.301   2.486   2.200  0.4186  0.5519 -0.3864
   99MOL   C29135767   2.449   2.536   2.177  0.1657 -0.4613  0.2113
   99MOL   C29235768   2.464   2.635   2.063  0.4656  0.7476  0.3730
   99MOL   C29335769   2.464   2.575   1.920 -0.1429 -0.5988  0.4349
   99MOL   C29435770   2.439   2.679   1.809 -0.1258  0.0200  0.0309
   99MOL   C29535771   2.588   2.488   1.899 -0.4627 -0.3936 -0.3389
   99MOL   H29635772   2.237   2.566   2.163  1.2935  1.2652 -0.3802
   99MOL   H29735773   2.284   2.474   2.307 -1.9088 -1.4302 -0.9476
   99MOL   H29835774   2.506   2.445   2.157 -0.5405 -1.2557  1.7342
   99MOL   H29935775   2.558   2.690   2.069  0.6131  0.6597 -1.0367
   99MOL   H30035776   2.385   2.709   2.077  0.1505  0.1090  2.0908
   99MOL   H30135777   2.389   2.496   1.912  0.2852 -0.9734  0.1044
   99MOL   H30235778   2.345   2.726   1.838  0.7374  0.9375  1.3875
   99MOL   H30335779   2.427   2.632   1.712 -2.1321  0.8789 -0.1525
   99MOL   H30435780   2.519   2.752   1.806  0.3876 -0.5426 -0.0138
   99MOL   H30535781   2.598   2.464   1.793 -0.0841  0.2470 -0.4517
   99MOL   H30635782   2.582   2.390   1.946  0.5461 -1.4417 -2.3196
   99MOL   H30735783   2.678   2.548   1.913 -2.1157  1.4469  3.0420
   99MOL   C30835784   2.504   2.602   2.311  0.3279  0.1610 -0.3399
   99MOL   C30935785   2.566   2.503   2.406 -0.7536 -0.8977  0.0600
   99MOL   C31035786   2.720   2.509   2.381  0.2330  0.5504  1.1303
   99MOL   C31135787   2.800   2.399   2.450  0.2723  0.1725 -0.8227
   99MOL   C31235788   2.746   2.250   2.414 -0.6838  0.2065  0.6146
   99MOL   C31335789   2.951   2.400   2.422  0.0314  0.5713 -1.1530
   99MOL   H31435790   2.572   2.685   2.288 -1.6772  1.9116 -0.0633
   99MOL   H31535791   2.420   2.644   2.365  0.5705  2.0943 -1.4134
   99MOL   H31635792   2.533   2.402   2.383 -0.0940 -0.5253 -2.5857
   99MOL   H31735793   2.746   2.601   2.433 -1.0328  1.3364  0.3943
   99MOL   H31835794   2.752   2.517   2.277  1.5450  2.2066  1.6487
   99MOL   H31935795   2.786   2.417   2.557 -0.6697  2.3893 -1.3003
   99MOL   H32035796   2.789   2.170   2.474  0.0286  1.3829  1.7124
   99MOL   H32135797   2.775   2.229   2.311 -1.3884 -0.4989  0.5621
   99MOL   H32235798   2.640   2.232   2.430 -1.1605  2.5867  0.2833
   99MOL   H32335799   2.974   2.376   2.318  0.5549  0.0550 -0.9200
   99MOL   H32435800   2.982   2.503   2.439  0.2508  0.9457 -3.6190
   99MOL   H32535801   3.013   2.324   2.470  2.3991  3.1794  0.0180
   99MOL   C32635802   2.527   2.537   2.555 -0.1697  0.4374 -0.0405
   99MOL   C32735803   2.390   2.492   2.610  0.3168  0.2846  0.1389
   99MOL   C32835804   2.374   2.537   2.761  0.9153  0.0556  0.8824
   99MOL   C32935805   2.236   2.516   2.826  0.2420 -1.0275 -0.9088
   99MOL   C33035806   2.230   2.557   2.971  0.9496  0.1055  0.6786
   99MOL   C33135807   2.124   2.575   2.747 -0.7300  0.0716 -0.0944
   99MOL   H33235808   2.553   2.642   2.564  1.2420  0.3980 -3.0859
   99MOL   H33335809   2.604   2.489   2.614  0.0610  0.3245 -0.4286
   99MOL   H33435810   2.319   2.551   2.551 -1.1870 -2.3588 -0.7455
   99MOL   H33535811   2.446   2.495   2.831  0.6389 -0.9461  0.5657
   99MOL   H33635812   2.393   2.644   2.750 -1.2312  0.1484 -3.0507
   99MOL   H33735813   2.228   2.408   2.833  1.1202 -0.9743  1.2150
   99MOL   H33835814   2.252   2.663   2.961 -0.6041  0.4718  0.9551
   99MOL   H33935815   2.313   2.516   3.029  0.2329  1.2980  2.6059
   99MOL   H34035816   2.137   2.529   3.020  1.3241 -0.0783  1.2952
   99MOL   H34135817   2.032   2.548   2.800 -0.0415  2.4326  2.4243
   99MOL   H34235818   2.139   2.682   2.733  2.5107 -0.4759 -1.1554
   99MOL   H34335819   2.111   2.523   2.652  0.8807  1.3506 -1.0372
   99MOL   C34435820   2.337   2.351   2.599  0.6833  0.2072  0.4329
   99MOL   C34535821   2.424   2.239   2.655  0.4795  0.2472 -0.2582
   99MOL   C34635822   2.361   2.095   2.643 -0.3087 -0.4044  0.2248
   99MOL   C34735823   2.428   1.994   2.742 -0.1475 -0.3012 -0.3259
   99MOL   C34835824   2.565   1.949   2.694  0.3578 -0.4419 -0.3416
   99MOL   C34935825   2.323   1.891   2.791  0.5424  0.0611 -0.3727
   99MOL   H35035826   2.331   2.330   2.492 -1.3776  0.4180  0.4834
   99MOL   H35135827   2.234   2.337   2.632 -0.1189  3.9849 -0.1369
   99MOL   H35235828   2.446   2.260   2.760  2.3660 -1.8201 -0.2165
   99MOL   H35335829   2.254   2.103   2.661 -0.7738 -0.9131 -2.1185
   99MOL   H35435830   2.358   2.060   2.540 -0.5752  1.9296 -0.5970
   99MOL   H35535831   2.443   2.050   2.834 -1.1607 -0.2562 -0.1803
   99MOL   H35635832   2.618   2.028   2.641 -2.1428  1.9321  0.5781
   99MOL   H35735833   2.616   1.922   2.787 -1.1088 -1.8855  0.0588
   99MOL   H35835834   2.544   1.880   2.613  1.3128  0.5623 -1.4574
   99MOL   H35935835   2.296   1.822   2.712  3.0866  1.3901 -2.4794
   99MOL   H36035836   2.234   1.940   2.830  0.3879 -0.5889  0.1083
   99MOL   H36135837   2.373   1.829   2.865 -1.3821 -2.2088 -0.9322
   99MOL   H36235838   2.524   2.238   2.612  0.1118 -0.7246 -1.1077
  100MOL     C135839   7.461   6.609   6.166  0.3993  0.2207 -0.5288
  100MOL     C235840   7.422   6.648   6.315 -0.2092  0.4145 -0.0443
  100MOL     C335841   7.284   6.592   6.365  0.2506  0.4292  0.2585
  100MOL     C435842   7.239   6.443   6.332 -0.3767 -0.2195 -0.0656
  100MOL     C535843   7.100   6.398   6.363  0.7882 -0.0722 -0.2863
  100MOL     C635844   7.338   6.331   6.378 -0.2275  0.4334  0.4430
  100MOL     H735845   7.557   6.652   6.139  1.4093 -1.9570 -0.4858
  100MOL     H835846   7.462   6.502   6.148  0.1223  0.1035  0.1313
  100MOL     H935847   7.503   6.607   6.376  1.5456  1.3150 -1.7296
  100MOL    H1035848   7.283   6.602   6.474  2.9839 -0.2756  0.3946
  100MOL    H1135849   7.198   6.653   6.340 -0.5056  0.0554  1.8709
  100MOL    H1235850   7.252   6.441   6.223  0.4650 -1.7180  0.0550
  100MOL    H1335851   7.073   6.314   6.300 -2.0204  1.0134 -0.6086
  100MOL    H1435852   7.078   6.387   6.469  1.8453  1.3499  0.0935
  100MOL    H1535853   7.037   6.482   6.332  2.3014  0.4000 -2.1855
  100MOL    H1635854   7.335   6.316   6.486 -1.5241  0.0624  0.3703
  100MOL    H1735855   7.442   6.352   6.354  0.9107 -2.5484  2.5092
  100MOL    H1835856   7.308   6.238   6.331  2.0205 -1.0333  1.8320
  100MOL    H1935857   7.392   6.633   6.085  0.6213 -0.8866 -1.0548
  100MOL    C2035858   7.410   6.801   6.324 -1.0040  0.0821 -0.6941
  100MOL    C2135859   7.545   6.886   6.322  0.5902 -0.2105 -0.3526
  100MOL    C2235860   7.503   7.027   6.293  0.2496  0.6107  0.5640
  100MOL    C2335861   7.504   7.079   6.144 -0.3208  0.0894  0.4293
  100MOL    C2435862   7.380   7.032   6.059 -0.1431  1.1623  0.7775
  100MOL    C2535863   7.513   7.231   6.142 -0.7297  0.2997 -0.7355
  100MOL    H2635864   7.344   6.837   6.245  0.3920  1.3209 -1.3281
  100MOL    H2735865   7.347   6.839   6.404  0.3245  0.0224  0.3901
  100MOL    H2835866   7.604   6.846   6.240  2.3253 -1.1573  1.3400
  100MOL    H2935867   7.561   7.097   6.353 -1.2850  0.9183  1.7110
  100MOL    H3035868   7.401   7.044   6.329 -1.3656 -0.3173 -3.2884
  100MOL    H3135869   7.597   7.044   6.101  0.8330 -1.6022  4.0575
  100MOL    H3235870   7.394   6.924   6.044 -1.5118  1.0775  0.0273
  100MOL    H3335871   7.371   7.081   5.963  1.3763 -1.4940 -0.8071
  100MOL    H3435872   7.294   7.056   6.121 -1.0526  0.8145 -0.3523
  100MOL    H3535873   7.591   7.269   6.207  0.4428 -1.4290 -1.1008
  100MOL    H3635874   7.541   7.264   6.042 -0.8918  1.5656 -0.3675
  100MOL    H3735875   7.419   7.271   6.180 -0.7598 -1.9459  1.6507
  100MOL    C3835876   7.615   6.875   6.461 -0.0257 -0.0470  0.7437
  100MOL    C3935877   0.016   6.881   6.454 -0.0505  0.2944  0.4028
  100MOL    C4035878   0.078   6.743   6.419  0.3209  0.1165 -0.4152
  100MOL    C4135879   0.225   6.754   6.366 -0.5679 -0.1868  0.0215
  100MOL    C4235880   0.223   6.810   6.218 -0.2653 -0.0945 -0.2640
  100MOL    C4335881   0.295   6.614   6.367 -0.6272  0.1318 -0.3626
  100MOL    H4435882   7.597   6.780   6.512 -0.7313 -0.2274  0.1518
  100MOL    H4535883   7.572   6.962   6.509 -1.9087 -0.7030  0.2680
  100MOL    H4635884   0.031   6.946   6.368  0.6272 -0.3359  0.0432
  100MOL    H4735885   0.017   6.711   6.335 -0.0130 -1.2269  0.3209
  100MOL    H4835886   0.069   6.676   6.505 -2.5542  1.1264  0.1336
  100MOL    H4935887   0.276   6.827   6.429 -3.4249  0.9139  1.1214
  100MOL    H5035888   0.186   6.910   6.197 -0.9968 -0.4378 -0.6332
  100MOL    H5135889   0.325   6.814   6.181 -1.7012 -0.2714 -4.4584
  100MOL    H5235890   0.163   6.743   6.156 -1.2964  0.2156  0.3857
  100MOL    H5335891   0.245   6.543   6.302 -1.8492  0.3910  0.2907
  100MOL    H5435892   0.290   6.573   6.469  1.0506 -0.2143 -0.3891
  100MOL    H5535893   0.399   6.614   6.333 -0.8738  1.2758 -1.1204
  100MOL    C5635894   0.071   6.943   6.586  0.2336 -0.5056  0.2347
  100MOL    C5735895   0.079   7.099   6.592 -0.3555 -0.3648  0.6434
  100MOL    C5835896   0.202   7.147   6.513  0.2739  0.2391 -0.3442
  100MOL    C5935897   0.204   7.289   6.458  0.3611  0.3131  0.8706
  100MOL    C6035898   0.093   7.312   6.352 -0.2684 -0.7036 -0.2470
  100MOL    C6135899   0.342   7.329   6.404  0.2714  0.3276  0.0414
  100MOL    H6235900   0.174   6.913   6.605  0.0183 -0.5327  1.4271
  100MOL    H6335901   0.002   6.908   6.664 -0.0478  1.2880  0.8186
  100MOL    H6435902   7.743   7.134   6.540 -0.0420 -1.5556 -0.7183
  100MOL    H6535903   0.289   7.118   6.571  0.1744  1.5275  0.4715
  100MOL    H6635904   0.218   7.085   6.425 -2.8291 -1.3987  0.1806
  100MOL    H6735905   0.180   7.353   6.543 -1.5029  1.0980 -0.2282
  100MOL    H6835906   7.745   7.296   6.392 -0.1173  0.1275  0.4655
  100MOL    H6935907   0.116   7.237   6.276  3.8704  0.2138 -0.0108
  100MOL    H7035908   0.091   7.406   6.296 -0.0329 -0.6319 -0.1348
  100MOL    H7135909   0.352   7.435   6.381 -3.3117  1.6814  4.2452
  100MOL    H7235910   0.372   7.258   6.326  2.0102  0.3294  0.6804
  100MOL    H7335911   0.406   7.319   6.492 -2.2522 -0.8709  1.7792
  100MOL    C7435912   0.071   7.157   6.740 -1.1127  0.2787  1.3610
  100MOL    C7535913   7.682   7.164   6.799 -0.1932  0.5221 -0.4085
  100MOL    C7635914   7.615   7.295   6.752 -0.2085 -0.0957 -0.4785
  100MOL    C7735915   7.467   7.301   6.758  0.2700 -0.1163  0.0739
  100MOL    C7835916   7.401   7.209   6.636 -0.2794 -0.0260 -0.0966
  100MOL    C7935917   7.413   7.441   6.757  0.6811 -0.4275  0.5708
  100MOL    H8035918   0.112   7.258   6.747 -1.3687  0.3666  1.5936
  100MOL    H8135919   0.144   7.110   6.806  0.6080 -2.3733 -2.2483
  100MOL    H8235920   7.621   7.088   6.751  2.1969 -0.5481 -1.7888
  100MOL    H8335921   7.667   7.377   6.802 -0.5500 -0.4990  0.5584
  100MOL    H8435922   7.637   7.303   6.646  0.3691 -1.7561 -0.4950
  100MOL    H8535923   7.442   7.264   6.857  0.5863 -1.8568 -0.4778
  100MOL    H8635924   7.435   7.236   6.535  0.7367 -0.9490 -0.0004
  100MOL    H8735925   7.294   7.221   6.655 -0.2946 -1.7765  0.9950
  100MOL    H8835926   7.417   7.104   6.658 -0.3232 -0.5194 -2.2472
  100MOL    H8935927   7.450   7.502   6.840  2.0954 -1.7548  0.9420
  100MOL    H9035928   7.432   7.489   6.662  3.0919 -2.3540  0.0316
  100MOL    H9135929   7.305   7.444   6.775  0.4029 -1.8532 -0.7344
  100MOL    C9235930   7.682   7.151   6.958 -0.0718 -0.0952 -0.3895
  100MOL    C9335931   7.689   7.016   7.019  0.1962 -0.4084  0.4408
  100MOL    C9435932   7.718   7.011   7.174 -0.1261  0.7888 -0.5512
  100MOL    C9535933   0.100   7.078   7.219 -0.1627 -0.0801 -0.1572
  100MOL    C9635934   0.132   7.041   7.369 -0.0896  0.1706 -0.6127
  100MOL    C9735935   0.219   7.046   7.129  0.3323  0.7539 -0.7677
  100MOL    H9835936   0.008   7.210   7.006 -0.6241 -1.1061  1.8211
  100MOL    H9935937   7.593   7.196   7.002  0.0759 -1.0493  0.9235
  100MOL   H10035938   0.026   6.979   6.969  1.8638  4.3170 -0.4239
  100MOL   H10135939   7.709   6.912   7.217  0.6305  0.8859 -0.1594
  100MOL   H10235940   7.634   7.057   7.226 -1.1904 -0.1726 -1.3918
  100MOL   H10335941   0.080   7.185   7.213  0.7732  0.0094 -2.1226
  100MOL   H10435942   0.173   6.942   7.389  1.3527  0.8693 -0.0127
  100MOL   H10535943   0.043   7.054   7.429  2.3486  2.4853  2.6647
  100MOL   H10635944   0.201   7.117   7.404  0.2894 -0.5853  0.2928
  100MOL   H10735945   0.249   6.942   7.142  0.4613  1.0941  1.9764
  100MOL   H10835946   0.295   7.122   7.151  2.5379 -1.6483  0.1562
  100MOL   H10935947   0.197   7.052   7.023 -1.5219  0.7012 -0.4067
  100MOL   C11035948   7.578   6.918   6.988 -0.2293  0.7005  0.0224
  100MOL   C11135949   7.607   6.770   6.959  0.4289  0.5439  0.7054
  100MOL   C11235950   7.664   6.677   7.075 -0.1941 -0.2534 -0.1547
  100MOL   C11335951   7.585   6.664   7.210  0.2329 -0.6840 -0.0955
  100MOL   C11435952   7.676   6.641   7.330  0.4589 -0.0714  0.4489
  100MOL   C11535953   7.472   6.561   7.210  0.1977 -0.5326  0.0888
  100MOL   H11635954   7.516   6.950   6.905 -0.9779  1.9513  1.0283
  100MOL   H11735955   7.507   6.936   7.070  2.3994  0.1042  2.5120
  100MOL   H11835956   7.691   6.785   6.891  0.0737  0.4256  0.2399
  100MOL   H11935957   0.010   6.718   7.097 -0.7805  0.8836  0.3857
  100MOL   H12035958   7.679   6.573   7.046 -1.5954 -0.5421  0.1274
  100MOL   H12135959   7.527   6.757   7.219 -2.1677 -1.8549 -2.6976
  100MOL   H12235960   0.023   6.686   7.326  0.0001  1.0973  1.6626
  100MOL   H12335961   7.692   6.533   7.337  1.9026  0.1707  1.0896
  100MOL   H12435962   7.635   6.659   7.429 -0.0139  0.0346  0.2343
  100MOL   H12535963   7.405   6.580   7.127  1.6913 -0.0907 -1.0306
  100MOL   H12635964   7.409   6.567   7.299 -1.7270 -0.2507 -1.2781
  100MOL   H12735965   7.522   6.464   7.197  1.0602 -0.4929  2.6693
  100MOL   C12835966   7.500   6.717   6.869 -0.4469 -0.1380 -0.8282
  100MOL   C12935967   7.523   6.578   6.805 -0.0795 -0.0510 -0.5644
  100MOL   C13035968   7.638   6.573   6.706  0.1802  0.4329 -0.7926
  100MOL   C13135969   7.678   6.420   6.692  0.0458  0.3033  0.5292
  100MOL   C13235970   7.751   6.380   6.553  0.0177  0.4262 -0.3762
  100MOL   C13335971   0.020   6.387   6.804 -0.5929 -0.2498  0.0550
  100MOL   H13435972   7.487   6.783   6.783 -1.2635  0.3430 -0.3474
  100MOL   H13535973   7.410   6.717   6.930  2.4683  1.7338  3.7315
  100MOL   H13635974   7.544   6.512   6.889 -1.1447  1.1307  0.6466
  100MOL   H13735975   7.592   6.593   6.609 -1.9868 -1.4803 -0.2310
  100MOL   H13835976   7.710   6.653   6.721 -1.4793  1.9154 -0.5797
  100MOL   H13935977   7.595   6.354   6.716 -0.1285  0.2209 -0.2875
  100MOL   H14035978   7.750   6.272   6.539 -1.6617  0.3888 -0.1201
  100MOL   H14135979   0.096   6.428   6.548 -0.3756  1.2972  0.1257
  100MOL   H14235980   7.689   6.418   6.471  1.3020  1.9957 -0.6548
  100MOL   H14335981   7.750   6.429   6.902  0.7391  1.2392 -0.2525
  100MOL   H14435982   0.049   6.282   6.812  2.9477  0.5048 -1.6392
  100MOL   H14535983   0.112   6.444   6.791  0.7692 -2.1460  1.1391
  100MOL   C14635984   7.385   6.535   6.739 -0.3951  0.0392 -0.4033
  100MOL   C14735985   7.277   6.473   6.829  0.3559 -0.3862 -0.2272
  100MOL   C14835986   7.278   6.322   6.835  0.3321 -0.1222 -0.6741
  100MOL   C14935987   7.197   6.257   6.948  0.1190  0.1736  0.2665
  100MOL   C15035988   7.160   6.109   6.922 -0.4018  0.3144 -0.4884
  100MOL   C15135989   7.268   6.274   7.080  0.0184  0.2300 -0.0872
  100MOL   H15235990   7.404   6.473   6.652  3.1117 -0.0725  0.3447
  100MOL   H15335991   7.353   6.625   6.688  0.8031  1.2148  0.8611
  100MOL   H15435992   7.278   6.506   6.933 -0.0538  1.5548 -0.8200
  100MOL   H15535993   7.240   6.276   6.744 -2.1482  0.3079  0.0992
  100MOL   H15635994   7.382   6.290   6.837  1.1875  2.5484 -0.7335
  100MOL   H15735995   7.097   6.300   6.959  0.3482  0.7210  0.2248
  100MOL   H15835996   7.101   6.097   6.831 -1.2375  1.6626 -0.1381
  100MOL   H15935997   7.097   6.080   7.006 -3.1771  0.0140 -2.5771
  100MOL   H16035998   7.250   6.049   6.926 -2.2111 -2.4653  0.0857
  100MOL   H16135999   7.366   6.226   7.075  0.5655  1.5033 -2.8140
  100MOL   H16236000   7.210   6.222   7.156 -1.2464  1.5949 -0.1103
  100MOL   H16336001   7.287   6.376   7.113 -0.3983  0.1873  0.2814
  100MOL   C16436002   7.149   6.518   6.771  0.3270 -0.3853  0.3506
  100MOL   C16536003   7.105   6.654   6.842 -0.6761 -0.0454 -0.2846
  100MOL   C16636004   7.020   6.734   6.747  0.8805  0.8698 -0.4929
  100MOL   C16736005   7.104   6.812   6.635 -0.2747 -0.2335  0.2841
  100MOL   C16836006   7.025   6.848   6.506 -0.0865 -0.0165 -0.0074
  100MOL   C16936007   7.154   6.945   6.694  0.1374 -0.3567 -0.3797
  100MOL   H17036008   7.154   6.530   6.663 -1.2034 -1.8009  0.1063
  100MOL   H17136009   7.068   6.446   6.776 -0.2171  0.3600  2.9761
  100MOL   H17236010   7.187   6.722   6.864  0.5299 -1.9178  1.1995
  100MOL   H17336011   6.937   6.676   6.706  1.1328 -2.0102  2.8715
  100MOL   H17436012   6.959   6.809   6.796 -0.7583 -0.6879 -0.1072
  100MOL   H17536013   7.190   6.749   6.611 -1.1303 -1.5689  0.6389
  100MOL   H17636014   6.938   6.906   6.536 -1.4233 -3.8999  4.2455
  100MOL   H17736015   6.997   6.761   6.446 -1.8122  0.2464  0.3836
  100MOL   H17836016   7.089   6.910   6.442  1.9009 -0.8303  1.1522
  100MOL   H17936017   7.175   7.025   6.622  1.1134  0.8652  1.2282
  100MOL   H18036018   7.251   6.926   6.741  1.6578  1.3449 -2.6983
  100MOL   H18136019   7.091   6.990   6.771  1.5782  1.7646 -0.3953
  100MOL   C18236020   7.030   6.634   6.974 -0.0028  0.1362  0.2460
  100MOL   C18336021   7.019   6.745   7.065  0.3393 -0.1815  0.8389
  100MOL   C18436022   6.889   6.734   7.149 -0.5939  0.4218 -0.1392
  100MOL   C18536023   6.759   6.786   7.076 -0.0006 -0.3378  0.0696
  100MOL   C18636024   6.630   6.738   7.143 -0.1979 -0.1972 -0.1382
  100MOL   C18736025   6.755   6.943   7.061 -0.7350  0.1921 -0.2769
  100MOL   H18836026   7.089   6.565   7.033  0.1867  0.0894  0.0030
  100MOL   H18936027   6.932   6.587   6.960  0.4124 -1.6514  2.8890
  100MOL   H19036028   7.012   6.832   7.000  1.3311 -1.5978 -1.2139
  100MOL   H19136029   6.895   6.785   7.245  1.2789  0.1215 -0.0719
  100MOL   H19236030   6.874   6.633   7.186  0.9240  0.8162  1.6225
  100MOL   H19336031   6.754   6.738   6.978 -0.0935  1.3477 -0.7712
  100MOL   H19436032   6.619   6.782   7.242 -0.7115 -0.2456 -0.1752
  100MOL   H19536033   6.622   6.629   7.148  1.1598 -0.3898 -1.6771
  100MOL   H19636034   6.544   6.768   7.083  0.3497 -0.7419 -1.2158
  100MOL   H19736035   6.721   6.991   7.153  1.6590  1.8306 -0.2128
  100MOL   H19836036   6.682   6.980   6.989  1.6188  2.7736 -1.3962
  100MOL   H19936037   6.845   6.995   7.032  0.2478 -1.5469 -0.4081
  100MOL   C20036038   7.137   6.760   7.156  0.6972  0.0949  0.1827
  100MOL   C20136039   7.156   6.908   7.218  0.0450 -0.1302 -0.3531
  100MOL   C20236040   7.188   7.015   7.106 -0.1166  0.3680 -0.0534
  100MOL   C20336041   7.163   7.163   7.139 -0.0718 -0.1358 -0.5484
  100MOL   C20436042   7.243   7.253   7.045 -0.0960 -0.1349 -0.6125
  100MOL   C20536043   7.017   7.200   7.137  0.1431 -0.0426  0.2319
  100MOL   H20636044   7.234   6.725   7.118  1.0939 -0.6563  1.8378
  100MOL   H20736045   7.108   6.698   7.241 -1.4000  0.3638 -0.3221
  100MOL   H20836046   7.064   6.938   7.268  1.9140  2.4321  1.6610
  100MOL   H20936047   7.289   6.992   7.069 -0.8140 -2.8941 -0.1062
  100MOL   H21036048   7.133   6.993   7.014  1.1477  0.5215 -0.8598
  100MOL   H21136049   7.188   7.189   7.242  0.5276  0.8564 -0.9409
  100MOL   H21236050   7.349   7.233   7.066 -0.8460 -1.4099  2.2763
  100MOL   H21336051   7.221   7.359   7.056  1.0199  0.1220 -0.7346
  100MOL   H21436052   7.226   7.231   6.940 -1.7325 -4.1010  0.4024
  100MOL   H21536053   6.996   7.299   7.177  0.3362 -0.4109  1.2751
  100MOL   H21636054   6.957   7.132   7.198  0.0033 -0.0077  0.1312
  100MOL   H21736055   6.984   7.210   7.034  3.3351  1.3962 -0.7155
  100MOL   C21836056   7.262   6.918   7.323  0.5177  0.3573  0.3246
  100MOL   C21936057   7.214   6.931   7.461  0.1814  0.2681 -0.0744
  100MOL   C22036058   7.314   7.010   7.549  0.4358  0.1022  0.2542
  100MOL   C22136059   7.323   7.162   7.525 -0.4264  0.5191 -0.9949
  100MOL   C22236060   7.182   7.218   7.550  0.4291 -0.9308  0.3278
  100MOL   C22336061   7.430   7.220   7.615  0.7913 -0.1479  0.0263
  100MOL   H22436062   7.327   6.830   7.323 -0.9159 -0.7278  1.1506
  100MOL   H22536063   7.318   7.009   7.306  1.4048 -0.4159 -0.9673
  100MOL   H22636064   7.124   6.993   7.468 -0.2001 -0.0968 -1.5999
  100MOL   H22736065   7.314   6.986   7.655 -0.4089 -2.1313 -0.2240
  100MOL   H22836066   7.414   6.980   7.518  0.8915  0.5267  1.2952
  100MOL   H22936067   7.352   7.192   7.424 -0.6999  1.5103 -0.7797
  100MOL   H23036068   7.175   7.323   7.579 -0.0094 -1.2826  1.5324
  100MOL   H23136069   7.120   7.216   7.460 -0.1467  2.8680  0.5701
  100MOL   H23236070   7.118   7.148   7.604  2.1579 -3.6250 -0.9894
  100MOL   H23336071   7.435   7.328   7.603 -2.6881 -0.0622 -1.2759
  100MOL   H23436072   7.409   7.182   7.715 -1.6758  1.3426  0.1079
  100MOL   H23536073   7.523   7.173   7.582  0.1638 -0.9031 -0.7179
  100MOL   C23636074   7.179   6.797   7.527  0.0270  0.6388 -0.1038
  100MOL   C23736075   7.082   6.808   7.643 -0.2204 -0.2387 -0.3370
  100MOL   C23836076   7.114   6.712   0.006  0.1177  1.0771  0.1311
  100MOL   C23936077   7.243   6.756   0.088 -0.4271 -0.5977  0.2525
  100MOL   C24036078   7.215   6.846   0.207 -0.3990 -0.2924  0.5664
  100MOL   C24136079   7.323   6.623   0.137 -0.1141 -0.0464 -0.6103
  100MOL   H24236080   7.269   6.751   7.566 -0.0836  0.1833 -0.3758
  100MOL   H24336081   7.140   6.724   7.456  0.0443 -0.5220  1.0571
  100MOL   H24436082   7.097   6.906   7.689  1.5610 -1.0629  0.9139
  100MOL   H24536083   7.125   6.610   7.722  1.2908  1.0087  0.6655
  100MOL   H24636084   7.037   6.703   0.083  0.8325 -0.0706  0.7288
  100MOL   H24736085   7.312   6.802   0.017 -0.4583 -2.9372 -1.3486
  100MOL   H24836086   7.307   6.866   0.261 -1.2737  0.1157  1.9227
  100MOL   H24936087   7.137   6.821   0.279 -0.5543  0.2996  0.6060
  100MOL   H25036088   7.191   6.947   0.174  0.3343 -0.5755 -0.8806
  100MOL   H25136089   7.330   6.554   0.053 -1.3480 -1.3138  0.3059
  100MOL   H25236090   7.263   6.571   0.212  0.0575 -1.0269 -1.1417
  100MOL   H25336091   7.421   6.637   0.181 -0.4699 -2.6444  1.1677
  100MOL   C25436092   6.933   6.795   7.594 -0.2302  0.4612  0.4509
  100MOL   C25536093   6.813   6.854   7.680  0.1236 -0.0093 -0.1376
  100MOL   C25636094   6.699   6.931   7.596  0.4910  0.4928 -0.2146
  100MOL   C25736095   6.737   7.075   7.551  0.5563  0.3057  0.1493
  100MOL   C25836096   6.761   7.164   7.675  0.3990 -0.8613  0.3445
  100MOL   C25936097   6.633   7.121   7.444 -0.7181  0.4121 -0.1403
  100MOL   H26036098   6.928   6.844   7.497 -0.7963  0.1704  0.3298
  100MOL   H26136099   6.916   6.687   7.592 -2.3640  0.8180 -1.3040
  100MOL   H26236100   6.854   6.921   0.003  2.4776 -0.5024 -0.9350
  100MOL   H26336101   6.602   6.944   7.643 -1.1586  0.7443 -3.5137
  100MOL   H26436102   6.669   6.876   7.507  0.4038 -0.4600  0.4081
  100MOL   H26536103   6.830   7.071   7.496  0.0034 -2.1680 -0.6569
  100MOL   H26636104   6.669   7.175   7.733 -0.1175  1.1253 -0.7946
  100MOL   H26736105   6.807   7.257   7.641 -0.9559 -1.0878 -2.2525
  100MOL   H26836106   6.826   7.115   7.747  1.5062  0.0972  0.0152
  100MOL   H26936107   6.530   7.124   7.480 -0.6503 -0.9558  0.1852
  100MOL   H27036108   6.666   7.216   7.402  1.1613 -0.8279 -1.5366
  100MOL   H27136109   6.627   7.047   7.364  1.0922 -0.6192  0.6536
  100MOL   C27236110   6.749   6.748   0.016  0.2947 -0.6822 -0.3015
  100MOL   C27336111   6.663   6.804   0.129  0.4944  0.1665  0.0138
  100MOL   C27436112   6.544   6.713   0.153  0.4242 -0.0127 -0.2700
  100MOL   C27536113   6.423   6.727   0.057 -0.1087 -0.6725 -0.5884
  100MOL   C27636114   6.342   6.859   0.076 -0.0025  0.2012 -0.7451
  100MOL   C27736115   6.318   6.617   0.075  0.6722  0.0282  0.3254
  100MOL   H27836116   6.688   6.677   7.712  0.2500 -0.6997 -0.2314
  100MOL   H27936117   6.835   6.696   0.057  0.5458  0.1855  0.2885
  100MOL   H28036118   6.629   6.904   0.100  0.2267 -0.1622 -0.7969
  100MOL   H28136119   6.507   6.726   0.255  2.2829 -0.0155  0.4365
  100MOL   H28236120   6.591   6.614   0.153  0.0528 -0.1962 -1.1986
  100MOL   H28336121   6.461   6.723   7.707  1.5791 -3.0727  0.0838
  100MOL   H28436122   6.277   6.857   0.163 -0.5789  0.6717 -1.1622
  100MOL   H28536123   6.401   6.950   0.093  0.4525  0.1086 -1.7500
  100MOL   H28636124   6.264   6.877   0.002  0.9854  1.1901 -1.5746
  100MOL   H28736125   6.342   6.518   0.037  1.4361  0.2559  0.2063
  100MOL   H28836126   6.307   6.611   0.183 -1.7597 -0.9134  0.0659
  100MOL   H28936127   6.213   6.630   0.047  0.4500  1.9141  1.9610
  100MOL   C29036128   6.748   6.811   0.262  0.3441 -0.0072 -0.3698
  100MOL   C29136129   6.733   6.947   0.331 -0.7214 -1.1711 -0.5105
  100MOL   C29236130   6.587   6.987   0.377 -0.7559 -0.8250  0.1364
  100MOL   C29336131   6.545   7.135   0.405 -0.2727  0.3256 -0.5301
  100MOL   C29436132   6.506   7.201   0.277 -0.5096  0.4537 -0.0058
  100MOL   C29536133   6.429   7.146   0.507 -0.4850 -0.1204 -0.2826
  100MOL   H29636134   6.738   6.723   0.325  0.3176  1.4871  1.7604
  100MOL   H29736135   6.857   6.813   0.247  0.9772 -3.8834  3.0789
  100MOL   H29836136   6.753   7.014   0.247  1.7951  1.6892  2.2051
  100MOL   H29936137   6.559   6.927   0.463  1.5688 -0.6838  1.0063
  100MOL   H30036138   6.519   6.944   0.303 -1.4581 -0.9066  0.8262
  100MOL   H30136139   6.629   7.191   0.445  0.6554  0.3589 -2.4597
  100MOL   H30236140   6.590   7.208   0.208 -0.3039 -2.3264 -0.1013
  100MOL   H30336141   6.468   7.303   0.277  0.7373  0.9277  1.0082
  100MOL   H30436142   6.423   7.144   0.234 -0.8622 -0.8085  2.2449
  100MOL   H30536143   6.344   7.090   0.468 -0.4929 -0.0929 -0.3065
  100MOL   H30636144   6.408   7.253   0.519  0.0883  0.2756 -2.6657
  100MOL   H30736145   6.451   7.094   0.600  0.8036  0.7581 -0.0844
  100MOL   C30836146   6.825   6.979   0.447 -1.0451 -0.0008 -0.0691
  100MOL   C30936147   6.893   7.118   0.439 -0.3292  0.1446  0.1539
  100MOL   C31036148   6.903   7.179   0.581  0.5752  0.1699  0.4344
  100MOL   C31136149   6.988   7.096   0.686 -0.6150 -0.4468 -0.1874
  100MOL   C31236150   7.116   7.175   0.718  0.5262  0.3199 -0.8243
  100MOL   C31336151   6.909   7.057   0.805 -0.2380  0.4762  0.6471
  100MOL   H31436152   6.764   6.965   0.536 -2.4958 -1.2192 -1.2153
  100MOL   H31536153   6.910   6.911   0.453 -0.6524  0.2428 -2.2588
  100MOL   H31636154   6.834   7.193   0.386 -0.1880  1.3345  1.6170
  100MOL   H31736155   6.799   7.193   0.611  0.1355 -1.2675 -0.3428
  100MOL   H31836156   6.945   7.279   0.579  0.2621  0.3829  2.7940
  100MOL   H31936157   7.021   6.998   0.649  1.8985  0.0712  0.6044
  100MOL   H32036158   7.085   7.272   0.754 -0.8366  0.4019 -2.1624
  100MOL   H32136159   7.184   7.202   0.636  1.4780  0.2336 -0.0755
  100MOL   H32236160   7.186   7.126   0.787 -0.5104 -1.5348 -1.0540
  100MOL   H32336161   6.886   7.142   0.869  3.1275  2.5324 -0.7334
  100MOL   H32436162   6.811   7.022   0.773  0.0060 -0.1613  0.5738
  100MOL   H32536163   6.950   6.980   0.870 -0.6411  0.4486  0.8711
  100MOL   C32636164   7.025   7.117   0.362 -0.2362  0.2079 -0.2197
  100MOL   C32736165   7.090   7.247   0.315 -0.0418  0.5008 -0.3075
  100MOL   C32836166   7.001   7.313   0.212 -0.3340  0.3911 -0.1243
  100MOL   C32936167   7.045   7.451   0.159  0.1560  0.1675  0.4691
  100MOL   C33036168   6.943   7.498   0.056  0.0436 -0.3608  0.0266
  100MOL   C33136169   7.039   7.555   0.276  0.1103  0.2451 -0.2673
  100MOL   H33236170   7.007   7.057   0.272 -0.3674 -0.0142 -0.0450
  100MOL   H33336171   7.093   7.061   0.425  1.9571  0.9466 -1.8547
  100MOL   H33436172   7.105   7.300   0.409  1.0480 -1.3291  0.5723
  100MOL   H33536173   6.995   7.239   0.132  0.0054 -0.6418  0.7859
  100MOL   H33636174   6.896   7.313   0.242 -0.6644 -1.1397 -1.2449
  100MOL   H33736175   7.143   7.434   0.114 -0.3992 -0.4197 -0.5409
  100MOL   H33836176   6.836   7.493   0.076  0.3769  0.1918  2.0678
  100MOL   H33936177   6.947   7.448   7.711 -3.0628 -0.6281 -0.0083
  100MOL   H34036178   6.954   7.604   0.031 -0.3882  0.0811  1.6685
  100MOL   H34136179   7.083   7.651   0.252  0.9238 -0.0698 -0.0536
  100MOL   H34236180   6.937   7.576   0.307 -0.8974 -1.8256 -2.0042
  100MOL   H34336181   7.100   7.525   0.362 -0.2421  0.7939  0.1769
  100MOL   C34436182   7.229   7.216   0.252 -0.5602  0.0331 -0.2211
  100MOL   C34536183   7.340   7.321   0.302  0.2659  0.1892 -0.4031
  100MOL   C34636184   7.463   7.292   0.221 -0.1116  0.1906  0.5485
  100MOL   C34736185   7.589   7.368   0.254  0.2027 -0.6271 -0.6047
  100MOL   C34836186   7.701   7.359   0.148  0.1774 -0.3001  0.2898
  100MOL   C34936187   7.649   7.312   0.386  0.4684 -0.0827 -0.3837
  100MOL   H35036188   7.218   7.210   0.144 -2.0361 -3.4111  0.0719
  100MOL   H35136189   7.257   7.117   0.286 -0.4167  0.5374  1.1358
  100MOL   H35236190   7.357   7.306   0.409  2.0462  2.0355 -0.3930
  100MOL   H35336191   7.480   7.184   0.213  2.5724  0.3893  2.9042
  100MOL   H35436192   7.441   7.325   0.120  1.6522  0.4033  0.2145
  100MOL   H35536193   7.558   7.472   0.263  1.2642 -0.3302 -0.3427
  100MOL   H35636194   0.046   7.399   0.176 -1.1352  1.3247  2.7155
  100MOL   H35736195   7.716   7.251   0.138  1.0296 -0.3431  1.8942
  100MOL   H35836196   7.663   7.392   0.051 -0.2997 -0.0825  0.5530
  100MOL   H35936197   7.723   7.379   0.429  0.2998  0.0711 -0.3311
  100MOL   H36036198   7.708   7.222   0.367 -1.3733 -1.4534  0.2098
  100MOL   H36136199   7.578   7.299   0.467  0.2274  0.9953 -0.4129
  100MOL   H36236200   7.307   7.425   0.293 -0.4577  0.0373  0.4803
  101MOL     C136201   4.910   7.530   3.644 -0.0460  0.0432 -0.1613
  101MOL     C236202   4.812   7.437   3.565  0.0010 -0.7213 -0.5223
  101MOL     C336203   4.677   7.411   3.645  0.2464  0.1939 -0.3986
  101MOL     C436204   4.599   7.537   3.661  0.0394  0.5516  0.1709
  101MOL     C536205   4.488   7.497   3.762 -0.7573 -0.3328  0.6305
  101MOL     C636206   4.535   7.587   3.527  0.7721  0.8053 -0.1109
  101MOL     H736207   4.973   7.475   3.715  0.9959  1.2523 -0.1282
  101MOL     H836208   4.976   7.583   3.576  0.1113  0.2186  0.1238
  101MOL     H936209   4.781   7.483   3.471 -0.4228  0.5718  0.2495
  101MOL    H1036210   4.622   7.329   3.599 -0.3625  1.2180 -1.5203
  101MOL    H1136211   4.711   7.384   3.745 -0.8240  0.6256  0.0917
  101MOL    H1236212   4.660   7.612   3.711  0.7955  1.9105 -2.6999
  101MOL    H1336213   4.523   7.486   3.864 -0.7520 -1.1719  0.5414
  101MOL    H1436214   4.415   7.578   3.760 -1.1667 -0.6878  1.1749
  101MOL    H1536215   4.433   7.409   3.727 -1.8774  0.4432  0.4096
  101MOL    H1636216   4.601   7.641   3.461 -0.2342  2.2133  0.0215
  101MOL    H1736217   4.456   7.660   3.546 -0.2438 -0.1113 -0.7109
  101MOL    H1836218   4.479   7.507   3.478  1.2130  1.3941 -1.5879
  101MOL    H1936219   4.864   7.602   3.712 -2.5978 -0.5019 -1.2580
  101MOL    C2036220   4.892   7.306   3.529  1.0233  0.1142  0.0608
  101MOL    C2136221   5.001   7.326   3.421  0.1321 -0.1673  0.3663
  101MOL    C2236222   5.074   7.200   3.381 -0.2756  0.4300 -0.1832
  101MOL    C2336223   5.144   7.127   3.498  0.5831  0.3505  0.1569
  101MOL    C2436224   5.174   6.985   3.468  0.5912  0.6304  0.1889
  101MOL    C2536225   5.280   7.193   3.533 -0.5877 -0.0608 -0.5451
  101MOL    H2636226   4.940   7.268   3.619  0.6052  2.6250  1.4071
  101MOL    H2736227   4.817   7.234   3.497  0.3768  1.3652 -1.2920
  101MOL    H2836228   5.073   7.398   3.459 -0.4489  0.5293  0.1487
  101MOL    H2936229   5.148   7.219   3.303  0.6662  1.5071  0.9544
  101MOL    H3036230   5.003   7.125   3.348 -2.4213  0.9411  3.0879
  101MOL    H3136231   5.073   7.110   3.579  0.7732 -1.8505 -0.0951
  101MOL    H3236232   5.271   6.976   3.419 -1.4398 -1.1428 -3.8070
  101MOL    H3336233   5.102   6.932   3.405 -0.7690  2.4970  0.1444
  101MOL    H3436234   5.177   6.927   3.560  0.1674  0.3670  0.0390
  101MOL    H3536235   5.353   7.194   3.452  0.1994 -1.1227  0.1481
  101MOL    H3636236   5.271   7.289   3.584  0.0075 -0.1174 -0.3393
  101MOL    H3736237   5.341   7.135   3.600 -0.8552  1.2552  0.8625
  101MOL    C3836238   4.946   7.388   3.286  0.1168 -0.0403  0.1072
  101MOL    C3936239   4.840   7.304   3.203  0.5923  0.1542  0.1040
  101MOL    C4036240   4.897   7.286   3.060  0.1157  0.4685 -0.3634
  101MOL    C4136241   5.014   7.202   3.033 -0.3915 -0.0113  0.1782
  101MOL    C4236242   5.055   7.216   2.882 -0.2587  0.6467  0.1548
  101MOL    C4336243   4.994   7.053   3.053 -0.1740  0.3310  0.0906
  101MOL    H4436244   5.035   7.413   3.228  0.4058  0.1140  0.6108
  101MOL    H4536245   4.907   7.489   3.300 -2.9032 -1.2650  0.7614
  101MOL    H4636246   4.830   7.202   3.238  2.5874  0.3228  1.2715
  101MOL    H4736247   4.918   7.386   3.023  1.2754  0.5988  0.6267
  101MOL    H4836248   4.812   7.262   2.996 -0.2716  0.3871  0.1759
  101MOL    H4936249   5.093   7.242   3.095  0.2923 -3.6071  1.7656
  101MOL    H5036250   5.061   7.321   2.854 -2.2833  0.5348 -0.8802
  101MOL    H5136251   5.150   7.165   2.868 -0.3073  0.4529  0.5381
  101MOL    H5236252   4.989   7.161   2.815  1.8346 -0.8895 -0.7069
  101MOL    H5336253   4.907   7.011   3.002 -0.5389 -1.1959  1.9196
  101MOL    H5436254   4.992   7.019   3.157 -2.3085  3.1260  1.0422
  101MOL    H5536255   5.084   7.011   3.008 -2.3759 -0.9070 -3.3321
  101MOL    C5636256   4.698   7.357   3.214 -0.3720 -0.3428 -0.7989
  101MOL    C5736257   4.591   7.270   3.140  0.6517  0.2355  0.1268
  101MOL    C5836258   4.457   7.349   3.155  0.0034 -0.0638  0.2051
  101MOL    C5936259   4.434   7.466   3.062  0.1978  0.3896  0.3503
  101MOL    C6036260   4.309   7.555   3.105 -0.3758  0.6278 -0.4188
  101MOL    C6136261   4.422   7.428   2.915 -0.1091  0.5512  0.1232
  101MOL    H6236262   4.690   7.464   3.195  0.1858 -0.0304  0.5996
  101MOL    H6336263   4.671   7.351   3.320 -3.3326  1.2215 -1.4116
  101MOL    H6436264   4.616   7.264   3.034  2.2870  0.6361  0.4718
  101MOL    H6536265   4.371   7.282   3.148 -0.7417  0.8915  0.2142
  101MOL    H6636266   4.450   7.384   3.258 -1.6604  1.7829 -0.5180
  101MOL    H6736267   4.519   7.533   3.066  0.2400  0.3702 -0.1897
  101MOL    H6836268   4.209   7.521   3.077 -0.2586  0.8080 -1.0632
  101MOL    H6936269   4.321   7.657   3.069  1.5327 -0.0173 -1.7026
  101MOL    H7036270   4.311   7.574   3.213  1.5548 -0.1659 -0.2806
  101MOL    H7136271   4.502   7.360   2.888  0.2899  0.4689  1.5024
  101MOL    H7236272   4.423   7.515   2.850 -0.7258 -0.6697 -1.5442
  101MOL    H7336273   4.333   7.368   2.894  0.2124  0.2452 -0.3580
  101MOL    C7436274   4.573   7.120   3.189 -0.6575 -0.3904 -0.4605
  101MOL    C7536275   4.473   7.030   3.118  0.0870 -0.3889  1.1092
  101MOL    C7636276   4.460   6.890   3.176 -0.1079  0.0009 -0.8105
  101MOL    C7736277   4.409   6.890   3.325  0.2391 -0.9527  0.3585
  101MOL    C7836278   4.420   6.750   3.382  0.0575 -0.2800  0.1860
  101MOL    C7936279   4.265   6.939   3.334 -0.4484  1.0485  0.1391
  101MOL    H8036280   4.544   7.122   3.294  2.1669 -0.9166  0.3476
  101MOL    H8136281   4.673   7.076   3.187 -1.5455 -2.4648 -0.7080
  101MOL    H8236282   4.382   7.088   3.131 -0.2852 -1.4031  3.1868
  101MOL    H8336283   4.397   6.820   3.121 -2.2080  1.7176 -0.6273
  101MOL    H8436284   4.561   6.850   3.174 -0.8463 -2.0434  1.0005
  101MOL    H8536285   4.476   6.952   3.385 -0.0749 -0.6763  0.4246
  101MOL    H8636286   4.397   6.746   3.488 -0.2616 -0.0821  0.1266
  101MOL    H8736287   4.520   6.710   3.368 -0.8187 -1.5832 -2.7242
  101MOL    H8836288   4.351   6.685   3.329  0.3268  0.1980 -0.7718
  101MOL    H8936289   4.246   7.038   3.292 -1.1915  1.0485  0.4749
  101MOL    H9036290   4.203   6.870   3.276 -0.9270  0.7187  1.0301
  101MOL    H9136291   4.226   6.929   3.435  1.3275  1.7630  0.9145
  101MOL    C9236292   4.511   7.018   2.968  0.5124 -0.5091  0.1313
  101MOL    C9336293   4.406   6.947   2.876 -0.1524 -0.9548  0.2823
  101MOL    C9436294   4.270   7.011   2.893  0.5039  0.2357  0.3387
  101MOL    C9536295   4.152   6.957   2.816  0.5526 -0.4988  0.3422
  101MOL    C9636296   4.128   6.804   2.829 -0.1049  0.3303 -0.3939
  101MOL    C9736297   4.027   7.028   2.858  0.1370 -0.0772  0.3071
  101MOL    H9836298   4.543   7.110   2.918  0.9415  0.5381  2.2786
  101MOL    H9936299   4.604   6.961   2.960  1.8396  1.1821  2.8980
  101MOL   H10036300   4.414   6.843   2.907  2.5767 -0.8217  0.1598
  101MOL   H10136301   4.269   7.119   2.885 -1.4926  0.1730 -0.4966
  101MOL   H10236302   4.236   6.999   2.996 -2.2991  0.7050 -0.5098
  101MOL   H10336303   4.160   6.975   2.708  0.2443  1.1323  0.5890
  101MOL   H10436304   4.136   6.783   2.936 -1.5522 -0.5966 -0.4587
  101MOL   H10536305   4.210   6.746   2.787  1.6138  1.5845  1.1346
  101MOL   H10636306   4.034   6.766   2.789  0.4390 -2.2963  0.6753
  101MOL   H10736307   3.958   7.051   2.777  1.4854  1.1762 -0.4962
  101MOL   H10836308   4.045   7.127   2.900  1.2828 -0.0840 -0.1676
  101MOL   H10936309   3.977   6.971   2.937  0.6270 -1.5173 -0.3983
  101MOL   C11036310   4.460   6.932   2.730 -0.2899  0.0213 -0.0293
  101MOL   C11136311   4.596   6.861   2.697 -0.1939 -0.2868  0.2708
  101MOL   C11236312   4.581   6.711   2.722 -0.7785 -0.2122  0.8672
  101MOL   C11336313   4.628   6.646   2.858  0.1299  0.0152  0.3022
  101MOL   C11436314   4.781   6.624   2.872 -0.1237  0.0313 -0.2334
  101MOL   C11536315   4.556   6.523   2.894 -0.5020 -0.0774 -0.1473
  101MOL   H11636316   4.455   7.033   2.690 -0.1307  0.6428  1.4922
  101MOL   H11736317   4.384   6.883   2.669 -0.6586 -0.3885  0.7434
  101MOL   H11836318   4.682   6.901   2.752 -0.3838 -0.3229  0.5910
  101MOL   H11936319   4.652   6.662   2.654  0.0814 -0.5854  2.0269
  101MOL   H12036320   4.481   6.677   2.692 -2.1299  3.6700  0.7059
  101MOL   H12136321   4.601   6.717   2.936 -1.3399  1.5882 -1.5818
  101MOL   H12236322   4.820   6.621   2.974  0.5054 -1.1768 -0.5034
  101MOL   H12336323   4.831   6.712   2.831 -1.2706 -0.3375 -2.4865
  101MOL   H12436324   4.816   6.539   2.814  0.0803  0.6065 -0.9588
  101MOL   H12536325   4.567   6.448   2.816 -1.3882 -0.2998 -0.0647
  101MOL   H12636326   4.452   6.546   2.918 -0.3478  0.3271  0.1495
  101MOL   H12736327   4.598   6.488   2.988 -1.5200 -0.5514  0.1367
  101MOL   C12836328   4.617   6.887   2.546 -0.1392  0.4456  0.5772
  101MOL   C12936329   4.765   6.860   2.507  0.2541 -0.0451  0.3018
  101MOL   C13036330   4.853   6.982   2.534 -0.5510  0.5464 -0.0870
  101MOL   C13136331   5.006   6.959   2.546 -0.3349  0.3668  0.2500
  101MOL   C13236332   5.100   7.083   2.527 -0.0340 -0.2029  0.6241
  101MOL   C13336333   5.035   6.892   2.682 -0.2724 -0.0047 -0.2945
  101MOL   H13436334   4.612   6.992   2.515 -1.0795  0.1966 -0.1219
  101MOL   H13536335   4.546   6.827   2.489 -0.4089 -0.2732  1.6569
  101MOL   H13636336   4.816   6.782   2.564  0.2730  0.4720  1.0059
  101MOL   H13736337   4.843   7.041   2.443  0.7764  0.5188 -0.2707
  101MOL   H13836338   4.817   7.030   2.625 -0.8627 -3.4962  2.0575
  101MOL   H13936339   5.038   6.881   2.477  1.4256  2.3591 -1.2662
  101MOL   H14036340   5.093   7.128   2.428 -2.0193  0.9104  1.2314
  101MOL   H14136341   5.206   7.061   2.524 -0.1579 -0.4949 -4.2457
  101MOL   H14236342   5.076   7.161   2.600  2.1196 -1.2838  2.5460
  101MOL   H14336343   4.997   6.791   2.694 -0.0897 -0.5463 -3.6720
  101MOL   H14436344   5.142   6.882   2.697 -0.7579 -1.6019  2.2596
  101MOL   H14536345   5.009   6.949   2.771 -1.0623  1.0375 -1.1677
  101MOL   C14636346   4.777   6.804   2.361 -0.3726 -0.8571  0.0560
  101MOL   C14736347   4.735   6.662   2.339  0.0003 -0.6275  0.2508
  101MOL   C14836348   4.843   6.571   2.406 -0.3683  0.8284  0.2262
  101MOL   C14936349   4.818   6.417   2.414  0.4645 -0.2814 -0.0717
  101MOL   C15036350   4.948   6.339   2.395 -0.7565 -0.4763 -0.0410
  101MOL   C15136351   4.752   6.369   2.544  0.3078 -0.2371 -0.6641
  101MOL   H15236352   4.881   6.807   2.329 -0.6544 -0.4954 -0.8502
  101MOL   H15336353   4.716   6.865   2.294  1.6418  1.0063 -0.1527
  101MOL   H15436354   4.648   6.634   2.399  1.6193 -3.3191  1.4079
  101MOL   H15536355   4.928   6.585   2.339  0.8130 -1.0433  1.2831
  101MOL   H15636356   4.889   6.603   2.499 -2.2256  0.5620  1.2711
  101MOL   H15736357   4.748   6.389   2.336 -2.6182  2.3178  1.5810
  101MOL   H15836358   4.993   6.363   2.298 -2.6305 -0.3555 -0.8966
  101MOL   H15936359   4.915   6.235   2.398 -0.1682 -0.6681  0.0163
  101MOL   H16036360   5.015   6.356   2.479 -1.1564 -1.5760  0.5065
  101MOL   H16136361   4.689   6.444   2.592 -1.4977 -2.0718 -0.1153
  101MOL   H16236362   4.831   6.361   2.618 -1.5104  0.0154  1.3435
  101MOL   H16336363   4.680   6.289   2.539  0.5891 -0.4543 -1.3053
  101MOL   C16436364   4.705   6.627   2.189  0.6187 -0.3760  0.5329
  101MOL   C16536365   4.622   6.720   2.102 -0.1579 -0.0570  0.1694
  101MOL   C16636366   4.595   6.660   1.959 -0.1793 -0.3859 -0.6907
  101MOL   C16736367   4.709   6.678   1.862  0.0070  0.1222 -0.3872
  101MOL   C16836368   4.697   6.589   1.735  0.1946  0.6099 -0.1402
  101MOL   C16936369   4.736   6.826   1.826  0.0006  0.7629 -0.1506
  101MOL   H17036370   4.798   6.622   2.131  0.3783 -1.4406  0.2335
  101MOL   H17136371   4.664   6.527   2.182 -1.4396  0.4156  0.9821
  101MOL   H17236372   4.685   6.809   2.092  0.8807 -0.6469  1.4026
  101MOL   H17336373   4.565   6.556   1.973 -0.8276 -0.0519  0.5121
  101MOL   H17436374   4.507   6.709   1.916  0.3660  1.2045 -0.0424
  101MOL   H17536375   4.798   6.638   1.911 -1.0086 -1.2555  0.3781
  101MOL   H17636376   4.628   6.637   1.666  1.0072  0.8251 -0.8063
  101MOL   H17736377   4.665   6.489   1.764 -0.7064  1.8202  3.3041
  101MOL   H17836378   4.786   6.587   1.672  1.7412  2.0468  1.8774
  101MOL   H17936379   4.636   6.868   1.810 -1.4334 -2.6861 -0.7268
  101MOL   H18036380   4.791   6.830   1.732 -0.6348 -1.8619 -0.6765
  101MOL   H18136381   4.789   6.883   1.902  0.1783  0.1117  0.2205
  101MOL   C18236382   4.493   6.757   2.169  0.7755  0.4884 -0.2978
  101MOL   C18336383   4.425   6.899   2.131  0.0417  0.1851  0.4170
  101MOL   C18436384   4.294   6.930   2.210  0.2830  0.0000 -0.0550
  101MOL   C18536385   4.185   6.819   2.236 -0.0281  0.0556  0.4014
  101MOL   C18636386   4.065   6.874   2.316  0.5478 -0.3068  0.1075
  101MOL   C18736387   4.139   6.757   2.105  0.0269 -0.1582  0.5226
  101MOL   H18836388   4.499   6.753   2.277  0.5278 -1.0869 -0.3364
  101MOL   H18936389   4.419   6.684   2.135 -0.8432  2.5726 -1.4664
  101MOL   H19036390   4.407   6.891   2.024 -1.6179 -0.0657  0.6966
  101MOL   H19136391   4.244   7.014   2.161 -3.0849 -1.4678  0.7913
  101MOL   H19236392   4.323   6.964   2.310  1.4686 -0.6275 -0.1743
  101MOL   H19336393   4.223   6.743   2.304  0.6553  0.6557  0.6972
  101MOL   H19436394   4.104   6.923   2.406  0.8003  1.8217 -1.1212
  101MOL   H19536395   4.002   6.790   2.345  0.4946 -0.5459 -0.7135
  101MOL   H19636396   4.009   6.946   2.257 -1.3437 -2.7165 -1.1128
  101MOL   H19736397   4.136   6.829   2.023  0.6204 -2.3118 -1.4296
  101MOL   H19836398   4.037   6.721   2.116 -0.3203  0.7895  0.4447
  101MOL   H19936399   4.196   6.674   2.063  0.0265  0.2294 -0.2561
  101MOL   C20036400   4.524   7.020   2.142  0.0902 -0.0547 -0.0610
  101MOL   C20136401   4.459   7.170   2.126 -0.7354 -0.6382  0.6499
  101MOL   C20236402   4.399   7.188   1.987  0.1241 -0.3887  0.0012
  101MOL   C20336403   4.324   7.311   1.951 -0.2759  0.3621  0.6797
  101MOL   C20436404   4.291   7.326   1.796  0.1112  0.3845 -0.5661
  101MOL   C20536405   4.190   7.314   2.031  0.6566  0.3365 -0.0658
  101MOL   H20636406   4.605   7.010   2.070  0.1624  0.9006 -0.1220
  101MOL   H20736407   4.570   7.006   2.240 -0.8006  0.0769  0.3815
  101MOL   H20836408   4.379   7.187   2.198 -0.9715 -1.5639  0.6186
  101MOL   H20936409   4.482   7.192   1.916 -0.3353 -1.6272 -0.6249
  101MOL   H21036410   4.340   7.102   1.954 -2.2131  1.2138 -0.1201
  101MOL   H21136411   4.382   7.402   1.970 -0.5608  0.7393 -0.1876
  101MOL   H21236412   4.383   7.335   1.739 -0.0994 -1.3613 -1.1867
  101MOL   H21336413   4.228   7.415   1.785 -1.2365 -0.3881  0.7172
  101MOL   H21436414   4.245   7.238   1.751  0.5124 -0.8171  1.3140
  101MOL   H21536415   4.215   7.329   2.136 -2.3947  0.6412  0.6872
  101MOL   H21636416   4.148   7.213   2.023  1.1209  0.0653  0.8246
  101MOL   H21736417   4.113   7.378   1.987  2.3265  0.6121 -2.6316
  101MOL   C21836418   4.561   7.281   2.149 -0.2461  0.2772 -0.1406
  101MOL   C21936419   4.636   7.276   2.286  0.5865  0.4743  0.1130
  101MOL   C22036420   4.550   7.261   2.414 -0.1307 -0.1199  0.1297
  101MOL   C22136421   4.468   7.387   2.447  0.1621  0.3556 -0.9317
  101MOL   C22236422   4.321   7.346   2.490  0.3799 -0.2695  0.2810
  101MOL   C22336423   4.529   7.474   2.555 -0.2576 -0.1512 -0.6941
  101MOL   H22436424   4.647   7.280   2.083 -0.6110  0.5156 -0.6227
  101MOL   H22536425   4.525   7.382   2.130 -2.2214 -0.6664 -1.6137
  101MOL   H22636426   4.705   7.192   2.272 -1.3530 -0.8800 -1.5914
  101MOL   H22736427   4.494   7.168   2.405  1.6432 -1.3193  1.1840
  101MOL   H22836428   4.625   7.242   2.491 -1.4638  0.1233  1.5071
  101MOL   H22936429   4.467   7.458   2.364  3.2135  2.0970  0.4469
  101MOL   H23036430   4.296   7.255   2.435  0.2444 -0.6680  0.9998
  101MOL   H23136431   4.299   7.327   2.595 -1.6132 -1.0643 -0.2493
  101MOL   H23236432   4.253   7.423   2.451  0.1171 -1.1484 -1.0568
  101MOL   H23336433   4.470   7.558   2.589  1.8532  1.0146  0.1500
  101MOL   H23436434   4.552   7.418   2.645 -0.2015  0.1102 -0.5480
  101MOL   H23536435   4.621   7.525   2.525 -2.1929  3.4805 -0.7269
  101MOL   C23636436   4.735   7.395   2.304 -0.0238  0.4003 -0.6478
  101MOL   C23736437   4.855   7.396   2.205  0.1209  0.2207 -0.4634
  101MOL   C23836438   4.949   7.269   2.217  0.5866  0.5157 -0.3833
  101MOL   C23936439   5.021   7.223   2.083  0.0006 -0.9317  0.2508
  101MOL   C24036440   5.164   7.174   2.116  0.1727  0.4013  0.2643
  101MOL   C24136441   4.935   7.118   2.012  0.0145  0.1308 -0.2205
  101MOL   H24236442   4.785   7.383   2.400 -1.0029 -3.0416 -0.4799
  101MOL   H24336443   4.677   7.487   2.298 -1.9651 -0.8013 -0.8114
  101MOL   H24436444   4.824   7.391   2.101 -1.0011  0.6981 -0.1556
  101MOL   H24536445   4.905   7.178   2.258  0.8226  0.4070 -0.3704
  101MOL   H24636446   5.017   7.283   2.300  0.2797 -2.0894  0.3558
  101MOL   H24736447   5.024   7.305   2.011  0.8851  0.9269  2.3568
  101MOL   H24836448   5.220   7.106   2.051  2.5407  2.4657  0.0766
  101MOL   H24936449   5.161   7.119   2.210 -0.4918 -1.9033 -1.0695
  101MOL   H25036450   5.224   7.263   2.136  0.0076  0.4256  0.6749
  101MOL   H25136451   4.933   7.028   2.073  1.4436  0.1732 -0.1139
  101MOL   H25236452   4.972   7.095   1.912 -2.1842 -0.2594 -0.9962
  101MOL   H25336453   4.836   7.162   1.999  0.2500 -0.1165 -3.1936
  101MOL   C25436454   4.942   7.526   2.204  0.1308 -0.6963  0.1135
  101MOL   C25536455   4.856   7.651   2.151  0.2011 -0.0474  0.4683
  101MOL   C25636456   4.795   7.731   2.269 -0.4195  0.2376  0.6360
  101MOL   C25736457   4.676   0.065   2.226 -0.5748  0.0131 -0.1086
  101MOL   C25836458   4.646   0.173   2.332  0.4187  0.1608  0.1577
  101MOL   C25936459   4.544   7.748   2.199  0.4039  1.0802  0.9958
  101MOL   H26036460   4.979   7.544   2.305  2.3574  0.2238 -0.8312
  101MOL   H26136461   5.036   7.516   2.149  0.8431  1.1940  0.9388
  101MOL   H26236462   4.773   7.608   2.095 -0.4366 -1.2536  2.2905
  101MOL   H26336463   4.873   0.034   2.321  0.8903  0.2896 -1.3593
  101MOL   H26436464   4.767   7.666   2.352 -0.3667  1.5797  1.7239
  101MOL   H26536465   4.704   0.124   2.139  0.9433  0.1458  0.4618
  101MOL   H26636466   4.607   0.131   2.425 -1.7750  0.5252 -0.5596
  101MOL   H26736467   4.566   0.240   2.298  0.4492  0.4557  0.6568
  101MOL   H26836468   4.735   0.229   2.362  1.2636 -1.7393  1.2441
  101MOL   H26936469   4.454   0.056   2.184  1.5390  2.2506 -1.3897
  101MOL   H27036470   4.557   7.682   2.114 -2.3147  0.1626  1.2476
  101MOL   H27136471   4.521   7.676   2.278 -0.0487  1.0447  0.8316
  101MOL   C27236472   4.942   7.744   2.054  0.1929 -0.7716  0.6810
  101MOL   C27336473   4.973   7.676   1.916 -0.2811  0.5721 -0.1445
  101MOL   C27436474   4.846   7.675   1.824 -0.0292  0.5427 -0.3759
  101MOL   C27536475   4.779   7.535   1.826  0.3336  0.3516 -0.3209
  101MOL   C27636476   4.817   7.455   1.706  0.6817  0.2583  0.1665
  101MOL   C27736477   4.625   7.553   1.830 -0.1259  0.3800 -0.0983
  101MOL   H27836478   4.889   0.086   2.036 -0.8278 -0.8197  3.1213
  101MOL   H27936479   5.033   0.009   2.111  0.0943 -0.5727  0.7805
  101MOL   H28036480   4.998   7.574   1.943  1.7656  1.1741  0.3483
  101MOL   H28136481   4.869   7.693   1.719  0.7614 -4.2010 -1.1562
  101MOL   H28236482   4.781   0.006   1.851  0.2332  0.2463  1.2520
  101MOL   H28336483   4.806   7.481   1.916 -0.0033  0.5566 -0.0926
  101MOL   H28436484   4.921   7.422   1.712 -0.2164 -3.6728 -3.3227
  101MOL   H28536485   4.767   7.359   1.717  0.5745  0.2779 -0.1636
  101MOL   H28636486   4.791   7.496   1.609  0.1077 -1.0174 -0.2227
  101MOL   H28736487   4.576   7.462   1.796  0.5513 -0.3891  0.9275
  101MOL   H28836488   4.589   7.568   1.932  3.1427 -0.5784  1.2945
  101MOL   H28936489   4.586   7.637   1.774 -0.4719 -0.0532 -0.5055
  101MOL   C29036490   5.092   0.003   1.842  0.1752  0.1289  0.6625
  101MOL   C29136491   5.152   7.666   1.738 -0.0992 -0.1706 -0.0010
  101MOL   C29236492   5.198   0.005   1.620  0.2092  0.5179 -0.0189
  101MOL   C29336493   5.086   0.048   1.518  0.7151 -0.2160 -0.0961
  101MOL   C29436494   5.136   0.147   1.418 -0.6959 -0.1851  0.0710
  101MOL   C29536495   5.013   7.695   1.440  0.6425  0.4801  0.5335
  101MOL   H29636496   5.051   0.092   1.793 -0.0463 -1.2236 -1.6518
  101MOL   H29736497   5.169   0.033   1.913  2.2681  1.3582 -2.0540
  101MOL   H29836498   5.074   7.604   1.693 -1.4267  0.2861  1.6485
  101MOL   H29936499   5.269   7.699   1.561 -1.4349 -1.7970  0.2342
  101MOL   H30036500   5.239   0.094   1.669  0.5257 -0.8369  2.2657
  101MOL   H30136501   5.002   0.092   1.571 -0.5130 -0.5422 -1.7254
  101MOL   H30236502   5.058   0.214   1.382  0.5420  0.9046 -0.6410
  101MOL   H30336503   5.177   0.108   1.325  1.5844  0.3490  0.7984
  101MOL   H30436504   5.211   0.214   1.461 -1.5030  0.4533  0.4984
  101MOL   H30536505   4.942   7.737   1.369  0.7088  1.3368  0.9713
  101MOL   H30636506   4.956   7.630   1.507  0.9344  2.3486  2.6277
  101MOL   H30736507   5.081   7.634   1.381 -0.0143  0.1060  0.1556
  101MOL   C30836508   5.260   7.564   1.790 -0.5419  0.8060  0.2719
  101MOL   C30936509   5.331   7.463   1.687 -0.2538  0.1142  0.2315
  101MOL   C31036510   5.490   7.461   1.685 -0.0599  0.4219 -1.0147
  101MOL   C31136511   5.563   7.561   1.592  0.1685  0.5864 -0.0010
  101MOL   C31236512   5.707   7.564   1.634  0.1054 -1.0375 -0.3824
  101MOL   C31336513   5.549   7.525   1.439 -0.3605  0.1652  0.1892
  101MOL   H31436514   5.331   7.621   1.850 -1.1240  2.0608 -0.1962
  101MOL   H31536515   5.213   7.519   1.876 -1.5059  4.5494  1.8068
  101MOL   H31636516   5.310   7.509   1.590 -1.1076 -1.3307 -0.2748
  101MOL   H31736517   5.525   7.363   1.652 -1.9396 -0.0653 -1.5946
  101MOL   H31836518   5.530   7.478   1.786  0.8332 -5.4183 -0.1997
  101MOL   H31936519   5.520   7.658   1.615 -0.7279  0.3367 -0.6159
  101MOL   H32036520   5.730   7.458   1.622 -2.0806 -1.7955  1.6108
  101MOL   H32136521   5.712   7.580   1.742 -1.4524  0.5458 -0.5210
  101MOL   H32236522   5.772   7.625   1.572  0.3883 -1.4221 -0.4660
  101MOL   H32336523   5.568   7.419   1.422 -0.7744  0.3186 -1.3015
  101MOL   H32436524   5.458   7.550   1.385 -0.8591 -0.7485  0.6053
  101MOL   H32536525   5.628   7.576   1.383  1.2050 -2.4268 -0.0269
  101MOL   C32636526   5.254   7.328   1.693  0.4053  0.0107 -0.6054
  101MOL   C32736527   5.220   7.244   1.571 -0.3128 -0.2198 -0.2350
  101MOL   C32836528   5.137   7.330   1.472  0.0372  0.3656 -0.6958
  101MOL   C32936529   5.083   7.264   1.345 -0.5234  0.2874  0.0682
  101MOL   C33036530   4.956   7.329   1.292 -0.2543 -0.3997  0.5313
  101MOL   C33136531   5.191   7.266   1.234  0.4502 -0.1720  0.3549
  101MOL   H33236532   5.160   7.336   1.748 -0.7361  1.0726 -2.6635
  101MOL   H33336533   5.307   7.279   1.775 -1.7619 -1.1618  0.1275
  101MOL   H33436534   5.319   7.230   1.527 -1.6066 -2.8760 -2.5064
  101MOL   H33536535   5.048   7.365   1.526  0.8198  2.8418 -0.9311
  101MOL   H33636536   5.204   7.410   1.439  0.5832  0.4735  0.6200
  101MOL   H33736537   5.064   7.159   1.367 -0.3051  0.2480  0.0772
  101MOL   H33836538   4.968   7.430   1.251 -0.4867 -0.9508 -0.9107
  101MOL   H33936539   4.879   7.339   1.369 -0.7561 -2.7833  0.3828
  101MOL   H34036540   4.909   7.270   1.215 -0.4628  0.2735  0.1407
  101MOL   H34136541   5.238   7.363   1.217  0.9839 -0.3847  0.6285
  101MOL   H34236542   5.267   7.197   1.268  0.6555 -0.9494 -1.5990
  101MOL   H34336543   5.163   7.239   1.132 -1.0385 -0.5065  0.8346
  101MOL   C34436544   5.155   7.112   1.608  0.3658 -0.5932 -0.3218
  101MOL   C34536545   5.229   7.035   1.718 -0.4408  0.6457 -0.3907
  101MOL   C34636546   5.168   6.894   1.754 -0.6162  0.2669 -0.3355
  101MOL   C34736547   5.256   6.813   1.858 -0.0667  0.7057 -0.0603
  101MOL   C34836548   5.394   6.780   1.816 -0.3006  0.2628  0.0051
  101MOL   C34936549   5.162   6.704   1.924  0.0327 -0.5373  0.0240
  101MOL   H35036550   5.134   7.053   1.519  0.6416 -2.7655  1.0166
  101MOL   H35136551   5.060   7.137   1.657  1.0751 -0.3228  0.9234
  101MOL   H35236552   5.237   7.089   1.813  1.9901 -0.9718  0.3616
  101MOL   H35336553   5.072   6.914   1.802 -0.4955  0.5954 -0.2276
  101MOL   H35436554   5.148   6.842   1.660  0.8658 -0.4930 -0.2314
  101MOL   H35536555   5.276   6.883   1.939 -0.0660  1.4339 -0.6795
  101MOL   H35636556   5.430   6.706   1.887 -1.0741  1.4661  1.6694
  101MOL   H35736557   5.402   6.731   1.719 -1.7445  1.8498 -0.9397
  101MOL   H35836558   5.472   6.855   1.820  1.0993 -1.1482 -0.1570
  101MOL   H35936559   5.106   6.654   1.845  1.0694 -1.8453  0.0975
  101MOL   H36036560   5.089   6.742   1.996  0.6043  0.6590 -0.0028
  101MOL   H36136561   5.217   6.625   1.974  0.0595 -0.0260  0.8159
  101MOL   H36236562   5.332   7.030   1.684 -0.1616 -0.4207  0.6027
  102MOL     C136563   4.233   2.951   1.712 -0.2419 -0.5158 -0.3014
  102MOL     C236564   4.266   2.844   1.827  0.0426  0.0467  0.4248
  102MOL     C336565   4.247   2.701   1.751 -0.1816  0.1257  0.0652
  102MOL     C436566   4.303   2.566   1.814  0.0910  0.0543  0.4211
  102MOL     C536567   4.456   2.570   1.813  0.4390  0.0298  0.5589
  102MOL     C636568   4.238   2.442   1.751  1.3547 -0.2420 -0.5039
  102MOL     H736569   4.128   2.957   1.685 -0.9517 -0.9379  2.1765
  102MOL     H836570   4.257   3.050   1.752 -1.5425 -0.3422  0.0686
  102MOL     H936571   4.370   2.847   1.859  0.4889 -0.3567 -0.9718
  102MOL    H1036572   4.138   2.692   1.755 -0.2043  0.5466  0.5176
  102MOL    H1136573   4.280   2.712   1.648 -0.5999  0.3708 -0.0465
  102MOL    H1236574   4.274   2.568   1.919 -1.5994 -0.8381 -0.0184
  102MOL    H1336575   4.500   2.480   1.857 -1.5242 -0.5378  1.4068
  102MOL    H1436576   4.482   2.571   1.707 -1.4919 -1.6449  0.0276
  102MOL    H1536577   4.506   2.660   1.848 -1.0317  0.8868  0.4764
  102MOL    H1636578   4.247   2.456   1.643 -0.8416  2.8471 -0.3615
  102MOL    H1736579   4.132   2.450   1.771  1.3683  0.6143 -0.7507
  102MOL    H1836580   4.280   2.346   1.782 -0.2373 -0.8598 -0.2309
  102MOL    H1936581   4.298   2.948   1.625 -0.3412 -0.2995 -0.3825
  102MOL    C2036582   4.164   2.854   1.950  0.2535 -0.4785 -0.0802
  102MOL    C2136583   4.212   2.971   2.044 -0.0565 -0.6568 -0.0243
  102MOL    C2236584   4.084   3.004   2.135  0.5669  0.3388  0.1274
  102MOL    C2336585   3.992   3.120   2.091  0.6307  0.4452 -0.6237
  102MOL    C2436586   3.918   3.097   1.965  0.1001 -0.1662  0.4255
  102MOL    C2536587   3.889   3.159   2.201  0.8019  0.1708 -0.5058
  102MOL    H2636588   4.062   2.874   1.918 -0.1700 -0.1975  1.4294
  102MOL    H2736589   4.166   2.755   1.996 -1.3213 -0.1287  0.7630
  102MOL    H2836590   4.236   3.056   1.980  1.2388 -1.6078 -0.8158
  102MOL    H2936591   4.116   3.025   2.237  1.1962 -1.3180  0.2897
  102MOL    H3036592   4.017   2.919   2.143  0.5117  0.2924 -0.7392
  102MOL    H3136593   4.055   3.209   2.087  1.7120 -0.2506  0.6723
  102MOL    H3236594   3.864   3.189   1.947  1.7362  0.5394 -0.9877
  102MOL    H3336595   3.846   3.015   1.973 -0.8264  0.5513 -0.5443
  102MOL    H3436596   3.976   3.091   1.873  1.7104  0.5464  1.3655
  102MOL    H3536597   3.812   3.083   2.218  0.4121  1.3460  3.3592
  102MOL    H3636598   3.947   3.173   2.291  0.7700 -0.9836 -0.3016
  102MOL    H3736599   3.840   3.253   2.177  0.7627  0.2943  0.0669
  102MOL    C3836600   4.337   2.940   2.126 -0.1896 -0.1630  0.1764
  102MOL    C3936601   4.398   3.073   2.180 -0.6707  0.2009 -0.0857
  102MOL    C4036602   4.486   3.145   2.078  0.1077 -0.0741 -1.0994
  102MOL    C4136603   4.484   3.299   2.072  0.1808 -0.1139 -1.1159
  102MOL    C4236604   4.355   3.342   2.004  0.4250  0.1546 -0.4823
  102MOL    C4336605   4.612   3.352   2.006  0.1487  0.5930  0.4512
  102MOL    H4436606   4.418   2.889   2.073  1.4661  1.4004  1.1534
  102MOL    H4536607   4.309   2.872   2.206  1.2920 -0.0516  0.8097
  102MOL    H4636608   4.315   3.140   2.201  0.0499  0.9486  0.4245
  102MOL    H4736609   4.469   3.099   1.980 -0.5252 -1.4934 -0.3353
  102MOL    H4836610   4.587   3.115   2.104  0.4564  0.6201 -1.6318
  102MOL    H4936611   4.483   3.337   2.174  0.0262 -1.3585 -0.6345
  102MOL    H5036612   4.339   3.289   1.910  0.3057  1.2946 -1.1157
  102MOL    H5136613   4.270   3.320   2.069  0.2477  0.7782 -0.4936
  102MOL    H5236614   4.349   3.450   1.991  0.0255  0.0349 -1.3856
  102MOL    H5336615   4.617   3.460   2.005  0.3718  0.5834  0.2822
  102MOL    H5436616   4.618   3.333   1.899 -1.0411 -1.1256  0.6708
  102MOL    H5536617   4.702   3.317   2.057  0.1730  0.6215  0.4271
  102MOL    C5636618   4.463   3.042   2.313 -0.0056 -0.0638 -0.7773
  102MOL    C5736619   4.500   3.170   2.396 -0.8157 -0.4335  0.0816
  102MOL    C5836620   4.588   3.124   2.519  0.1078  0.2418 -0.3506
  102MOL    C5936621   4.731   3.073   2.495  0.4085 -0.3935 -0.3426
  102MOL    C6036622   4.802   3.080   2.634  0.0535  0.0838  0.5130
  102MOL    C6136623   4.810   3.153   2.396 -1.0668  0.6251 -0.7817
  102MOL    H6236624   4.552   2.984   2.291  2.0731  1.5507  2.8965
  102MOL    H6336625   4.399   2.979   2.375  0.0013  0.9756  0.3032
  102MOL    H6436626   4.563   3.234   2.334  1.0205 -1.8259  0.4521
  102MOL    H6536627   4.598   3.212   2.584  0.8793  0.1472 -0.3305
  102MOL    H6636628   4.528   3.055   2.578 -1.2921  0.9335 -0.9607
  102MOL    H6736629   4.717   2.972   2.457 -0.7139 -0.8948  1.3550
  102MOL    H6836630   4.758   3.011   2.705 -2.1934 -0.0052 -0.9289
  102MOL    H6936631   4.803   3.179   2.679 -0.2787 -0.7091  2.3148
  102MOL    H7036632   4.908   3.057   2.626  0.3124  0.5482  2.3251
  102MOL    H7136633   4.910   3.112   2.386 -1.0577  0.5027 -0.1982
  102MOL    H7236634   4.820   3.259   2.417  1.8677  0.8308 -3.0186
  102MOL    H7336635   4.756   3.149   2.301 -0.3089 -0.0889 -1.1850
  102MOL    C7436636   4.374   3.251   2.436  0.3291 -0.2688  0.3229
  102MOL    C7536637   4.393   3.386   2.518 -0.2778 -0.6252  0.4824
  102MOL    C7636638   4.255   3.448   2.555 -0.4043  0.1928  0.4266
  102MOL    C7736639   4.150   3.358   2.632 -0.5362 -0.5989 -0.4838
  102MOL    C7836640   4.024   3.440   2.663  0.5050 -0.0455 -0.9843
  102MOL    C7936641   4.195   3.277   2.761 -0.8324 -0.5433  0.2827
  102MOL    H8036642   4.306   3.178   2.480  3.3079 -2.5158  1.4105
  102MOL    H8136643   4.324   3.288   2.346  1.8339 -3.0052 -1.7207
  102MOL    H8236644   4.437   3.371   2.617  1.0352 -1.1620 -0.1584
  102MOL    H8336645   4.266   3.542   2.609 -0.2200 -0.8050  2.1896
  102MOL    H8436646   4.205   3.483   2.465  4.1201  0.7747 -2.0170
  102MOL    H8536647   4.114   3.280   2.564  0.7760 -0.5355 -1.2625
  102MOL    H8636648   3.993   3.495   2.574  1.6726 -1.1543 -2.1014
  102MOL    H8736649   4.043   3.515   2.740 -1.6825  0.1012 -0.5408
  102MOL    H8836650   3.938   3.395   2.712 -0.6867  2.2504 -0.9255
  102MOL    H8936651   4.116   3.237   2.825  0.5457 -2.4597  0.8413
  102MOL    H9036652   4.248   3.185   2.736  5.1066  2.1257  2.2984
  102MOL    H9136653   4.260   3.331   2.830 -1.1733 -1.2805  1.2070
  102MOL    C9236654   4.482   3.483   2.446 -0.5307 -0.0684  0.3351
  102MOL    C9336655   4.536   3.607   2.523  0.6220  0.5779 -0.2406
  102MOL    C9436656   4.659   3.563   2.612  0.1781 -0.0377 -0.0945
  102MOL    C9536657   4.721   3.671   2.700 -0.1626  0.1969  0.1959
  102MOL    C9636658   4.629   3.776   2.763  0.0083 -0.7767  0.1876
  102MOL    C9736659   4.800   3.603   2.807 -0.1019 -1.1812 -0.3059
  102MOL    H9836660   4.579   3.442   2.421 -0.7409  0.3225 -1.1599
  102MOL    H9936661   4.432   3.519   2.356  0.8719  1.8090  0.2813
  102MOL   H10036662   4.455   3.651   2.580 -0.1387 -0.9308 -0.1233
  102MOL   H10136663   4.740   3.528   2.548  2.0844  0.0907  2.1775
  102MOL   H10236664   4.644   3.475   2.676  2.4982  0.2141  0.8467
  102MOL   H10336665   4.795   3.736   2.652 -0.1312  1.3935  1.8298
  102MOL   H10436666   4.575   3.838   2.691 -1.5881 -1.9557  0.3306
  102MOL   H10536667   4.679   3.842   2.833 -1.6367  0.1926  0.4705
  102MOL   H10636668   4.556   3.737   2.834  2.1881 -1.9744  1.8333
  102MOL   H10736669   4.874   3.671   2.851 -0.6811 -0.7996  0.0903
  102MOL   H10836670   4.856   3.515   2.774  1.3338  0.0417 -1.1941
  102MOL   H10936671   4.736   3.582   2.893 -1.5701  0.1324 -1.0672
  102MOL   C11036672   4.581   3.718   2.422  0.0049  0.4282  0.5436
  102MOL   C11136673   4.456   3.790   2.368  0.4895 -0.2978 -0.1621
  102MOL   C11236674   4.468   3.945   2.399 -0.1460 -0.3234  1.2351
  102MOL   C11336675   4.386   3.999   2.515  0.5175  0.3768 -0.5189
  102MOL   C11436676   4.229   3.988   2.504  0.5255  0.0206  0.7528
  102MOL   C11536677   4.424   4.141   2.541 -0.4113 -0.4395  0.2817
  102MOL   H11636678   4.639   3.681   2.337 -0.5522  4.3547 -1.6692
  102MOL   H11736679   4.651   3.787   2.469  2.7129 -1.1064 -1.0914
  102MOL   H11836680   4.369   3.749   2.420 -0.9957 -1.3009 -3.3551
  102MOL   H11936681   4.433   4.006   2.315 -0.0014  0.8575  2.0091
  102MOL   H12036682   4.570   3.980   2.414  0.6832 -2.8846  1.6913
  102MOL   H12136683   4.407   3.950   2.610 -0.0370  0.6200 -0.2690
  102MOL   H12236684   4.193   4.037   2.414 -2.3593 -1.2099  1.1961
  102MOL   H12336685   4.164   4.018   2.586  1.4094  2.0135  0.7458
  102MOL   H12436686   4.204   3.882   2.502  0.7669 -0.1102  2.9984
  102MOL   H12536687   4.367   4.187   2.622  0.6080  0.6078  0.4127
  102MOL   H12636688   4.398   4.202   2.455 -2.4030  1.8277  2.3931
  102MOL   H12736689   4.529   4.157   2.564 -0.6376 -0.6892  1.5168
  102MOL   C12836690   4.437   3.768   2.217  0.0908 -0.4637  0.5210
  102MOL   C12936691   4.294   3.795   2.178  0.1991  0.1250 -0.2961
  102MOL   C13036692   4.215   3.663   2.175 -0.8850  0.4300  0.6651
  102MOL   C13136693   4.057   3.667   2.183  0.2575 -0.5684  0.7233
  102MOL   C13236694   4.001   3.522   2.177 -0.2672  1.0873  0.6975
  102MOL   C13336695   4.027   3.733   2.319  0.2955  0.3391  0.5451
  102MOL   H13436696   4.456   3.664   2.191  1.2534  0.1654 -1.2012
  102MOL   H13536697   4.510   3.835   2.172  0.3538 -0.7703  0.4866
  102MOL   H13636698   4.243   3.856   2.254 -0.3173 -2.5469  1.5706
  102MOL   H13736699   4.235   3.617   2.078  0.9652  0.5219  0.9801
  102MOL   H13836700   4.246   3.599   2.258  1.1501  0.2042 -0.2460
  102MOL   H13936701   4.014   3.728   2.104  1.5504 -1.2319 -0.5227
  102MOL   H14036702   4.029   3.463   2.090  0.6306 -1.7561  2.8108
  102MOL   H14136703   3.894   3.508   2.191 -0.4806  0.8453 -1.1002
  102MOL   H14236704   4.042   3.449   2.247 -0.8849  0.7155  0.6702
  102MOL   H14336705   4.048   3.840   2.325  0.8315  0.2607  0.0814
  102MOL   H14436706   3.918   3.723   2.315  0.3801 -0.3762 -0.0506
  102MOL   H14536707   4.069   3.682   2.405  0.6820  0.9071  0.6959
  102MOL   C14636708   4.293   3.852   2.038  0.4997  0.5598 -0.2910
  102MOL   C14736709   4.320   4.007   2.032  0.4172 -0.7611  0.1585
  102MOL   C14836710   4.190   4.089   2.064 -0.6666  0.6481 -0.1917
  102MOL   C14936711   4.205   4.238   2.068  0.0951  0.0027  0.0374
  102MOL   C15036712   4.076   4.315   2.046  0.0762 -0.9270  0.1954
  102MOL   C15136713   4.262   4.278   2.204 -0.2217  0.3885 -0.3308
  102MOL   H15236714   4.195   3.844   1.990  1.4061  1.3646 -2.3570
  102MOL   H15336715   4.365   3.794   1.979  0.7667 -0.4869  1.0396
  102MOL   H15436716   4.373   4.029   2.124 -0.1327 -0.5889  0.4346
  102MOL   H15536717   4.108   4.068   1.995 -1.3943  1.1450  0.5094
  102MOL   H15636718   4.149   4.051   2.158 -0.2738  3.3000  1.1094
  102MOL   H15736719   4.275   4.278   1.995  0.5281  0.5592  0.7496
  102MOL   H15836720   4.096   4.422   2.041 -4.0923 -0.0455  1.0250
  102MOL   H15936721   4.007   4.284   2.124 -0.7794 -0.2488 -0.2862
  102MOL   H16036722   4.029   4.285   1.953 -0.7285  0.5980  0.0972
  102MOL   H16136723   4.202   4.237   2.285 -0.3354 -0.5762 -0.9045
  102MOL   H16236724   4.264   4.387   2.216 -0.0984  0.4181 -0.5944
  102MOL   H16336725   4.360   4.231   2.207 -1.2543 -1.7459  0.8744
  102MOL   C16436726   4.398   4.038   1.902 -0.5440 -0.7234 -0.3144
  102MOL   C16536727   4.549   4.043   1.920  0.3979 -0.8111 -0.0082
  102MOL   C16636728   4.631   4.018   1.782 -0.4943 -0.2505 -0.3338
  102MOL   C16736729   4.636   3.876   1.741  0.1129 -0.0659 -0.3998
  102MOL   C16836730   4.709   3.865   1.609 -0.6169  0.0178  0.5020
  102MOL   C16936731   4.693   3.776   1.844  0.2270 -0.1784  0.1177
  102MOL   H17036732   4.378   3.969   1.820  0.2023 -0.3487 -0.8183
  102MOL   H17136733   4.357   4.131   1.862  0.3867  0.8165  2.2616
  102MOL   H17236734   4.583   3.969   1.992 -1.7753 -0.6511  1.2367
  102MOL   H17336735   4.579   4.066   1.700  0.4204 -0.2598 -0.9257
  102MOL   H17436736   4.734   4.056   1.782 -1.1543  1.6174  0.7306
  102MOL   H17536737   4.535   3.844   1.716  0.2745 -0.5513 -0.4450
  102MOL   H17636738   4.671   3.939   1.539  0.0914  0.9132  1.0618
  102MOL   H17736739   4.689   3.765   1.571 -1.1749 -0.5298  2.1900
  102MOL   H17836740   4.818   3.866   1.613 -0.5588 -2.3143  0.2581
  102MOL   H17936741   4.615   3.737   1.910 -0.5410 -1.1430 -1.3433
  102MOL   H18036742   4.781   3.821   1.890  1.5420 -1.2743 -1.2812
  102MOL   H18136743   4.734   3.688   1.794 -2.1832 -0.1019 -2.1009
  102MOL   C18236744   4.591   4.182   1.982  0.4932 -0.1461  0.1849
  102MOL   C18336745   4.734   4.200   2.034 -0.6331  0.7024  0.6022
  102MOL   C18436746   4.813   4.318   1.982 -0.9858 -0.3099 -0.0950
  102MOL   C18536747   4.970   4.318   1.986 -0.8057 -0.3800  0.3526
  102MOL   C18636748   5.033   4.212   1.902  0.4606  0.5117 -0.2865
  102MOL   C18736749   5.026   4.446   1.938  0.6345 -0.3466  0.0560
  102MOL   H18836750   4.512   4.211   2.051 -0.3023  0.8352 -1.0965
  102MOL   H18936751   4.577   4.252   1.899 -0.1044 -0.4197  0.0521
  102MOL   H19036752   4.798   4.125   1.987 -0.5938 -0.0177  1.7798
  102MOL   H19136753   4.780   4.411   2.027  0.9267  0.2952  0.1183
  102MOL   H19236754   4.786   4.329   1.876  1.0438  1.2742 -0.4786
  102MOL   H19336755   4.996   4.314   2.092  0.6664  2.5846  0.1560
  102MOL   H19436756   4.988   4.189   1.806 -1.2770 -1.6290  0.9838
  102MOL   H19536757   5.046   4.116   1.954  2.2677  1.5359  1.2340
  102MOL   H19636758   5.139   4.233   1.884  0.5996 -0.3960 -0.5411
  102MOL   H19736759   5.133   4.459   1.958  0.6413  0.6392 -0.5811
  102MOL   H19836760   4.971   4.525   1.989  2.6963  0.8980  0.4382
  102MOL   H19936761   5.008   4.458   1.831  0.5012 -0.0849  0.1058
  102MOL   C20036762   4.749   4.161   2.177 -0.5953 -0.1070  0.0854
  102MOL   C20136763   4.774   4.273   2.282 -0.2471 -0.1313  0.1918
  102MOL   C20236764   4.820   4.222   2.422  0.1653  0.1072 -0.2395
  102MOL   C20336765   4.941   4.127   2.431 -0.1058  0.1863 -0.1343
  102MOL   C20436766   5.070   4.195   2.400 -0.1354  0.0031 -0.1332
  102MOL   C20536767   4.942   4.068   2.571 -0.2642 -0.2726 -0.0580
  102MOL   H20636768   4.827   4.084   2.177  0.1773  0.6673 -0.8838
  102MOL   H20736769   4.663   4.100   2.202 -0.2405 -0.4079  0.6072
  102MOL   H20836770   4.859   4.329   2.243 -0.3717 -1.2428 -1.7504
  102MOL   H20936771   4.843   4.308   2.486 -0.4540 -0.7123  1.1005
  102MOL   H21036772   4.732   4.176   2.466  2.0064 -3.4993 -0.1176
  102MOL   H21136773   4.923   4.043   2.364  1.3604  0.0949 -0.4414
  102MOL   H21236774   5.050   4.277   2.330  1.4950  0.1248 -0.4716
  102MOL   H21336775   5.134   4.123   2.349  0.8354  2.4609 -2.5658
  102MOL   H21436776   5.126   4.229   2.487 -3.1546  0.9834  1.5057
  102MOL   H21536777   4.890   3.972   2.577  0.9509 -0.9115  0.5747
  102MOL   H21636778   4.913   4.139   2.648 -0.5229  0.4917 -0.8610
  102MOL   H21736779   5.044   4.030   2.581  1.3482  3.5402 -1.1181
  102MOL   C21836780   4.650   4.357   2.301 -0.1330 -0.0672  0.3320
  102MOL   C21936781   4.663   4.503   2.373 -0.2879 -0.1812 -0.1764
  102MOL   C22036782   4.528   4.540   2.441  0.0481  0.1719  0.5289
  102MOL   C22136783   4.518   4.498   2.586  0.1169 -0.6697 -0.8403
  102MOL   C22236784   4.596   4.602   2.674  0.3914  0.5972  0.7016
  102MOL   C22336785   4.372   4.498   2.636 -0.6653  0.8255  0.3587
  102MOL   H22436786   4.619   4.381   2.199 -0.3978 -0.9970  0.1928
  102MOL   H22536787   4.568   4.293   2.332 -0.2157 -1.4538 -2.5418
  102MOL   H22636788   4.733   4.496   2.456  0.9958 -0.0444 -1.2335
  102MOL   H22736789   4.522   4.648   2.432 -1.3084 -0.0327 -1.2284
  102MOL   H22836790   4.447   4.501   2.379  1.3427 -3.7346  1.1165
  102MOL   H22936791   4.559   4.398   2.600  0.7011 -0.2594  0.4064
  102MOL   H23036792   4.700   4.595   2.642 -0.1502 -0.3466 -0.8856
  102MOL   H23136793   4.540   4.695   2.667 -1.0643 -0.2794  0.5536
  102MOL   H23236794   4.585   4.570   2.778 -3.0020 -0.8724 -0.0466
  102MOL   H23336795   4.373   4.448   2.733 -1.0865 -0.5406 -0.3437
  102MOL   H23436796   4.324   4.596   2.642  1.2567  1.8282 -0.1504
  102MOL   H23536797   4.301   4.442   2.577 -0.5792  1.7465 -0.6298
  102MOL   C23636798   4.712   4.609   2.272  0.3431 -0.0011  0.2751
  102MOL   C23736799   4.833   4.693   2.320 -0.2202 -1.0052  0.2833
  102MOL   C23836800   4.852   4.813   2.230 -0.9138 -0.0523  0.1890
  102MOL   C23936801   4.768   4.932   2.269  0.1351  0.0722 -0.0737
  102MOL   C24036802   4.823   5.004   2.396 -0.5220  0.1164  0.3389
  102MOL   C24136803   4.761   5.029   2.152  0.7396  0.5302 -0.0212
  102MOL   H24236804   4.633   4.680   2.248  0.7916  0.1063 -0.9307
  102MOL   H24336805   4.737   4.560   2.178 -1.5958 -1.0365  0.2696
  102MOL   H24436806   4.819   4.740   2.417  0.0070  0.5250 -0.3988
  102MOL   H24536807   4.832   4.796   2.124  1.5763  0.2795 -0.3584
  102MOL   H24636808   4.957   4.841   2.229  0.0803 -3.6153  0.1871
  102MOL   H24736809   4.665   4.900   2.288  0.4908 -2.2718 -1.7976
  102MOL   H24836810   4.753   5.073   2.442  0.0743  1.3600 -0.6017
  102MOL   H24936811   4.915   5.055   2.367  1.6530 -3.6749  0.1624
  102MOL   H25036812   4.844   4.938   2.480 -2.9912 -0.5451  0.4745
  102MOL   H25136813   4.862   5.064   2.127 -0.2493  1.1678 -3.3925
  102MOL   H25236814   4.693   5.109   2.181  1.1089  0.5712  0.7464
  102MOL   H25336815   4.712   4.995   2.061 -0.2379 -1.3907  1.2001
  102MOL   C25436816   4.962   4.617   2.327 -0.3668  0.2684 -0.1185
  102MOL   C25536817   5.044   4.666   2.442 -0.1595  0.0056 -0.1093
  102MOL   C25636818   4.995   4.600   2.572 -0.3605  0.6381 -0.0425
  102MOL   C25736819   5.048   4.661   2.707 -0.5118 -0.2642  0.2399
  102MOL   C25836820   5.051   4.554   2.814 -0.0749 -0.0552 -0.0379
  102MOL   C25936821   4.974   4.796   2.748  0.2812  0.5307 -0.3696
  102MOL   H26036822   4.953   4.510   2.349  0.0841  0.1793 -0.3530
  102MOL   H26136823   5.008   4.607   2.228 -0.0582 -1.0325  0.1413
  102MOL   H26236824   5.019   4.770   2.457  0.2292  0.1556 -0.4737
  102MOL   H26336825   5.041   4.501   2.564 -3.4702 -0.9221  0.3209
  102MOL   H26436826   4.887   4.587   2.569 -0.6124  1.9141  2.4188
  102MOL   H26536827   5.151   4.691   2.691 -0.4826 -1.6912 -2.5446
  102MOL   H26636828   5.084   4.595   2.909 -0.6171  1.7363 -0.5983
  102MOL   H26736829   5.110   4.463   2.805  1.7378  1.0892  0.1127
  102MOL   H26836830   4.953   4.514   2.841 -0.7552  2.1665  0.9296
  102MOL   H26936831   5.001   4.871   2.674 -1.7109  0.8050 -0.8354
  102MOL   H27036832   4.866   4.786   2.734  0.2826 -1.4131  0.8594
  102MOL   H27136833   5.003   4.820   2.850 -0.0896 -1.3820  0.2145
  102MOL   C27236834   5.204   4.655   2.418  0.0817  0.4095 -0.0127
  102MOL   C27336835   5.266   4.724   2.283  0.6326 -0.0073 -0.4900
  102MOL   C27436836   5.240   4.874   2.281 -0.4533 -0.1581 -0.4399
  102MOL   C27536837   5.270   4.954   2.146 -0.3794 -0.0223 -0.0637
  102MOL   C27636838   5.239   5.103   2.160 -0.4485  0.4622 -0.4014
  102MOL   C27736839   5.208   4.899   2.017  0.1563 -0.3566 -0.1884
  102MOL   H27836840   5.255   4.698   2.504 -2.0368  1.3682  0.7884
  102MOL   H27936841   5.220   4.547   2.420  2.1128  0.6619 -1.1257
  102MOL   H28036842   5.214   4.669   2.205 -0.5039  0.5649 -0.1532
  102MOL   H28136843   5.294   4.910   2.368 -0.5383 -1.5146  0.1961
  102MOL   H28236844   5.134   4.893   2.298 -0.5727 -0.5512 -0.7177
  102MOL   H28336845   5.379   4.954   2.138 -0.2845  0.0913  1.1516
  102MOL   H28436846   5.254   5.160   2.068  0.0681 -2.0671 -1.9152
  102MOL   H28536847   5.134   5.101   2.187  0.2589 -2.9410  2.3582
  102MOL   H28636848   5.294   5.143   2.245  1.5705 -3.1889  0.0863
  102MOL   H28736849   5.099   4.901   2.013  0.1489 -2.1204 -1.2972
  102MOL   H28836850   5.256   4.949   1.933  1.1821 -2.7167 -1.0774
  102MOL   H28936851   5.234   4.793   2.026  0.2601 -0.2318  1.1523
  102MOL   C29036852   5.415   4.699   2.270  0.3705  0.0547  0.0346
  102MOL   C29136853   5.474   4.557   2.271 -0.7325  0.3502 -0.3796
  102MOL   C29236854   5.461   4.481   2.135  0.0316  0.1859 -0.3417
  102MOL   C29336855   5.514   4.325   2.130  0.3614 -0.6824 -0.2289
  102MOL   C29436856   5.414   4.220   2.169 -0.6977  0.5630  0.7312
  102MOL   C29536857   5.575   4.286   1.996  0.1593 -0.5654 -0.0502
  102MOL   H29636858   5.444   4.743   2.175 -2.0606 -0.1464 -0.8494
  102MOL   H29736859   5.456   4.761   2.350 -0.5267  2.6666 -1.4668
  102MOL   H29836860   5.410   4.497   2.337  0.6403 -0.0902  0.5786
  102MOL   H29936861   5.509   4.540   2.057  0.0392  0.8095  0.1285
  102MOL   H30036862   5.355   4.481   2.110  0.1033  0.2889 -0.6574
  102MOL   H30136863   5.594   4.320   2.204  1.2294  0.1540 -1.0830
  102MOL   H30236864   5.369   4.242   2.266 -1.6112 -2.2577  0.9933
  102MOL   H30336865   5.459   4.120   2.172 -0.1721  0.8090  1.0943
  102MOL   H30436866   5.334   4.217   2.096  1.6930  0.2192 -2.0004
  102MOL   H30536867   5.657   4.345   1.954  0.4977 -1.3323 -0.5035
  102MOL   H30636868   5.497   4.275   1.920  1.2700  0.5586 -1.3746
  102MOL   H30736869   5.612   4.183   1.988  0.0661 -0.4098 -3.7119
  102MOL   C30836870   5.617   4.569   2.323  0.0334 -0.4499 -0.0401
  102MOL   C30936871   5.643   4.562   2.476 -0.2626  0.8651 -0.0773
  102MOL   C31036872   5.595   4.424   2.538  0.0157 -0.3513  0.0420
  102MOL   C31136873   5.601   4.412   2.692  0.4194  0.7271 -0.0311
  102MOL   C31236874   5.529   4.511   2.777 -0.1737  0.3921  0.1611
  102MOL   C31336875   5.554   4.275   2.728  0.5927  0.4906  0.7869
  102MOL   H31436876   5.678   4.497   2.268 -0.5831  1.1730 -2.9336
  102MOL   H31536877   5.675   4.650   2.279  0.2867 -0.7189 -0.2071
  102MOL   H31636878   5.571   4.626   2.527 -1.3317  0.1496 -0.6562
  102MOL   H31736879   5.660   4.347   2.497 -1.1081 -0.2923 -1.9244
  102MOL   H31836880   5.493   4.410   2.500  0.0846  1.5800 -0.9354
  102MOL   H31936881   5.705   4.401   2.721  0.3107 -0.9810 -0.2583
  102MOL   H32036882   5.432   4.520   2.728  0.4813  0.9723 -1.0631
  102MOL   H32136883   5.583   4.605   2.771  2.0307 -0.8106  0.6894
  102MOL   H32236884   5.513   4.478   2.880  1.2545  0.0124  0.2752
  102MOL   H32336885   5.609   4.188   2.690 -0.8350 -0.0821  0.0083
  102MOL   H32436886   5.538   4.256   2.834  0.4625 -0.4391  0.6086
  102MOL   H32536887   5.458   4.256   2.681  1.7186  0.9876 -1.8248
  102MOL   C32636888   5.787   4.596   2.526 -0.2356 -0.0852 -0.4715
  102MOL   C32736889   5.858   4.712   2.470 -0.3134  0.6498 -0.1571
  102MOL   C32836890   5.995   4.730   2.542 -0.0411  0.4787 -0.0291
  102MOL   C32936891   6.099   4.627   2.548  0.0391  0.3041 -0.4787
  102MOL   C33036892   6.142   4.572   2.417 -0.2434  0.1276 -0.0707
  102MOL   C33136893   6.221   4.693   2.618  0.7368  0.1278 -0.5419
  102MOL   H33236894   5.845   4.507   2.501 -0.9384 -0.5916 -0.3128
  102MOL   H33336895   5.787   4.609   2.634 -1.5215 -0.5493 -0.4094
  102MOL   H33436896   5.880   4.689   2.366 -1.8259  1.1923 -0.6068
  102MOL   H33536897   6.042   4.816   2.494 -2.8767  2.3954  0.4883
  102MOL   H33636898   5.970   4.757   2.644  1.2473  1.7250 -0.0245
  102MOL   H33736899   6.066   4.541   2.607  0.6736  1.1184  1.0842
  102MOL   H33836900   6.173   4.652   2.349  0.1788 -1.1989 -1.4806
  102MOL   H33936901   6.060   4.520   2.366  0.0275  0.0993 -0.4865
  102MOL   H34036902   6.220   4.496   2.418 -0.7292 -0.3656  0.3936
  102MOL   H34136903   6.287   4.610   2.642 -0.4870 -0.3517  1.2510
  102MOL   H34236904   6.276   4.770   2.564  2.5387 -1.4593 -1.0223
  102MOL   H34336905   6.188   4.744   2.709 -1.8243  0.0451 -1.3796
  102MOL   C34436906   5.780   4.848   2.473 -0.4826  0.1597 -0.3542
  102MOL   C34536907   5.817   4.961   2.382 -0.1150 -0.4879 -0.0360
  102MOL   C34636908   5.699   5.059   2.358 -0.7689  0.7939 -0.9105
  102MOL   C34736909   5.738   5.173   2.262 -0.3988  0.5379  0.5014
  102MOL   C34836910   5.850   5.258   2.317 -1.0878  0.8601 -0.3793
  102MOL   C34936911   5.612   5.246   2.224  0.2937  0.7317 -0.3136
  102MOL   H35036912   5.785   4.879   2.577  0.6162  0.9133 -0.6198
  102MOL   H35136913   5.675   4.820   2.462 -1.1582  1.7403  1.7436
  102MOL   H35236914   5.834   4.903   2.291 -0.6754  0.2118 -0.5939
  102MOL   H35336915   5.625   5.002   2.301  0.5197 -0.7896 -1.0386
  102MOL   H35436916   5.663   5.099   2.452  0.7870  1.0556 -0.4182
  102MOL   H35536917   5.768   5.126   2.168  0.7584 -1.4448  1.8470
  102MOL   H35636918   5.941   5.199   2.310 -0.7139  1.2766  0.8135
  102MOL   H35736919   5.871   5.351   2.264  2.4328 -0.1927 -0.9812
  102MOL   H35836920   5.835   5.275   2.424 -0.1447 -2.9589  0.4160
  102MOL   H35936921   5.531   5.186   2.181  1.4501 -0.8937 -0.2780
  102MOL   H36036922   5.643   5.327   2.158  0.1508  1.2320  0.2273
  102MOL   H36136923   5.587   5.275   2.326 -0.0748  0.9097 -0.4529
  102MOL   H36236924   5.914   5.003   2.408 -0.0699 -0.7824  0.2703
  103MOL     C136925   4.854   0.541   6.164  0.3192 -0.0052  0.3041
  103MOL     C236926   4.912   0.639   6.275  0.1961 -0.1442  0.3925
  103MOL     C336927   4.928   0.561   6.403  0.7250 -0.1128  0.4140
  103MOL     C436928   4.992   0.617   6.525  0.0076  0.2176 -0.3791
  103MOL     C536929   5.125   0.695   6.504  0.1862  0.7572 -0.1910
  103MOL     C636930   5.023   0.501   6.625  0.1109 -0.3728  0.6020
  103MOL     H736931   4.908   0.448   6.146 -0.1060 -0.0259 -0.9284
  103MOL     H836932   4.747   0.523   6.170  0.6433 -1.7266  1.0452
  103MOL     H936933   5.009   0.663   6.231 -0.8554 -2.0221 -3.0865
  103MOL    H1036934   4.837   0.506   6.428  0.2781 -0.2124 -1.3207
  103MOL    H1136935   4.999   0.486   6.369  0.1540  0.7875 -2.9430
  103MOL    H1236936   4.927   0.690   6.574  3.3672  2.5244  0.7771
  103MOL    H1336937   5.164   0.710   6.605 -1.6972  1.3742  0.4679
  103MOL    H1436938   5.195   0.642   6.440  0.9424  0.5787  0.7702
  103MOL    H1536939   5.119   0.795   6.463 -0.7638  0.3805 -1.0054
  103MOL    H1636940   5.029   0.531   6.729  1.6830 -1.8290  0.9640
  103MOL    H1736941   5.121   0.463   6.595  0.8506  0.9062  1.3220
  103MOL    H1836942   4.946   0.424   6.626  0.8829 -1.1501  0.5049
  103MOL    H1936943   4.857   0.591   6.066  1.0207 -1.4645 -0.4365
  103MOL    C2036944   4.835   0.769   6.297 -0.2556  1.0640 -0.7260
  103MOL    C2136945   4.815   0.866   6.170 -0.8397 -0.2581  0.3560
  103MOL    C2236946   4.684   0.948   6.193 -0.5062  0.1457  0.0215
  103MOL    C2336947   4.554   0.870   6.163  0.7481 -0.0575  0.2266
  103MOL    C2436948   4.429   0.942   6.228 -1.1663  0.1575  0.2949
  103MOL    C2536949   4.533   0.839   6.014  0.3281 -0.7574  0.2116
  103MOL    H2636950   4.737   0.747   6.340  0.6098 -0.3306  0.5722
  103MOL    H2736951   4.882   0.832   6.373  0.5188 -2.2504  1.6538
  103MOL    H2836952   4.799   0.804   6.081  1.9052 -1.3746  0.5961
  103MOL    H2936953   4.697   1.034   6.127 -1.4499 -1.6856 -2.6128
  103MOL    H3036954   4.681   0.988   6.295 -0.0255  0.1952  0.0170
  103MOL    H3136955   4.565   0.780   6.224  0.0653 -0.4580 -0.2453
  103MOL    H3236956   4.407   1.046   6.201 -1.0981  0.8672  2.8365
  103MOL    H3336957   4.445   0.942   6.336  1.8647  0.1491 -0.1205
  103MOL    H3436958   4.337   0.895   6.192  0.2382 -0.6317 -2.3731
  103MOL    H3536959   4.619   0.796   5.963  0.5119 -2.1284  1.6644
  103MOL    H3636960   4.435   0.791   6.009 -0.4580  0.6762  1.6844
  103MOL    H3736961   4.513   0.936   5.968  3.0029 -0.9425 -1.4368
  103MOL    C3836962   4.928   0.969   6.156 -0.0610  0.4652  0.1093
  103MOL    C3936963   4.934   1.055   6.033 -0.6739 -1.0674 -0.3119
  103MOL    C4036964   5.068   1.036   5.968  0.6653 -0.1215  1.3455
  103MOL    C4136965   5.110   0.899   5.915  0.8854 -0.0514 -0.2575
  103MOL    C4236966   5.257   0.896   5.882 -0.6172  0.1496  0.2033
  103MOL    C4336967   5.033   0.859   5.792 -0.1570 -0.5285 -0.0009
  103MOL    H4436968   5.019   0.913   6.179  0.6399  1.1626 -0.9646
  103MOL    H4536969   4.917   1.033   6.243  0.3892 -0.3478  0.7821
  103MOL    H4636970   4.865   1.018   5.958  1.7427 -2.0011 -2.1198
  103MOL    H4736971   5.147   1.062   6.038  0.4131  2.1789  0.8202
  103MOL    H4836972   5.080   1.114   5.893 -0.4300 -1.0009  0.2256
  103MOL    H4936973   5.087   0.826   5.993 -1.5566  0.5557 -0.3609
  103MOL    H5036974   5.279   0.979   5.814 -0.9223  0.3738  0.3755
  103MOL    H5136975   5.329   0.916   5.961 -0.9306 -0.8285  0.7481
  103MOL    H5236976   5.298   0.803   5.842  1.4827 -0.0314  2.6944
  103MOL    H5336977   5.038   0.930   5.709 -3.4562  2.5816  2.2809
  103MOL    H5436978   4.929   0.875   5.819 -0.0143 -0.6388  0.6187
  103MOL    H5536979   5.051   0.755   5.766  1.5743  0.0968 -1.4700
  103MOL    C5636980   4.909   1.209   6.065  0.5634 -0.1862  0.6162
  103MOL    C5736981   4.862   1.300   5.944  0.1914  0.0341 -0.4169
  103MOL    C5836982   4.873   1.442   5.990  0.4083  0.1367 -0.1546
  103MOL    C5936983   5.016   1.494   6.019 -0.1657 -1.1508 -0.1048
  103MOL    C6036984   5.013   1.653   6.033 -0.5215  0.0259  0.5917
  103MOL    C6136985   5.116   1.454   5.904 -0.2283 -0.2838  0.2804
  103MOL    H6236986   4.988   1.252   6.126  0.4150 -1.2806  1.5893
  103MOL    H6336987   4.821   1.220   6.128  1.2828  5.7456  0.8834
  103MOL    H6436988   4.936   1.275   5.868  1.5775  2.6779  0.0041
  103MOL    H6536989   4.837   1.503   5.907 -1.3885 -0.0211  0.5037
  103MOL    H6636990   4.802   1.450   6.071 -2.3190 -0.8817 -2.3525
  103MOL    H6736991   5.050   1.460   6.117  1.9281 -0.1146 -0.4360
  103MOL    H6836992   4.931   1.678   6.100 -1.3675  1.8732 -1.1098
  103MOL    H6936993   4.986   1.707   5.942 -1.0627 -0.2855  0.5677
  103MOL    H7036994   5.111   1.681   6.072  0.6183 -1.0297 -1.4019
  103MOL    H7136995   5.075   1.480   5.807  2.4298  0.7551 -0.5934
  103MOL    H7236996   5.158   1.353   5.909  0.8839  0.1752  0.2523
  103MOL    H7336997   5.200   1.523   5.897 -1.6380  1.3701 -0.5821
  103MOL    C7436998   4.723   1.268   5.878 -0.1877  0.1117 -0.4993
  103MOL    C7536999   4.716   1.287   5.731  0.3135  0.1198  0.6325
  103MOL    C7637000   4.577   1.339   5.689 -0.4970  0.3537 -0.2079
  103MOL    C7737001   4.539   1.481   5.746  0.4235  0.2369  0.3720
  103MOL    C7837002   4.397   1.507   5.720  0.0788 -0.3928 -0.0468
  103MOL    C7937003   4.628   1.604   5.701 -0.1566  0.4015  0.1134
  103MOL    H8037004   4.652   1.325   5.938  0.6786  1.6383 -0.9142
  103MOL    H8137005   4.694   1.166   5.904  0.3217  0.5520  1.8994
  103MOL    H8237006   4.789   1.366   5.711  0.2514  0.4678  1.7215
  103MOL    H8337007   4.568   1.354   5.581 -3.4526 -2.0946 -0.3586
  103MOL    H8437008   4.504   1.265   5.721  0.7483 -1.9362 -2.5328
  103MOL    H8537009   4.547   1.484   5.855  1.4511 -3.2857  0.4636
  103MOL    H8637010   4.375   1.502   5.613  0.3907  1.0056 -0.1839
  103MOL    H8737011   4.358   1.606   5.747  1.6379  0.1678  0.1618
  103MOL    H8837012   4.330   1.432   5.762 -0.2126  0.7158  1.4849
  103MOL    H8937013   4.736   1.589   5.699 -0.3405 -1.1392  0.6976
  103MOL    H9037014   4.613   1.636   5.598  0.8924 -0.5095 -0.3331
  103MOL    H9137015   4.620   1.691   5.766  0.2749 -0.4865  1.3810
  103MOL    C9237016   4.761   1.154   5.663 -0.5752 -0.0456 -0.2432
  103MOL    C9337017   4.787   1.166   5.514 -0.1613 -0.2737 -0.4723
  103MOL    C9437018   4.939   1.171   5.472  0.2781  0.0578  0.2825
  103MOL    C9537019   5.029   1.276   5.540  0.4590  0.4063  0.4855
  103MOL    C9637020   5.180   1.266   5.509 -0.1230  0.2815  0.5899
  103MOL    C9737021   4.994   1.418   5.499  0.4947 -0.3229 -0.6211
  103MOL    H9837022   4.854   1.121   5.711 -0.2778  0.6844 -0.3054
  103MOL    H9937023   4.691   1.074   5.685 -0.2864 -0.5540 -1.1491
  103MOL   H10037024   4.745   1.259   5.475 -0.7354  0.2235  1.3267
  103MOL   H10137025   4.946   1.182   5.364  2.4095 -1.1046  0.2719
  103MOL   H10237026   4.970   1.070   5.501 -1.1489 -0.6529 -0.5959
  103MOL   H10337027   5.025   1.261   5.648  1.1037  1.3661  0.6453
  103MOL   H10437028   5.219   1.168   5.538 -0.1070  0.2992  0.6270
  103MOL   H10537029   5.248   1.339   5.553  0.5132 -0.1552  0.3448
  103MOL   H10637030   5.188   1.269   5.400  2.6969  1.3815  0.8015
  103MOL   H10737031   5.037   1.435   5.400  1.9233 -1.0338 -0.1420
  103MOL   H10837032   5.030   1.495   5.568 -1.1159  1.6321 -1.9049
  103MOL   H10937033   4.886   1.433   5.494  0.3656 -1.1876 -0.5074
  103MOL   C11037034   4.719   1.050   5.438  0.2752  0.0210 -0.0071
  103MOL   C11137035   4.706   1.059   5.289  0.3514  0.4726 -1.0312
  103MOL   C11237036   4.695   0.920   5.214  0.7609 -0.2988  0.0861
  103MOL   C11337037   4.823   0.845   5.207  0.3488 -0.3480 -0.4704
  103MOL   C11437038   4.933   0.889   5.097 -0.5181 -0.1718 -0.4502
  103MOL   C11537039   4.805   0.689   5.188 -0.4412 -0.6176 -0.6663
  103MOL   H11637040   4.621   1.026   5.480  0.5630  0.9960  1.2681
  103MOL   H11737041   4.778   0.961   5.462 -0.5266 -0.0839  1.6423
  103MOL   H11837042   4.793   1.101   5.239  0.2425 -0.1901 -1.7885
  103MOL   H11937043   4.663   0.955   5.116  0.5234 -0.6280  0.0429
  103MOL   H12037044   4.611   0.865   5.258 -0.5131 -0.0507 -1.9589
  103MOL   H12137045   4.862   0.855   5.308 -1.1526 -2.8784  0.4308
  103MOL   H12237046   4.899   0.891   4.994 -1.3122 -0.9207 -0.2100
  103MOL   H12337047   5.020   0.823   5.101 -0.0631  0.4964  1.2468
  103MOL   H12437048   4.973   0.988   5.118 -0.3503 -0.8747  2.9047
  103MOL   H12537049   4.738   0.673   5.103 -0.6642 -0.3258 -0.5467
  103MOL   H12637050   4.751   0.652   5.275 -1.4698  0.5097 -0.8049
  103MOL   H12737051   4.903   0.643   5.175 -1.0233 -2.2446  0.5620
  103MOL   C12837052   4.581   1.142   5.262 -0.5454 -0.3138  0.4553
  103MOL   C12937053   4.586   1.210   5.125  0.1854 -1.0843 -0.2385
  103MOL   C13037054   4.614   1.365   5.146  0.3675 -0.1613 -0.3087
  103MOL   C13137055   4.758   1.396   5.196  0.8610 -0.0497 -0.2742
  103MOL   C13237056   4.858   1.373   5.089 -0.3742  0.4443 -0.0460
  103MOL   C13337057   4.768   1.537   5.246  0.2402 -0.6433  0.0918
  103MOL   H13437058   4.565   1.213   5.343  0.8831  0.5755 -0.0292
  103MOL   H13537059   4.499   1.070   5.266  1.0563 -2.1775  0.6708
  103MOL   H13637060   4.676   1.165   5.081 -0.5669 -2.9602  0.1110
  103MOL   H13737061   4.594   1.433   5.062  1.6449 -0.3972 -0.8155
  103MOL   H13837062   4.552   1.399   5.228 -0.6059  0.3414 -1.2367
  103MOL   H13937063   4.787   1.324   5.273  0.6332 -1.2685 -1.3235
  103MOL   H14037064   4.817   1.424   5.002  1.6217  1.9458 -0.1649
  103MOL   H14137065   4.870   1.268   5.060  0.1454  0.6024 -0.4156
  103MOL   H14237066   4.961   1.390   5.119 -0.6441 -2.2401  2.5955
  103MOL   H14337067   4.689   1.551   5.320 -0.4861  1.7906 -1.0977
  103MOL   H14437068   4.864   1.557   5.294 -1.0859  0.8215  2.2127
  103MOL   H14537069   4.753   1.609   5.166 -0.7602 -1.7712 -0.7549
  103MOL   C14637070   4.463   1.183   5.046  0.3365  0.2798 -0.3392
  103MOL   C14737071   4.436   1.279   4.921  0.0430 -0.4760 -0.2183
  103MOL   C14837072   4.301   1.242   4.858 -1.2289  0.0888 -0.0274
  103MOL   C14937073   4.225   1.318   4.749 -0.0513  0.2970  0.4257
  103MOL   C15037074   4.094   1.256   4.711  0.3412  0.3356  1.1197
  103MOL   C15137075   4.205   1.460   4.803  0.5585  0.4296  0.2199
  103MOL   H15237076   4.382   1.181   5.120  0.3039  0.8637 -0.3567
  103MOL   H15337077   4.472   1.082   5.008  0.1590  0.4498 -0.8368
  103MOL   H15437078   4.419   1.374   4.970  2.1726 -1.0554  1.7661
  103MOL   H15537079   4.311   1.137   4.830  0.5057 -0.0046  0.8859
  103MOL   H15637080   4.245   1.233   4.952 -3.7118  1.2496 -1.3517
  103MOL   H15737081   4.280   1.331   4.656 -0.7142 -0.0432 -0.0086
  103MOL   H15837082   4.018   1.258   4.789  0.2926  3.5560  1.0884
  103MOL   H15937083   4.101   1.160   4.661  2.1731  0.1586  1.6543
  103MOL   H16037084   4.056   1.307   4.622  0.1363 -1.5738  0.0814
  103MOL   H16137085   4.141   1.503   4.726  0.4270 -0.4297 -0.1577
  103MOL   H16237086   4.299   1.515   4.812  1.5103 -1.1341  0.0975
  103MOL   H16337087   4.142   1.462   4.893 -0.0316  1.4430 -0.2107
  103MOL   C16437088   4.551   1.292   4.813 -0.4835 -0.2359 -0.5045
  103MOL   C16537089   4.563   1.413   4.715  0.2109 -0.4750  0.1734
  103MOL   C16637090   4.623   1.533   4.783 -0.0268 -0.6537 -0.7782
  103MOL   C16737091   4.613   1.667   4.698 -0.0158 -0.3818  0.0431
  103MOL   C16837092   4.466   1.702   4.662 -0.1935 -0.0730 -0.2199
  103MOL   C16937093   4.682   1.779   4.781  0.6472 -0.1392  0.4427
  103MOL   H17037094   4.644   1.298   4.871  0.8067 -0.7597 -2.4785
  103MOL   H17137095   4.561   1.202   4.753  0.6868 -1.0561  0.8849
  103MOL   H17237096   4.462   1.429   4.679  0.2467  0.0501  0.3020
  103MOL   H17337097   4.555   1.540   4.868 -0.9882  1.9694 -1.6999
  103MOL   H17437098   4.728   1.517   4.810 -0.4326 -0.6482  0.8555
  103MOL   H17537099   4.674   1.656   4.608  1.7511  0.7310  1.0534
  103MOL   H17637100   4.395   1.712   4.744 -0.4253  0.9667 -0.5384
  103MOL   H17737101   4.426   1.634   4.586 -0.0266 -0.1902 -0.2055
  103MOL   H17837102   4.454   1.792   4.603 -2.7838 -0.4053 -0.2475
  103MOL   H17937103   4.651   1.780   4.886  1.0084  0.8003  0.5518
  103MOL   H18037104   4.651   1.873   4.735 -1.5162 -1.2221 -0.3644
  103MOL   H18137105   4.791   1.769   4.791  0.8027  1.5530  0.5905
  103MOL   C18237106   4.648   1.375   4.590  0.0506  0.1356  0.2125
  103MOL   C18337107   4.595   1.256   4.499  0.2279  0.3513  0.9113
  103MOL   C18437108   4.498   1.327   4.396  0.2266 -0.2656  0.2192
  103MOL   C18537109   4.405   1.230   4.328 -0.1397  0.7937 -0.1937
  103MOL   C18637110   4.285   1.195   4.423 -0.5399 -0.4486  0.2530
  103MOL   C18737111   4.355   1.274   4.193  0.1509 -0.8916 -0.3874
  103MOL   H18837112   4.744   1.339   4.625 -0.9867 -3.6559 -0.6843
  103MOL   H18937113   4.659   1.465   4.528  1.3660  0.7458  1.3026
  103MOL   H19037114   4.535   1.184   4.554 -1.4058  0.2623 -0.9101
  103MOL   H19137115   4.557   1.386   4.326 -2.2257  1.9540 -0.0705
  103MOL   H19237116   4.428   1.392   4.448 -1.0358 -1.8547  0.5693
  103MOL   H19337117   4.453   1.133   4.315  1.3510  1.5041  0.0350
  103MOL   H19437118   4.229   1.288   4.433  0.9961  0.6322 -0.9969
  103MOL   H19537119   4.319   1.162   4.521  2.5499  3.4729  0.6038
  103MOL   H19637120   4.226   1.123   4.366  0.9236 -0.9528 -0.6605
  103MOL   H19737121   4.441   1.273   4.126 -0.5739  1.0459 -1.3824
  103MOL   H19837122   4.317   1.376   4.197  0.6205 -0.7787  1.6013
  103MOL   H19937123   4.282   1.202   4.156  0.6219 -0.5968 -1.9164
  103MOL   C20037124   4.709   1.175   4.428  0.3248  0.5656  0.4931
  103MOL   C20137125   4.781   1.073   4.523 -0.1581  0.6173  0.7286
  103MOL   C20237126   4.919   1.129   4.576 -0.1056 -0.4737  0.3850
  103MOL   C20337127   4.977   1.073   4.700  0.1772  0.7488  0.4599
  103MOL   C20437128   5.122   1.114   4.723 -0.3555  0.1737 -0.6645
  103MOL   C20537129   4.894   1.132   4.808 -0.1928 -0.0483  0.5936
  103MOL   H20637130   4.775   1.251   4.386  0.4639  0.6594  0.8744
  103MOL   H20737131   4.684   1.115   4.341 -0.9747  2.4264 -0.4445
  103MOL   H20837132   4.718   1.062   4.611 -1.3802  1.0862 -0.0872
  103MOL   H20937133   4.983   1.112   4.489  1.5451  0.0659  1.4803
  103MOL   H21037134   4.916   1.237   4.581 -2.5794 -0.4808 -0.4417
  103MOL   H21137135   4.969   0.966   4.715  0.4545  0.7225  0.4320
  103MOL   H21237136   5.167   1.074   4.814 -0.4684 -1.2397 -1.2082
  103MOL   H21337137   5.132   1.222   4.731 -2.8876  0.2954  1.6308
  103MOL   H21437138   5.185   1.074   4.644 -1.9942 -1.9000 -0.9675
  103MOL   H21537139   4.816   1.066   4.847 -1.3890  0.2528 -1.2350
  103MOL   H21637140   4.843   1.227   4.789 -0.4485 -0.6091 -1.6197
  103MOL   H21737141   4.959   1.154   4.893  1.5094 -1.1607 -0.4139
  103MOL   C21837142   4.782   0.929   4.467  0.1849  0.0495  0.9999
  103MOL   C21937143   4.657   0.849   4.480 -0.5149  0.3281  0.0389
  103MOL   C22037144   4.649   0.785   4.622 -0.6001  0.4978 -0.3458
  103MOL   C22137145   4.508   0.770   4.689  0.3978 -0.6538  0.0682
  103MOL   C22237146   4.538   0.674   4.800  0.0275  0.3664  0.1566
  103MOL   C22337147   4.466   0.908   4.739  0.3780 -0.0789  0.1877
  103MOL   H22437148   4.795   0.932   4.359 -1.3612  0.9364  0.8234
  103MOL   H22537149   4.867   0.879   4.514  1.5471  2.1153  0.7979
  103MOL   H22637150   4.576   0.922   4.471 -0.6714  0.2039  0.4202
  103MOL   H22737151   4.693   0.686   4.611 -3.7298 -1.0172  0.1635
  103MOL   H22837152   4.714   0.837   4.693 -0.3352 -3.4053  2.4234
  103MOL   H22937153   4.427   0.731   4.627  1.2186 -1.6790 -0.3687
  103MOL   H23037154   4.451   0.635   4.854  0.6646 -0.7903  0.3617
  103MOL   H23137155   4.587   0.580   4.774 -2.0335 -0.7883  0.3311
  103MOL   H23237156   4.601   0.728   4.870  0.7455  0.5538 -0.6351
  103MOL   H23337157   4.445   0.978   4.658 -0.3068  0.9682  1.2427
  103MOL   H23437158   4.378   0.911   4.804 -0.6415 -1.2155 -1.1039
  103MOL   H23537159   4.549   0.961   4.786 -0.2993  1.1520  0.0171
  103MOL   C23637160   4.650   0.730   4.378 -0.2734  0.2663 -0.4109
  103MOL   C23737161   4.596   0.766   4.238  0.5172  0.1449 -0.1910
  103MOL   C23837162   4.441   0.793   4.245 -0.7710 -0.3176 -0.1795
  103MOL   C23937163   4.367   0.830   4.116 -0.4333  0.1506  0.1807
  103MOL   C24037164   4.216   0.831   4.155 -0.6888 -0.2269 -0.6416
  103MOL   C24137165   4.397   0.959   4.049 -0.9642  0.0898  0.2887
  103MOL   H24237166   4.596   0.643   4.414  0.0826  0.7234  1.2899
  103MOL   H24337167   4.747   0.688   4.354 -1.3180 -1.9713 -0.8681
  103MOL   H24437168   4.642   0.859   4.204  2.5712 -1.3551 -1.6316
  103MOL   H24537169   4.424   0.865   4.325 -3.7911 -0.3104 -0.7494
  103MOL   H24637170   4.392   0.700   4.275  2.2426 -1.5209  1.1675
  103MOL   H24737171   4.376   0.748   4.045 -0.9150  0.6573 -0.4715
  103MOL   H24837172   4.194   0.924   4.208 -0.2045 -0.5303  0.1029
  103MOL   H24937173   4.182   0.747   4.216  1.2862 -0.4167  0.2499
  103MOL   H25037174   4.156   0.841   4.065 -1.7697  0.3105  0.1203
  103MOL   H25137175   4.376   1.042   4.117  3.0126  1.0751  0.4661
  103MOL   H25237176   4.348   0.985   3.955  0.0768  1.0734  0.0064
  103MOL   H25337177   4.503   0.980   4.037 -0.7671 -2.3633 -2.9916
  103MOL   C25437178   4.631   0.653   4.135 -0.1113  0.2912  0.4536
  103MOL   C25537179   4.666   0.700   3.988  0.3054 -0.3929  0.0374
  103MOL   C25637180   4.800   0.778   3.982  0.1272 -0.1434 -0.1386
  103MOL   C25737181   4.841   0.845   3.855 -0.0041 -0.6945 -0.3109
  103MOL   C25837182   4.970   0.923   3.879  0.2596 -0.0170  0.5444
  103MOL   C25937183   4.730   0.937   3.801  0.1051 -0.5028  0.7934
  103MOL   H26037184   4.713   0.594   4.178  0.0185  1.2984  1.6124
  103MOL   H26137185   4.552   0.578   4.123 -0.3064  0.8453 -1.7901
  103MOL   H26237186   4.596   0.779   3.958  0.5164 -0.4529 -0.6217
  103MOL   H26337187   4.868   0.698   4.013 -0.5079 -0.3437  0.7520
  103MOL   H26437188   4.798   0.852   4.062 -0.4427 -0.8169  0.4740
  103MOL   H26537189   4.861   0.766   3.783 -0.6891 -0.2629 -0.9876
  103MOL   H26637190   5.051   0.853   3.896  0.3985 -0.7390 -2.7517
  103MOL   H26737191   4.956   0.998   3.958  0.5137  2.9248 -2.0831
  103MOL   H26837192   4.998   0.982   3.791  0.2385 -1.9816 -0.8092
  103MOL   H26937193   4.766   0.990   3.712 -1.5811  0.1251  0.4539
  103MOL   H27037194   4.638   0.887   3.768 -0.2367  1.3416 -1.2236
  103MOL   H27137195   4.703   1.010   3.877  0.5953 -0.5738  1.0311
  103MOL   C27237196   4.662   0.590   3.884  0.2736  0.4421 -0.5836
  103MOL   C27337197   4.511   0.543   3.847  0.0697 -0.4779  0.3399
  103MOL   C27437198   4.450   0.653   3.742 -0.7846  0.4703 -0.2269
  103MOL   C27537199   4.314   0.636   3.688 -0.6115 -0.6238 -0.2378
  103MOL   C27637200   4.259   0.762   3.625 -0.5624  0.7671 -0.3316
  103MOL   C27737201   4.210   0.585   3.791  0.5956 -1.2253 -0.8588
  103MOL   H27837202   4.708   0.624   3.791 -0.9069 -0.6902 -1.5936
  103MOL   H27937203   4.727   0.507   3.910 -0.8729 -0.1424  0.4627
  103MOL   H28037204   4.446   0.534   3.934 -2.5324  0.5951 -1.4073
  103MOL   H28137205   4.528   0.656   3.666 -0.2814 -0.5438  0.2382
  103MOL   H28237206   4.452   0.754   3.784 -0.1334  0.6000 -0.5681
  103MOL   H28337207   4.318   0.565   3.606 -0.0986  2.2887 -2.8484
  103MOL   H28437208   4.161   0.754   3.578  0.2677  0.4814 -2.0742
  103MOL   H28537209   4.246   0.836   3.704  0.2024 -1.2066  1.6892
  103MOL   H28637210   4.322   0.807   3.549  0.9617 -0.5086  0.1494
  103MOL   H28737211   4.223   0.480   3.819  0.4828 -0.9331  0.2912
  103MOL   H28837212   4.199   0.659   3.870 -0.8883 -2.4274  0.0813
  103MOL   H28937213   4.108   0.586   3.754  0.4779  2.0932 -0.5265
  103MOL   C29037214   4.513   0.412   3.774  0.0432 -0.2807 -0.2436
  103MOL   C29137215   4.539   0.282   3.853  0.6518 -0.0461 -0.2864
  103MOL   C29237216   4.413   0.248   3.938 -0.1342  0.8388 -0.1129
  103MOL   C29337217   4.432   0.151   4.052 -0.4277  0.5831  0.5834
  103MOL   C29437218   4.527   0.203   4.161 -0.1521  0.2923  0.2004
  103MOL   C29537219   4.285   0.112   4.089  0.0654  0.0149 -0.2100
  103MOL   H29637220   4.418   0.404   3.722 -0.3295  0.0802  0.3719
  103MOL   H29737221   4.581   0.418   3.689  1.0677 -3.0753  0.2956
  103MOL   H29837222   4.624   0.306   3.916 -1.3247  0.9659  2.0948
  103MOL   H29937223   4.336   0.206   3.872 -0.3980  1.6183 -0.3078
  103MOL   H30037224   4.367   0.342   3.969  0.9704  0.7853  1.7785
  103MOL   H30137225   4.483   0.065   4.009 -0.5098  0.8478 -0.0508
  103MOL   H30237226   4.515   0.157   4.259  0.9155  1.9347  1.1319
  103MOL   H30337227   4.511   0.311   4.162 -2.4752 -0.0191  1.2404
  103MOL   H30437228   4.632   0.204   4.132 -0.2439  0.9166 -0.1078
  103MOL   H30537229   4.277   0.063   4.186 -1.8491  2.0337  0.6841
  103MOL   H30637230   4.241   0.046   4.013  0.0153  0.2414 -0.3795
  103MOL   H30737231   4.224   0.202   4.087 -1.0715 -0.7509 -1.1972
  103MOL   C30837232   4.590   0.171   3.759 -0.3401  0.6163 -0.4512
  103MOL   C30937233   4.733   0.203   3.706  0.3157 -0.3841  0.1879
  103MOL   C31037234   4.840   0.173   3.814 -0.2899  0.0554  0.1986
  103MOL   C31137235   4.992   0.207   3.778 -0.5251 -0.0087 -0.1273
  103MOL   C31237236   5.023   0.353   3.779  0.4014  0.0824 -0.0368
  103MOL   C31337237   5.080   0.134   3.876 -0.2042  0.2190 -0.4708
  103MOL   H31437238   4.595   0.076   3.812  1.7418  0.0038 -1.7256
  103MOL   H31537239   4.522   0.164   3.674  3.4636 -3.2152 -3.3819
  103MOL   H31637240   4.749   0.310   3.688  0.4556 -0.6395 -1.2667
  103MOL   H31737241   4.832   0.067   3.835  1.4223  0.2151  1.7747
  103MOL   H31837242   4.815   0.235   3.900 -3.3130  0.4405 -0.8861
  103MOL   H31937243   5.022   0.159   3.685  1.9913  0.4117  0.4438
  103MOL   H32037244   5.114   0.381   3.724  1.3846 -0.0620  1.4927
  103MOL   H32137245   5.036   0.385   3.882 -1.8101 -2.2973  1.0271
  103MOL   H32237246   4.930   0.402   3.751 -0.1870 -0.0706  1.6254
  103MOL   H32337247   5.184   0.160   3.855  0.5660 -1.7712  0.6938
  103MOL   H32437248   5.063   0.170   3.977 -2.2901 -0.3823 -0.5988
  103MOL   H32537249   5.069   0.026   3.865 -2.1780  0.4248 -0.6093
  103MOL   C32637250   4.764   0.121   3.579 -0.1104 -0.3869 -0.3703
  103MOL   C32737251   4.691   0.164   3.447  0.7554  0.1824  0.4503
  103MOL   C32837252   4.755   0.090   3.327 -0.1619 -0.3001  0.6197
  103MOL   C32937253   4.695   0.106   3.184  0.4014 -0.0293 -0.0408
  103MOL   C33037254   4.783   0.034   3.080 -0.0863 -0.6354  0.4351
  103MOL   C33137255   4.543   0.057   3.169 -0.0430  0.0524 -0.1150
  103MOL   H33237256   4.739   0.017   3.598 -0.5985  0.4247  3.8145
  103MOL   H33337257   4.870   0.111   3.554 -0.4371 -0.5436 -1.7404
  103MOL   H33437258   4.589   0.127   3.455  0.9063 -0.3043  0.1634
  103MOL   H33537259   4.855   0.130   3.312 -0.0347 -0.3223  1.4041
  103MOL   H33637260   4.759   7.736   3.351 -1.1681 -0.3256  0.6909
  103MOL   H33737261   4.697   0.211   3.155 -0.2251 -0.2477 -0.8715
  103MOL   H33837262   4.822   7.687   3.105 -0.4308 -1.3604 -1.7855
  103MOL   H33937263   4.867   0.102   3.067 -0.8007 -0.0693 -1.2449
  103MOL   H34037264   4.726   0.022   2.988 -0.3337 -1.8405  0.7272
  103MOL   H34137265   4.513   0.095   3.071 -0.9657 -0.7161 -0.1374
  103MOL   H34237266   4.544   7.701   3.175 -0.7623  0.1039  0.9572
  103MOL   H34337267   4.483   0.105   3.247  2.9188  1.8659  1.1214
  103MOL   C34437268   4.691   0.317   3.423  0.1295  0.9714  0.2218
  103MOL   C34537269   4.828   0.390   3.406  0.0063  0.1567  0.2603
  103MOL   C34637270   4.812   0.538   3.387 -0.7123  0.2807  0.0609
  103MOL   C34737271   4.945   0.624   3.391 -0.0831  0.0209 -0.5881
  103MOL   C34837272   5.015   0.622   3.529  0.2971 -0.4095 -0.0463
  103MOL   C34937273   4.911   0.769   3.355 -0.3628 -0.1821  0.2643
  103MOL   H35037274   4.625   0.363   3.497  2.0175  2.3809  1.1015
  103MOL   H35137275   4.634   0.322   3.331  1.6074 -0.7180 -0.8031
  103MOL   H35237276   4.899   0.347   3.335  3.7327  2.1759  2.6137
  103MOL   H35337277   4.771   0.548   3.286  0.7875 -0.9090 -0.6811
  103MOL   H35437278   4.735   0.566   3.458 -0.8953 -0.7258  0.2589
  103MOL   H35537279   5.013   0.586   3.315 -2.0808 -1.2374 -1.8011
  103MOL   H35637280   4.945   0.633   3.612  0.4868 -0.0326  0.0647
  103MOL   H35737281   5.090   0.544   3.542  0.3317 -0.9320 -3.1349
  103MOL   H35837282   5.080   0.710   3.536  1.5760 -1.2768 -0.9031
  103MOL   H35937283   5.005   0.816   3.325  0.0027 -1.3608 -0.4871
  103MOL   H36037284   4.878   0.818   3.446  2.7953  0.7573  0.9694
  103MOL   H36137285   4.835   0.783   3.277  1.5627  2.2861 -1.2460
  103MOL   H36237286   4.885   0.370   3.497  2.2506 -0.6035 -1.2589
  104MOL     C137287   0.102   3.642   5.130 -0.1722 -0.5919 -0.1435
  104MOL     C237288   0.060   3.788   5.115 -0.2506 -0.3761 -0.0356
  104MOL     C337289   0.028   3.855   5.254  0.1627 -0.3350  0.3313
  104MOL     C437290   0.008   4.010   5.254  0.1012  0.7642 -0.2872
  104MOL     C537291   0.116   4.085   5.177  0.1639 -0.1129 -0.0364
  104MOL     C637292   7.742   4.073   5.390  0.0754 -0.7772 -0.2611
  104MOL     H737293   0.161   3.642   5.221  0.6084 -0.1585 -0.6497
  104MOL     H837294   0.014   3.579   5.146  0.7484 -1.8666 -0.0419
  104MOL     H937295   0.138   3.847   5.066 -1.9399  2.1320  0.1700
  104MOL    H1037296   7.702   3.806   5.312 -1.3684  1.4671 -0.1706
  104MOL    H1137297   0.120   3.842   5.310  0.9560  0.7943 -0.7058
  104MOL    H1237298   7.670   4.021   5.195  0.9783  0.4665 -1.6931
  104MOL    H1337299   0.130   4.189   5.207 -1.2181  0.5451 -1.5983
  104MOL    H1437300   0.212   4.036   5.190 -0.0924 -0.4026  0.8078
  104MOL    H1537301   0.105   4.092   5.069 -1.7683  1.9049  0.2456
  104MOL    H1637302   7.671   4.018   5.451 -1.8202 -0.1963 -1.9078
  104MOL    H1737303   7.699   4.173   5.387  4.1939  1.0814 -0.7162
  104MOL    H1837304   0.078   4.075   5.454 -0.7722 -1.6461  0.9532
  104MOL    H1937305   0.163   3.591   5.055 -0.6320 -2.0437  0.4473
  104MOL    C2037306   7.695   3.787   5.013 -0.6318  0.3156  0.4122
  104MOL    C2137307   7.714   3.733   4.869 -0.2854 -0.3948 -0.5523
  104MOL    C2237308   7.596   3.735   4.766  0.0980  0.5901 -0.7873
  104MOL    C2337309   7.461   3.671   4.820  0.4035 -0.5941  0.0387
  104MOL    C2437310   7.352   3.670   4.718 -0.7227  0.1973  0.1900
  104MOL    C2537311   7.473   3.541   4.895 -0.0198 -0.3454 -0.2989
  104MOL    H2637312   7.612   3.739   5.065 -1.3896  0.7286 -0.4136
  104MOL    H2737313   7.668   3.893   5.013 -0.4721  0.3567 -0.0877
  104MOL    H2837314   7.728   3.626   4.888 -2.1647 -0.8000 -1.3183
  104MOL    H2937315   7.627   3.659   4.694  0.4555 -0.2697  0.2552
  104MOL    H3037316   7.578   3.831   4.719 -0.0823 -0.0395 -2.0400
  104MOL    H3137317   7.420   3.733   4.900 -0.3434 -0.5742 -0.3594
  104MOL    H3237318   7.272   3.607   4.757  0.8060 -2.7377 -1.1975
  104MOL    H3337319   7.391   3.621   4.629  0.0700  1.5518 -0.2304
  104MOL    H3437320   7.321   3.771   4.693  0.2048  0.6657  0.9017
  104MOL    H3537321   7.376   3.504   4.930 -1.5148  2.9549 -0.7116
  104MOL    H3637322   7.506   3.465   4.824  1.2935 -0.7879  0.7740
  104MOL    H3737323   7.530   3.542   4.988 -0.1407 -0.7941 -0.2182
  104MOL    C3837324   0.094   3.788   4.804 -0.3665 -0.0982 -0.0996
  104MOL    C3937325   0.103   3.911   4.719  0.5203  0.3874  0.4806
  104MOL    C4037326   0.246   3.926   4.670 -0.3778  0.7904  0.3315
  104MOL    C4137327   0.292   3.842   4.551  0.1437 -0.0622  0.2550
  104MOL    C4237328   0.449   3.869   4.546  0.2463  0.4973  0.5792
  104MOL    C4337329   0.230   3.895   4.412  0.1348 -0.7810 -0.2533
  104MOL    H4437330   0.112   3.700   4.741 -2.0980 -0.7856  0.3208
  104MOL    H4537331   0.171   3.770   4.879  0.2033 -0.8582 -0.8516
  104MOL    H4637332   0.033   3.899   4.636  0.5615  0.6681  0.4051
  104MOL    H4737333   0.306   3.888   4.753  0.8251  0.7655 -0.5438
  104MOL    H4837334   0.269   4.029   4.644 -1.2199  0.3883 -2.1488
  104MOL    H4937335   0.269   3.736   4.562 -0.1913 -0.2608 -2.0351
  104MOL    H5037336   0.489   3.825   4.638  1.3684  0.6273  0.1608
  104MOL    H5137337   0.490   3.801   4.472 -1.6968 -0.7746  0.6325
  104MOL    H5237338   0.485   3.971   4.553 -0.4175  0.7746 -0.0428
  104MOL    H5337339   0.123   3.874   4.402  0.2055 -1.0909 -0.3501
  104MOL    H5437340   0.286   3.846   4.333  3.6796  1.7604  0.5777
  104MOL    H5537341   0.244   4.002   4.401  1.2774 -0.6893  1.8614
  104MOL    C5637342   0.063   4.035   4.797 -0.0031  0.2027 -0.2767
  104MOL    C5737343   0.041   4.164   4.720  0.1564 -0.4069 -0.2974
  104MOL    C5837344   0.042   4.292   4.807 -0.3652 -0.8488 -1.0511
  104MOL    C5937345   0.189   4.344   4.835  0.0316 -0.3103  0.0786
  104MOL    C6037346   0.177   4.425   4.971 -0.7454  0.6715  0.0674
  104MOL    C6137347   0.218   4.442   4.725  0.6297 -0.6057 -0.0021
  104MOL    H6237348   0.151   4.066   4.853  0.7672  0.4700 -1.6027
  104MOL    H6337349   7.717   4.024   4.843 -2.0455  0.4169 -4.2884
  104MOL    H6437350   0.123   4.181   4.650  0.8177 -0.1926  0.5248
  104MOL    H6537351   7.734   4.365   4.753 -2.2319 -0.4083  1.5418
  104MOL    H6637352   7.747   4.270   4.903 -0.2624  1.9596 -0.2887
  104MOL    H6737353   0.259   4.261   4.836 -0.6515 -1.1442 -5.3453
  104MOL    H6837354   0.168   4.358   5.056 -3.6328  1.5794  0.5265
  104MOL    H6937355   0.082   4.478   4.966 -0.9097  0.3010 -0.8183
  104MOL    H7037356   0.259   4.493   4.991  0.6569 -0.4384 -1.7106
  104MOL    H7137357   0.216   4.392   4.628  0.2882 -0.0316 -0.2869
  104MOL    H7237358   0.318   4.484   4.734  0.5064 -0.4885  0.9232
  104MOL    H7337359   0.150   4.526   4.731 -0.5174 -1.5479  0.5143
  104MOL    C7437360   7.655   4.148   4.641 -0.1138  0.4204 -0.7023
  104MOL    C7537361   7.634   4.246   4.522 -0.6430 -0.0434  0.8873
  104MOL    C7637362   7.487   4.258   4.474 -0.6100  0.2074 -0.2523
  104MOL    C7737363   7.418   4.135   4.417 -0.2138 -0.5479 -0.0895
  104MOL    C7837364   7.333   4.177   4.296  0.1311 -0.9425 -0.2327
  104MOL    C7937365   7.324   4.081   4.522  0.5870 -0.2179  0.1611
  104MOL    H8037366   7.577   4.168   4.713 -0.2116 -1.1347 -0.3815
  104MOL    H8137367   7.633   4.048   4.605 -2.0951  1.2683 -1.9396
  104MOL    H8237368   7.655   4.349   4.552  0.3144  0.6922 -2.1815
  104MOL    H8337369   7.419   4.299   4.549 -0.6054  0.8283 -0.5886
  104MOL    H8437370   7.481   4.340   4.402  0.9087  1.1729  0.6873
  104MOL    H8537371   7.491   4.058   4.394  0.3609 -0.4190  1.2873
  104MOL    H8637372   7.309   4.086   4.241 -0.0299 -0.9391 -0.1677
  104MOL    H8737373   7.389   4.237   4.225 -3.1436  1.5572 -0.8136
  104MOL    H8837374   7.234   4.207   4.330  1.0842 -0.0130  1.8151
  104MOL    H8937375   7.247   4.149   4.557  1.7247  0.9789  0.3766
  104MOL    H9037376   7.290   3.983   4.488 -0.4070 -0.0991  0.8013
  104MOL    H9137377   7.374   4.055   4.615  1.8826  0.1181 -0.4278
  104MOL    C9237378   7.749   4.210   4.410  0.5051  0.2885  0.3063
  104MOL    C9337379   7.738   4.268   4.274  0.4421  0.1006 -0.2978
  104MOL    C9437380   7.740   4.428   4.278  0.3802  0.4710  0.4829
  104MOL    C9537381   7.720   4.499   4.146 -0.2629 -0.3169  0.2984
  104MOL    C9637382   7.579   4.490   4.088 -0.4782  0.8369 -0.5835
  104MOL    C9737383   0.003   4.649   4.158  0.2321  0.0577  0.3261
  104MOL    H9837384   0.102   4.226   4.433  1.3722 -1.7102 -1.9558
  104MOL    H9937385   7.739   4.102   4.397 -2.2733  0.1566  2.9928
  104MOL   H10037386   7.645   4.246   4.221 -0.2551  1.1976  0.4564
  104MOL   H10137387   0.080   4.468   4.320  0.7223 -0.3749  0.5387
  104MOL   H10237388   7.674   4.463   4.358 -1.3915 -2.1523  0.2204
  104MOL   H10337389   0.042   4.464   4.075  1.4674 -0.8778  2.3382
  104MOL   H10437390   7.579   4.511   3.981  0.5973  0.0064 -0.7504
  104MOL   H10537391   7.508   4.564   4.125 -0.7055  0.3748 -0.0757
  104MOL   H10637392   7.541   4.388   4.096  0.7283  0.4206 -0.0396
  104MOL   H10737393   7.691   4.701   4.229  1.1083  1.3472  0.2071
  104MOL   H10837394   0.005   4.706   4.065  0.4212 -0.7358 -0.1609
  104MOL   H10937395   0.100   4.668   4.204  0.3459  1.7806 -0.5633
  104MOL   C11037396   0.105   4.214   4.178 -0.3292 -0.3240 -0.1658
  104MOL   C11137397   0.070   4.147   4.045  0.1197  0.5550  0.5290
  104MOL   C11237398   0.195   4.096   3.959  0.3271 -0.0645 -0.3249
  104MOL   C11337399   0.243   4.203   3.852  0.2562  0.5960 -0.1846
  104MOL   C11437400   0.149   4.225   3.729 -0.1208 -0.2776 -0.8623
  104MOL   C11537401   0.376   4.165   3.791  0.3583 -0.6628 -0.3934
  104MOL   H11637402   0.142   4.122   4.225 -0.3820 -1.7727 -2.8662
  104MOL   H11737403   0.195   4.276   4.175 -0.6966  0.2211  0.0826
  104MOL   H11837404   0.022   4.220   3.981  0.3679 -0.3534 -0.7050
  104MOL   H11937405   0.166   4.012   3.897  1.3663  0.4088 -1.4743
  104MOL   H12037406   0.279   4.078   4.025  1.5886  1.3039 -1.4988
  104MOL   H12137407   0.253   4.298   3.904 -2.2182  1.7042 -1.6210
  104MOL   H12237408   0.140   4.136   3.666  0.7363 -0.4312 -0.7813
  104MOL   H12337409   0.192   4.292   3.655  0.7313  0.7128  0.5073
  104MOL   H12437410   0.060   4.271   3.770  1.1268  2.3282 -0.9992
  104MOL   H12537411   0.385   4.066   3.747  0.2634 -1.1329  0.6348
  104MOL   H12637412   0.451   4.163   3.869  1.2493 -0.3426 -1.2270
  104MOL   H12737413   0.407   4.245   3.724  0.7284  0.9048  1.6011
  104MOL   C12837414   7.723   4.028   4.065 -0.1621  0.4210 -0.9709
  104MOL   C12937415   7.625   4.003   3.946 -0.3207  0.0650 -0.2476
  104MOL   C13037416   7.491   4.077   3.965 -0.6386 -0.1889 -0.2065
  104MOL   C13137417   7.407   4.114   3.840 -0.1009  0.2038  0.3247
  104MOL   C13237418   7.270   4.151   3.888 -0.0479 -0.6951 -0.3432
  104MOL   C13337419   7.479   4.222   3.763 -0.2868  0.7419 -0.2439
  104MOL   H13437420   7.657   4.035   4.151  1.5651  0.0595  0.4189
  104MOL   H13537421   0.026   3.939   4.094 -2.4977 -0.2632  1.5245
  104MOL   H13637422   7.677   4.041   3.859  1.4376 -2.2301 -0.2454
  104MOL   H13737423   7.428   4.021   4.034 -1.7659  0.6418 -0.5490
  104MOL   H13837424   7.515   4.166   4.022 -2.7019  0.8776 -0.9342
  104MOL   H13937425   7.399   4.019   3.787  0.7119  0.1857  0.2323
  104MOL   H14037426   7.210   4.060   3.894 -1.8176  0.4136 -0.9230
  104MOL   H14137427   7.212   4.192   3.806 -0.4122  1.4386  0.9261
  104MOL   H14237428   7.258   4.224   3.968 -0.2359  1.9438 -2.7497
  104MOL   H14337429   7.469   4.312   3.823  2.2833  0.2298  1.0169
  104MOL   H14437430   7.586   4.206   3.748 -0.8633 -0.4135 -3.7086
  104MOL   H14537431   7.429   4.235   3.667  1.1157  2.3385 -0.7893
  104MOL   C14637432   7.588   3.850   3.929 -0.2081 -0.2532  0.3549
  104MOL   C14737433   7.702   3.748   3.902 -0.4786  0.0253 -0.5353
  104MOL   C14837434   0.023   3.785   3.771  0.6813  0.3347 -0.5253
  104MOL   C14937435   0.144   3.694   3.727  1.4648  0.3288  0.2259
  104MOL   C15037436   0.193   3.746   3.588 -0.2983 -0.1686 -0.4176
  104MOL   C15137437   0.252   3.686   3.840 -0.3727 -0.4793  0.2205
  104MOL   H15237438   7.542   3.850   3.830 -1.4665 -0.4112  0.9234
  104MOL   H15337439   7.517   3.818   4.005  1.2397  0.5480  2.0706
  104MOL   H15437440   0.021   3.758   3.985  3.7493 -1.9138 -3.7475
  104MOL   H15537441   7.698   3.775   3.695  0.5849  2.5846 -0.7663
  104MOL   H15637442   0.044   3.892   3.773 -1.0377  0.6662  1.4441
  104MOL   H15737443   0.119   3.589   3.713  1.3705  0.3938 -0.0992
  104MOL   H15837444   0.273   3.685   3.546  1.1983  0.9486  0.7296
  104MOL   H15937445   0.219   3.852   3.595  0.5550 -0.2234 -2.5291
  104MOL   H16037446   0.109   3.745   3.519  0.1137 -0.6384 -0.9159
  104MOL   H16137447   0.345   3.648   3.797 -0.9735 -1.4665 -0.2151
  104MOL   H16237448   0.221   3.620   3.921  0.2226  2.0035  2.5566
  104MOL   H16337449   0.270   3.786   3.881  2.9829 -1.2968  0.9012
  104MOL   C16437450   7.651   3.598   3.893  0.2078 -0.7361  0.7181
  104MOL   C16537451   7.694   3.515   4.018 -0.0933  0.2368 -0.2429
  104MOL   C16637452   7.628   3.561   4.144 -0.3363  0.5100  0.1664
  104MOL   C16737453   7.690   3.512   4.276  0.4377 -0.3875  0.3903
  104MOL   C16837454   0.087   3.539   4.287  0.1597  0.6131 -0.1957
  104MOL   C16937455   7.614   3.579   4.393  0.0251 -0.0041 -0.6736
  104MOL   H17037456   7.542   3.593   3.901 -0.0140  3.2351  1.3788
  104MOL   H17137457   7.668   3.558   3.793  1.8430  2.3224 -0.2866
  104MOL   H17237458   0.050   3.528   4.025  0.2154 -0.7857 -2.5519
  104MOL   H17337459   7.635   3.670   4.146 -1.3547  0.5798  0.4162
  104MOL   H17437460   7.521   3.545   4.132 -0.2422 -0.8631  1.0594
  104MOL   H17537461   7.676   3.404   4.275  0.0711 -0.3505 -2.2720
  104MOL   H17637462   0.109   3.644   4.267 -1.8793  1.0140 -0.3911
  104MOL   H17737463   0.148   3.477   4.221 -0.7268 -0.2397 -0.2152
  104MOL   H17837464   0.124   3.524   4.389 -0.0057 -0.3169 -0.2764
  104MOL   H17937465   7.620   3.688   4.401 -2.8082  0.2605 -1.7182
  104MOL   H18037466   7.642   3.539   4.490  0.1209  1.1642 -0.2044
  104MOL   H18137467   7.507   3.560   4.386  0.3261 -2.0304  0.1084
  104MOL   C18237468   7.668   3.370   3.995 -0.0097  0.2385 -0.1017
  104MOL   C18337469   0.011   3.311   3.887  0.4063 -0.4131 -0.8173
  104MOL   C18437470   0.137   3.264   3.952  0.0893  0.3190 -0.3060
  104MOL   C18537471   0.254   3.207   3.864 -0.3317 -0.2168  0.7807
  104MOL   C18637472   0.307   3.306   3.765  0.6748 -0.1216  0.6530
  104MOL   C18737473   0.363   3.146   3.955 -0.5178  0.3652 -0.6209
  104MOL   H18837474   7.566   3.358   3.959  0.6602  1.7291 -2.7059
  104MOL   H18937475   7.681   3.324   4.092 -0.5109 -0.2127 -0.2446
  104MOL   H19037476   0.042   3.389   3.818  2.2825 -2.2504 -2.0814
  104MOL   H19137477   0.108   3.184   4.021 -1.2050 -0.2358 -1.4700
  104MOL   H19237478   0.167   3.344   4.019  1.5451 -0.9751  0.6317
  104MOL   H19337479   0.209   3.132   3.799  2.3090 -0.5876 -0.6853
  104MOL   H19437480   0.317   3.398   3.823  1.0988 -1.2454  2.4380
  104MOL   H19537481   0.250   3.317   3.673  0.5431  0.7867  0.8397
  104MOL   H19637482   0.406   3.271   3.735 -0.0447 -1.1023 -0.5591
  104MOL   H19737483   0.455   3.113   3.906  1.0308  0.9316  1.8247
  104MOL   H19837484   0.322   3.069   4.021 -0.3189  1.1953  0.4880
  104MOL   H19937485   0.406   3.224   4.017 -4.0959  1.6582  0.3442
  104MOL   C20037486   7.685   3.193   3.807 -0.0819  0.2365 -0.3660
  104MOL   C20137487   7.600   3.243   3.683  0.4460  0.6724  0.0583
  104MOL   C20237488   7.522   3.113   3.626 -0.0456  0.0952  0.3998
  104MOL   C20337489   7.406   3.059   3.705  0.3248  0.1468  0.1338
  104MOL   C20437490   7.285   3.153   3.688 -0.2818  0.3060  0.6893
  104MOL   C20537491   7.380   2.916   3.658 -0.2427  0.2669 -0.2585
  104MOL   H20637492   7.622   3.131   3.871  0.2986  1.0777  0.8574
  104MOL   H20737493   0.004   3.119   3.772 -0.7472 -0.4067 -0.3705
  104MOL   H20837494   7.526   3.311   3.726 -1.1932 -1.1499  0.1728
  104MOL   H20937495   7.487   3.123   3.523 -1.3191 -1.0460  0.7113
  104MOL   H21037496   7.601   3.039   3.630 -0.4162 -0.2819  0.8634
  104MOL   H21137497   7.440   3.062   3.809  3.1558 -1.3135 -0.7073
  104MOL   H21237498   7.262   3.159   3.581 -2.3943  2.3592  1.2259
  104MOL   H21337499   7.315   3.249   3.728  1.5571  1.2411 -2.7517
  104MOL   H21437500   7.202   3.115   3.748 -0.1660 -4.1509 -1.7092
  104MOL   H21537501   7.361   2.909   3.551 -0.8178 -1.1370 -0.0728
  104MOL   H21637502   7.293   2.866   3.701  0.0345 -0.4138 -0.4776
  104MOL   H21737503   7.467   2.858   3.689  0.5039  1.6663  0.3233
  104MOL   C21837504   7.685   3.309   3.572  0.8572  0.1761  0.1979
  104MOL   C21937505   7.607   3.400   3.475  0.5602 -0.0361  0.5441
  104MOL   C22037506   7.712   3.436   3.373  0.2176 -0.4545 -0.3754
  104MOL   C22137507   7.662   3.516   3.246  0.1471 -0.0032 -0.3430
  104MOL   C22237508   0.043   3.555   3.172  0.6306  0.0368 -0.5343
  104MOL   C22337509   7.573   3.432   3.149 -0.2654  0.1378 -0.1415
  104MOL   H22437510   0.013   3.364   3.622 -0.2163  1.8994  0.0358
  104MOL   H22537511   7.740   3.232   3.518 -4.3311 -3.0785 -0.8322
  104MOL   H22637512   7.535   3.341   3.419  1.4684 -1.2404  0.6082
  104MOL   H22737513   0.035   3.499   3.422  1.8078 -2.0708 -0.7140
  104MOL   H22837514   0.012   3.349   3.335  0.2872 -0.8298  0.5640
  104MOL   H22937515   7.615   3.608   3.282 -0.0972  0.8407 -2.7363
  104MOL   H23037516   0.120   3.599   3.235  1.0758  1.6846 -2.1786
  104MOL   H23137517   0.085   3.467   3.124  1.6884 -1.3557  2.7904
  104MOL   H23237518   0.023   3.639   3.105  2.8958  1.2859  0.2925
  104MOL   H23337519   7.613   3.341   3.104 -1.5306 -0.5166  0.0156
  104MOL   H23437520   7.478   3.409   3.198  0.1505  0.3270  0.7642
  104MOL   H23537521   7.524   3.492   3.073 -1.2716  1.5647  1.5861
  104MOL   C23637522   7.554   3.531   3.540 -0.3992 -0.4191  0.1560
  104MOL   C23737523   7.430   3.610   3.482  0.3838  0.4875  0.0907
  104MOL   C23837524   7.437   3.763   3.510 -0.2576 -0.6563  0.4962
  104MOL   C23937525   7.541   3.841   3.438  0.1143 -0.0930 -0.3531
  104MOL   C24037526   7.505   3.880   3.294  0.2453 -0.1895 -0.3142
  104MOL   C24137527   7.564   3.972   3.511 -0.8277  0.0092 -0.0554
  104MOL   H24237528   7.641   3.590   3.565 -0.4340  0.3897 -1.5404
  104MOL   H24337529   7.520   3.519   3.643  0.1695 -2.9294  0.0825
  104MOL   H24437530   7.434   3.593   3.374  0.1377 -0.6228  0.2455
  104MOL   H24537531   7.439   3.775   3.618  1.3692 -0.3918  0.4500
  104MOL   H24637532   7.340   3.809   3.489 -0.8932 -1.1025  2.3792
  104MOL   H24737533   7.633   3.784   3.432 -0.2898 -1.0504  2.3023
  104MOL   H24837534   7.421   3.950   3.290  2.3675  2.7086  2.7599
  104MOL   H24937535   7.490   3.787   3.239  0.8485  0.0848 -0.9593
  104MOL   H25037536   7.583   3.936   3.242 -0.6283 -1.3227 -2.9331
  104MOL   H25137537   7.658   4.023   3.491 -0.0057 -1.1788  0.7369
  104MOL   H25237538   7.559   3.952   3.619  0.1664 -0.8325 -0.1604
  104MOL   H25337539   7.481   4.036   3.482 -1.0528 -0.2715 -0.0330
  104MOL   C25437540   7.290   3.551   3.535  0.2932  0.6949  0.5761
  104MOL   C25537541   7.175   3.551   3.436 -0.4079 -0.5332 -0.5000
  104MOL   C25637542   7.035   3.514   3.494 -0.3973 -0.5860  0.2993
  104MOL   C25737543   7.012   3.366   3.522  1.0096  0.3051 -0.1187
  104MOL   C25837544   6.971   3.293   3.399 -0.5866  0.1100  0.3239
  104MOL   C25937545   6.906   3.333   3.632  0.6759  0.6495 -0.1051
  104MOL   H26037546   7.308   3.445   3.552 -0.5176  0.2987 -0.8895
  104MOL   H26137547   7.270   3.598   3.631  1.3532  2.8338 -0.2305
  104MOL   H26237548   7.201   3.482   3.355  1.0215  0.9784 -1.3838
  104MOL   H26337549   6.950   3.551   3.437 -0.6503 -0.9209  0.4608
  104MOL   H26437550   7.024   3.568   3.588  0.4438 -1.8070  1.1155
  104MOL   H26537551   7.106   3.317   3.547  0.6978  0.4464  1.3830
  104MOL   H26637552   6.863   3.288   3.386 -0.6759 -0.2346  1.1332
  104MOL   H26737553   7.000   3.189   3.409  2.5962  0.8980 -0.2875
  104MOL   H26837554   7.016   3.325   3.306 -0.9454  0.2612  0.2021
  104MOL   H26937555   6.889   3.227   3.647 -1.9683  1.2458  1.3675
  104MOL   H27037556   6.951   3.369   3.725  0.2857 -0.3556  0.4709
  104MOL   H27137557   6.813   3.388   3.620 -0.7160 -1.7222 -0.4101
  104MOL   C27237558   7.169   3.679   3.345  0.5367  0.5071  0.3996
  104MOL   C27337559   7.092   3.666   3.211 -0.3476 -0.0681 -0.1006
  104MOL   C27437560   7.035   3.799   3.167 -0.3216 -0.8234 -0.0035
  104MOL   C27537561   6.920   3.852   3.249 -0.4071 -0.6836  0.3984
  104MOL   C27637562   6.797   3.764   3.239  0.0093  0.1052  0.4846
  104MOL   C27737563   6.887   3.996   3.222 -0.2096  0.0369  0.3468
  104MOL   H27837564   7.131   3.760   3.408 -0.1892 -0.7795  1.6242
  104MOL   H27937565   7.262   3.727   3.315  0.7796 -0.8162 -0.9989
  104MOL   H28037566   7.016   3.589   3.221 -1.1203  0.8393  1.2306
  104MOL   H28137567   6.991   3.791   3.068 -2.2957 -1.2301  0.8778
  104MOL   H28237568   7.109   3.879   3.153 -1.5353  0.2962 -0.1523
  104MOL   H28337569   6.940   3.837   3.355 -1.8620  1.2552  0.9686
  104MOL   H28437570   6.762   3.748   3.138 -3.2327  0.6348  1.4839
  104MOL   H28537571   6.800   3.661   3.275  1.2742 -0.2066 -0.4794
  104MOL   H28637572   6.715   3.813   3.290  0.7572  0.8117  1.0299
  104MOL   H28737573   6.981   4.051   3.215  0.0841 -0.5166 -0.2307
  104MOL   H28837574   6.838   4.024   3.128 -1.6283 -2.4808  0.2824
  104MOL   H28937575   6.825   4.036   3.301  1.5848 -2.7450  3.3104
  104MOL   C29037576   7.192   3.624   3.099  0.3158 -0.2737 -0.4338
  104MOL   C29137577   7.150   3.631   2.949  0.2154  0.3910  0.4897
  104MOL   C29237578   7.266   3.605   2.849  0.4419  0.1398 -0.5210
  104MOL   C29337579   7.405   3.681   2.864  0.5496  0.3907 -0.6254
  104MOL   C29437580   7.510   3.600   2.789 -0.1706  0.0501  0.1779
  104MOL   C29537581   7.414   3.831   2.831  0.3005 -0.6689 -0.0172
  104MOL   H29637582   7.277   3.692   3.109 -1.2699  1.6894  0.0984
  104MOL   H29737583   7.233   3.525   3.117  0.5740 -0.0651  0.1429
  104MOL   H29837584   7.116   3.731   2.923 -1.3514 -0.5056 -1.0362
  104MOL   H29937585   7.231   3.624   2.748  1.0265  1.9376 -0.4108
  104MOL   H30037586   7.285   3.497   2.848  1.2103  0.2721 -2.2484
  104MOL   H30137587   7.436   3.683   2.969  0.2733  0.8599 -0.5520
  104MOL   H30237588   7.507   3.496   2.823 -0.3397  0.0899  0.2843
  104MOL   H30337589   7.613   3.635   2.798 -0.0158 -0.5276  0.6984
  104MOL   H30437590   7.498   3.603   2.681  1.5254 -3.5374 -0.1984
  104MOL   H30537591   7.330   3.882   2.878 -0.5171 -1.5509 -0.5090
  104MOL   H30637592   7.416   3.865   2.727  0.5855 -0.0575  0.1869
  104MOL   H30737593   7.508   3.864   2.876  0.1018 -0.0492 -0.0447
  104MOL   C30837594   7.026   3.546   2.921  0.6561  0.1073  0.1662
  104MOL   C30937595   6.949   3.561   2.787  0.0906 -0.5101 -0.4803
  104MOL   C31037596   6.844   3.445   2.792 -0.4166  0.0274 -0.1321
  104MOL   C31137597   6.897   3.300   2.782 -0.1005  0.5000  0.8415
  104MOL   C31237598   6.903   3.231   2.916  0.2743 -0.2841  0.4544
  104MOL   C31337599   6.826   3.211   2.682  0.7413 -0.9530 -0.1363
  104MOL   H31437600   7.069   3.446   2.913  0.1584 -0.2413  1.7433
  104MOL   H31537601   6.957   3.551   3.005  3.8112 -0.8613  2.9560
  104MOL   H31637602   7.018   3.540   2.705 -0.2910 -2.8096 -0.2440
  104MOL   H31737603   6.781   3.460   2.705 -0.1471  1.7978 -0.0258
  104MOL   H31837604   6.780   3.461   2.879 -2.2819 -3.2401 -0.8089
  104MOL   H31937605   6.996   3.312   2.736 -0.0527  0.0909  0.8366
  104MOL   H32037606   6.810   3.177   2.936 -1.0388  1.1273 -1.5485
  104MOL   H32137607   6.914   3.297   3.002  2.3134  0.3642 -0.3014
  104MOL   H32237608   6.973   3.150   2.936  0.0187 -1.0611 -1.6842
  104MOL   H32337609   6.830   3.234   2.575  0.0082 -1.1120 -0.1975
  104MOL   H32437610   6.857   3.107   2.674 -0.9109 -1.5657  1.2740
  104MOL   H32537611   6.720   3.231   2.698  0.9815  1.8490 -1.6079
  104MOL   C32637612   6.889   3.696   2.768  0.6582 -0.3446 -0.0629
  104MOL   C32737613   6.945   3.807   2.677 -0.9785 -0.7294  0.4717
  104MOL   C32837614   6.854   3.935   2.684  0.3009 -0.3005 -0.1652
  104MOL   C32937615   6.842   4.010   2.818 -0.0447 -0.0753 -0.1471
  104MOL   C33037616   6.964   4.104   2.859 -0.1150  0.1430 -0.2758
  104MOL   C33137617   6.719   4.098   2.813  0.1149 -0.1249  0.1316
  104MOL   H33237618   6.887   3.740   2.868  0.9440 -2.3379  0.8346
  104MOL   H33337619   6.787   3.686   2.733 -0.1223  0.2416  1.9372
  104MOL   H33437620   7.037   3.833   2.729 -1.5664  0.2509  1.0319
  104MOL   H33537621   6.899   4.014   2.624 -1.1508  0.5924 -0.0719
  104MOL   H33637622   6.761   3.912   2.632  0.8001 -1.4960 -0.5688
  104MOL   H33737623   6.831   3.947   2.907  1.4176  0.3121  0.3270
  104MOL   H33837624   7.057   4.050   2.877  0.4552  1.6940  1.5864
  104MOL   H33937625   6.942   4.151   2.955 -0.8027 -0.0692 -0.3282
  104MOL   H34037626   6.998   4.179   2.788  1.3296 -1.5076 -1.3895
  104MOL   H34137627   6.628   4.050   2.778  0.0641  0.7890 -1.0066
  104MOL   H34237628   6.689   4.147   2.905  0.8006  1.0253 -0.2486
  104MOL   H34337629   6.749   4.170   2.737  2.7111 -1.6377 -0.3555
  104MOL   C34437630   6.968   3.759   2.530  0.1639  0.4619 -0.3556
  104MOL   C34537631   7.101   3.790   2.464 -0.0230  0.6860  0.4569
  104MOL   C34637632   7.115   3.937   2.410 -0.5050 -0.2251 -1.1128
  104MOL   C34737633   7.245   3.968   2.319  0.1508  0.2488  0.2800
  104MOL   C34837634   7.370   3.948   2.391  0.0716 -0.4976 -0.1714
  104MOL   C34937635   7.249   4.107   2.263 -0.3696  0.0067  0.0073
  104MOL   H35037636   6.890   3.797   2.464  1.3569 -0.0077 -2.0685
  104MOL   H35137637   6.964   3.650   2.529 -1.6767  0.4817  0.9860
  104MOL   H35237638   7.109   3.731   2.373 -2.4876  0.5807  0.2681
  104MOL   H35337639   7.021   3.960   2.361 -1.4719  0.1191  0.8457
  104MOL   H35437640   7.119   4.001   2.499 -0.4648 -1.3130 -0.3284
  104MOL   H35537641   7.237   3.899   2.235 -1.7525 -0.5915  1.1264
  104MOL   H35637642   7.457   3.944   2.325  0.2345 -0.2322  0.0291
  104MOL   H35737643   7.385   4.027   2.464 -0.3539 -1.1672  0.6501
  104MOL   H35837644   7.364   3.859   2.454 -1.7745 -1.2062 -1.3105
  104MOL   H35937645   7.341   4.139   2.214 -0.8815  0.4225 -0.6909
  104MOL   H36037646   7.237   4.174   2.348  1.3475 -1.3623  1.3713
  104MOL   H36137647   7.161   4.130   2.202 -1.2931 -0.1804  1.2332
  104MOL   H36237648   7.177   3.763   2.537  0.0263 -1.8312 -0.4852
  105MOL     C137649   2.838   1.210   2.131 -0.0354  0.9520 -0.0283
  105MOL     C237650   2.729   1.122   2.191 -0.4378 -0.4038  0.3155
  105MOL     C337651   2.608   1.105   2.097 -0.9255 -0.4966  0.4078
  105MOL     C437652   2.636   0.998   1.985  0.2726 -1.1186  0.0325
  105MOL     C537653   2.524   1.016   1.882  0.1957  0.2801  0.0519
  105MOL     C637654   2.657   0.852   2.030  0.5189  0.3315 -1.0492
  105MOL     H737655   2.917   1.239   2.201 -0.3378 -1.3758  1.3296
  105MOL     H837656   2.883   1.160   2.046 -2.2381  0.5369 -0.9714
  105MOL     H937657   2.769   1.025   2.218 -1.5246 -1.2607 -1.1299
  105MOL    H1037658   2.523   1.068   2.154 -1.7610  0.5788 -0.1222
  105MOL    H1137659   2.585   1.193   2.038  0.4476 -1.2971 -1.3861
  105MOL    H1237660   2.738   1.015   1.952  0.4414 -1.6829  0.2694
  105MOL    H1337661   2.489   1.118   1.869  0.9330  0.7257  1.4899
  105MOL    H1437662   2.551   0.974   1.785  0.6639  1.8054 -0.4993
  105MOL    H1537663   2.436   0.967   1.923 -1.1294  1.5558 -1.2031
  105MOL    H1637664   2.666   0.788   1.942  0.2191 -1.0450 -0.0841
  105MOL    H1737665   2.563   0.818   2.074  0.6333  0.2504 -0.8650
  105MOL    H1837666   2.731   0.839   2.109  1.1549 -0.2234 -1.7302
  105MOL    H1937667   2.805   1.309   2.099 -0.0736  0.7256 -0.6788
  105MOL    C2037668   2.668   1.186   2.318 -0.2060 -0.3803 -0.4168
  105MOL    C2137669   2.615   1.088   2.426 -0.0319  0.5178 -0.0792
  105MOL    C2237670   2.714   0.991   2.484  0.3465  0.2555 -0.1958
  105MOL    C2337671   2.656   0.860   2.531 -0.3300  0.0212  0.2958
  105MOL    C2437672   2.615   0.770   2.411  0.2021 -0.6439  0.5536
  105MOL    C2537673   2.746   0.790   2.630 -0.0422  0.6424 -0.1693
  105MOL    H2637674   2.739   1.249   2.372  0.6172 -1.0202 -0.7481
  105MOL    H2737675   2.596   1.261   2.284 -0.4653 -1.4974 -2.3962
  105MOL    H2837676   2.535   1.029   2.381  1.5856 -2.6625  1.1013
  105MOL    H2937677   2.765   1.046   2.563 -0.4632  3.4231 -1.8069
  105MOL    H3037678   2.792   0.950   2.419  1.3577 -0.0964  1.2084
  105MOL    H3137679   2.572   0.889   2.595  1.0412  0.1045  2.1100
  105MOL    H3237680   2.529   0.800   2.351 -0.3009 -1.2767  0.9513
  105MOL    H3337681   2.590   0.672   2.451 -3.2854  0.9786  2.5343
  105MOL    H3437682   2.707   0.739   2.361 -0.9607 -0.8991 -1.4615
  105MOL    H3537683   2.692   0.726   2.700 -0.4608  1.2613  0.0844
  105MOL    H3637684   2.823   0.727   2.588 -0.8374  1.2454 -2.5928
  105MOL    H3737685   2.802   0.864   2.687 -1.6042 -0.2379  2.6436
  105MOL    C3837686   2.547   1.165   2.536 -0.2147 -0.2708 -0.5849
  105MOL    C3937687   2.413   1.228   2.512 -0.0805 -0.6989 -0.0226
  105MOL    C4037688   2.375   1.345   2.612 -0.6051  0.4487  0.1829
  105MOL    C4137689   2.452   1.477   2.580 -0.1954 -0.0502  0.5003
  105MOL    C4237690   2.484   1.559   2.709  0.3296  0.2024  0.9342
  105MOL    C4337691   2.371   1.564   2.483  0.2193 -0.4760  0.0961
  105MOL    H4437692   2.614   1.245   2.568 -0.8008  0.0872 -0.2272
  105MOL    H4537693   2.541   1.100   2.623 -0.9032  0.6734  0.0856
  105MOL    H4637694   2.428   1.273   2.414 -1.4661  3.1272  1.4077
  105MOL    H4737695   2.395   1.316   2.714 -0.9614  1.3224  0.5108
  105MOL    H4837696   2.271   1.377   2.605 -0.5482  0.3422 -1.3709
  105MOL    H4937697   2.544   1.464   2.523  0.2546 -0.6942  1.3683
  105MOL    H5037698   2.541   1.651   2.696 -0.0986  0.7436  2.7834
  105MOL    H5137699   2.394   1.592   2.761  0.2806  3.5790 -1.1226
  105MOL    H5237700   2.545   1.493   2.770 -2.0553 -4.8343 -1.7858
  105MOL    H5337701   2.429   1.650   2.450  1.5574 -1.3725  0.0945
  105MOL    H5437702   2.269   1.596   2.506 -0.6638 -1.7643 -1.8433
  105MOL    H5537703   2.366   1.509   2.389  0.4395  2.5686 -1.7714
  105MOL    C5637704   2.300   1.128   2.506 -0.3736  0.0441  0.1220
  105MOL    C5737705   2.201   1.169   2.394  0.1270  0.3091 -0.3354
  105MOL    C5837706   2.052   1.142   2.438  0.7227 -0.3959 -0.3530
  105MOL    C5937707   1.987   1.239   2.544 -0.3062 -0.7235 -0.5181
  105MOL    C6037708   1.855   1.192   2.603 -0.7433 -0.5155 -0.7198
  105MOL    C6137709   1.965   1.375   2.476  0.5409  0.4449 -0.5453
  105MOL    H6237710   2.255   1.113   2.604 -1.1061 -1.3990 -0.4213
  105MOL    H6337711   2.346   1.031   2.484 -3.1627 -0.7874 -2.3054
  105MOL    H6437712   2.201   1.277   2.382  0.4332  0.2526 -0.8214
  105MOL    H6537713   1.977   1.145   2.359  0.0998 -1.7266  0.1810
  105MOL    H6637714   2.044   1.043   2.483  3.8767 -0.1215  0.9756
  105MOL    H6737715   2.057   1.247   2.627 -2.1626 -1.7005  1.1821
  105MOL    H6837716   1.848   1.254   2.692  0.2899  1.2923 -1.8639
  105MOL    H6937717   1.867   1.090   2.641 -2.6086 -0.2293  0.7382
  105MOL    H7037718   1.768   1.195   2.538 -0.8979  1.7686 -0.4300
  105MOL    H7137719   2.056   1.434   2.472  2.1453 -1.9301 -0.1707
  105MOL    H7237720   1.899   1.439   2.535  1.0852  1.1588 -0.7068
  105MOL    H7337721   1.917   1.378   2.378  1.4819 -2.1760 -1.1347
  105MOL    C7437722   2.244   1.115   2.261  0.5079  0.3648 -0.3641
  105MOL    C7537723   2.149   1.168   2.143 -0.5187 -0.4580  0.5353
  105MOL    C7637724   2.137   1.072   2.023 -0.0553 -0.8534  0.2504
  105MOL    C7737725   2.035   0.961   2.040 -0.1452 -0.0569  0.6426
  105MOL    C7837726   2.086   0.832   2.105 -0.4194  0.0247  0.0925
  105MOL    C7937727   1.969   0.923   1.904 -0.0749  0.8456 -0.3374
  105MOL    H8037728   2.246   1.006   2.269  4.2056  0.5560  3.3341
  105MOL    H8137729   2.346   1.136   2.230  1.9951 -4.0249  1.0705
  105MOL    H8237730   2.047   1.191   2.175 -0.4060  2.8990 -1.2493
  105MOL    H8337731   2.136   1.127   1.929 -0.4789  0.1651  0.8525
  105MOL    H8437732   2.229   1.015   2.009 -1.0992 -1.6116 -4.2731
  105MOL    H8537733   1.955   0.990   2.108 -1.7496 -2.0063 -0.3363
  105MOL    H8637734   2.020   0.745   2.100 -0.9321  0.3528  1.0030
  105MOL    H8737735   2.111   0.849   2.210  3.0023  0.6818 -0.7848
  105MOL    H8837736   2.185   0.809   2.065 -1.4779 -2.0161 -1.4533
  105MOL    H8937737   1.875   0.869   1.916 -0.5787  1.9659  0.8657
  105MOL    H9037738   1.938   1.008   1.843 -1.4736 -0.7597 -1.9406
  105MOL    H9137739   2.029   0.854   1.845  0.4875 -0.7792  2.0884
  105MOL    C9237740   2.208   1.302   2.091  0.8351  0.9624 -0.0106
  105MOL    C9337741   2.129   1.391   1.988  0.1012 -0.7574  0.2158
  105MOL    C9437742   2.012   1.456   2.069 -0.1417 -0.0981  0.0152
  105MOL    C9537743   1.892   1.511   1.998  0.7371 -0.2306  0.5867
  105MOL    C9637744   1.806   1.391   1.937 -0.5722 -0.4727 -0.2403
  105MOL    C9737745   1.804   1.584   2.106 -0.1809 -0.4051  0.0922
  105MOL    H9837746   2.215   1.363   2.181  0.1154 -0.0251  0.7131
  105MOL    H9937747   2.310   1.283   2.059  0.5675 -2.3769  0.9331
  105MOL   H10037748   2.091   1.330   1.906 -0.6925  1.0787 -0.8266
  105MOL   H10137749   2.056   1.534   2.130 -0.9653 -0.2095  0.7642
  105MOL   H10237750   1.970   1.383   2.138 -0.5678  0.8605  0.7776
  105MOL   H10337751   1.917   1.590   1.928  1.4184 -0.9361  0.0317
  105MOL   H10437752   1.854   1.337   1.855 -1.3868 -0.4438 -0.7362
  105MOL   H10537753   1.709   1.430   1.909 -0.2606  0.8717  0.5267
  105MOL   H10637754   1.782   1.310   2.007  1.0871  0.3276  1.2895
  105MOL   H10737755   1.863   1.669   2.141 -0.5090  0.2643 -0.9697
  105MOL   H10837756   1.779   1.521   2.191  0.8087 -0.0583  0.6477
  105MOL   H10937757   1.709   1.621   2.067 -0.2362 -2.1898 -1.5362
  105MOL   C11037758   2.207   1.506   1.914  0.4008 -0.0923  0.1349
  105MOL   C11137759   2.298   1.453   1.796  0.4986 -0.4112 -0.5935
  105MOL   C11237760   2.232   1.393   1.669 -0.1223  0.0279 -0.4058
  105MOL   C11337761   2.162   1.499   1.581  0.2806  0.3613  0.5545
  105MOL   C11437762   2.026   1.551   1.619  0.4960  0.0081 -0.0241
  105MOL   C11537763   2.161   1.466   1.431 -0.0038 -0.1196 -0.5898
  105MOL   H11637764   2.256   1.562   1.993  0.8631 -1.5739  0.9243
  105MOL   H11737765   2.142   1.578   1.865 -0.6667  0.0133  1.6989
  105MOL   H11837766   2.353   1.364   1.828  1.0300 -0.1957 -0.8960
  105MOL   H11937767   2.164   1.313   1.698 -0.9386  0.8481 -0.0593
  105MOL   H12037768   2.318   1.349   1.618  1.3346  0.0703  1.9226
  105MOL   H12137769   2.230   1.584   1.579  1.4380 -0.5312  1.3376
  105MOL   H12237770   1.942   1.519   1.558  0.4674 -0.2342  0.1409
  105MOL   H12337771   2.023   1.657   1.595 -1.1926  0.1330  0.7188
  105MOL   H12437772   2.000   1.535   1.724 -0.0189  0.0120 -0.1494
  105MOL   H12537773   2.148   1.553   1.366  0.5072 -0.5294 -1.2431
  105MOL   H12637774   2.093   1.386   1.403  1.8024 -2.1688  0.6964
  105MOL   H12737775   2.262   1.432   1.409  0.0278  1.4221 -3.0090
  105MOL   C12837776   2.411   1.552   1.761  0.1532  0.1282 -0.9258
  105MOL   C12937777   2.534   1.502   1.679 -0.4133  0.0224  0.4333
  105MOL   C13037778   2.612   1.400   1.761  0.1036 -0.2567  0.2364
  105MOL   C13137779   2.717   1.322   1.673 -0.0800  0.6204  0.3452
  105MOL   C13237780   2.815   1.239   1.761  0.1529  0.1147  0.1324
  105MOL   C13337781   2.646   1.226   1.577 -0.1401 -0.5613 -0.5278
  105MOL   H13437782   2.443   1.595   1.856 -1.2949 -1.6335  0.3979
  105MOL   H13537783   2.376   1.638   1.703 -0.0513 -1.1163 -2.6702
  105MOL   H13637784   2.495   1.462   1.586 -0.9223 -1.2127  1.1718
  105MOL   H13737785   2.671   1.446   1.841  1.1743 -0.6287 -0.3380
  105MOL   H13837786   2.559   1.314   1.802 -3.0683  1.1721 -0.7201
  105MOL   H13937787   2.764   1.391   1.603  1.9036 -1.5044 -0.4916
  105MOL   H14037788   2.877   1.179   1.695  1.0726  0.2341  0.8804
  105MOL   H14137789   2.757   1.172   1.824  0.2683 -1.1831 -1.1232
  105MOL   H14237790   2.877   1.294   1.831 -2.0244  2.5064  0.2638
  105MOL   H14337791   2.586   1.157   1.636 -1.5710  1.2173  0.1317
  105MOL   H14437792   2.586   1.281   1.504  0.1757 -1.0353 -1.1484
  105MOL   H14537793   2.720   1.165   1.525  0.0975 -0.9779  0.3021
  105MOL   C14637794   2.617   1.632   1.632 -0.4788  0.1709 -0.4076
  105MOL   C14737795   2.611   1.665   1.479  0.6462 -0.7534 -0.4375
  105MOL   C14837796   2.470   1.686   1.432  0.3210 -1.0055  0.4164
  105MOL   C14937797   2.446   1.762   1.299  0.2453 -0.3474 -0.3127
  105MOL   C15037798   2.300   1.765   1.256  0.5979 -0.4390 -0.3375
  105MOL   C15137799   2.481   1.910   1.323 -0.6830 -0.6492  0.2984
  105MOL   H15237800   2.722   1.615   1.654 -0.6751 -0.1815  0.2984
  105MOL   H15337801   2.586   1.725   1.681  1.7905  1.3900 -1.2238
  105MOL   H15437802   2.649   1.766   1.473  1.3033 -1.0776 -1.7525
  105MOL   H15537803   2.405   1.599   1.438 -0.6400 -0.1876  2.0959
  105MOL   H15637804   2.428   1.752   1.508 -0.1384 -1.6383  0.7121
  105MOL   H15737805   2.502   1.725   1.214  1.2307  1.4123 -0.4443
  105MOL   H15837806   2.226   1.792   1.331  0.6336 -1.1943 -0.0253
  105MOL   H15937807   2.277   1.661   1.229 -1.3030 -0.1748  0.1552
  105MOL   H16037808   2.285   1.838   1.177  2.7846  0.4542  0.0383
  105MOL   H16137809   2.422   1.965   1.396 -1.6704 -0.1881 -0.8286
  105MOL   H16237810   2.450   1.957   1.229  1.1379  2.1109  1.0061
  105MOL   H16337811   2.588   1.919   1.338 -0.4749 -2.1408 -0.2518
  105MOL   C16437812   2.690   1.577   1.382  0.2649  0.3290  0.2826
  105MOL   C16537813   2.805   1.649   1.317 -0.8532  0.1904  0.1731
  105MOL   C16637814   2.910   1.691   1.420 -0.0291 -0.3255 -0.2312
  105MOL   C16737815   3.009   1.805   1.384  0.0761  0.5800 -0.3245
  105MOL   C16837816   2.930   1.941   1.376  0.5080  0.1090 -0.0556
  105MOL   C16937817   3.113   1.822   1.487  0.0284  0.0029 -0.0419
  105MOL   H17037818   2.723   1.494   1.444 -2.1983 -1.5983 -0.9078
  105MOL   H17137819   2.630   1.534   1.302  0.4391 -2.3810  1.5351
  105MOL   H17237820   2.777   1.747   1.277  2.0936  0.8229 -0.4505
  105MOL   H17337821   2.853   1.725   1.506  0.3776  1.3729 -0.6228
  105MOL   H17437822   2.972   1.607   1.452  1.1224  0.6040 -0.0145
  105MOL   H17537823   3.054   1.775   1.290 -1.0338 -0.2093 -0.6147
  105MOL   H17637824   2.889   1.977   1.471  2.0535  2.2327 -0.1597
  105MOL   H17737825   2.856   1.952   1.296  0.7449 -1.3948 -0.4852
  105MOL   H17837826   2.996   2.015   1.332  2.4266 -1.2389  0.5222
  105MOL   H17937827   3.173   1.909   1.462 -1.6127  0.7155 -1.6562
  105MOL   H18037828   3.177   1.736   1.506  1.1323  0.8398  0.0926
  105MOL   H18137829   3.084   1.855   1.587  0.6779  0.6394 -0.0579
  105MOL   C18237830   2.871   1.566   1.206 -0.7387 -0.8119 -0.7737
  105MOL   C18337831   2.797   1.599   1.066 -0.1416 -0.3470  0.0914
  105MOL   C18437832   2.870   1.707   0.978  0.3747  0.3338 -0.5463
  105MOL   C18537833   2.841   1.855   1.007 -0.4508  0.2356 -0.4279
  105MOL   C18637834   2.965   1.953   1.010 -0.0376  0.3718 -0.6763
  105MOL   C18737835   2.731   1.914   0.925  0.4572 -0.1669 -0.3887
  105MOL   H18837836   2.856   1.463   1.237  0.3913 -0.4725  0.9590
  105MOL   H18937837   2.978   1.580   1.193 -1.0508  1.5061 -1.0817
  105MOL   H19037838   2.695   1.631   1.088 -0.3081 -0.2799 -0.7588
  105MOL   H19137839   2.850   1.693   0.871  2.8611 -0.0403 -0.9996
  105MOL   H19237840   2.978   1.696   0.976  0.4401  1.0637 -1.3466
  105MOL   H19337841   2.809   1.849   1.111 -1.3353  0.1200 -0.7061
  105MOL   H19437842   3.060   1.916   1.048  0.8241  2.9766 -0.2109
  105MOL   H19537843   2.944   2.038   1.075  0.0942 -0.0983 -0.0168
  105MOL   H19637844   3.004   1.986   0.914 -1.9043 -1.1552 -2.0162
  105MOL   H19737845   2.646   1.849   0.946 -1.1591  2.1868  0.5738
  105MOL   H19837846   2.751   1.917   0.818  2.1288 -2.4274 -0.1720
  105MOL   H19937847   2.713   2.016   0.958 -1.7758 -0.0877 -1.7295
  105MOL   C20037848   2.795   1.462   0.996 -0.7360  0.3302 -0.2175
  105MOL   C20137849   2.716   1.441   0.858 -0.0404  0.3240 -1.1044
  105MOL   C20237850   2.570   1.463   0.882  0.0009 -0.4573  0.6398
  105MOL   C20337851   2.481   1.474   0.754  0.1160 -0.1384 -0.8152
  105MOL   C20437852   2.334   1.474   0.797 -0.0749  0.4394 -0.0952
  105MOL   C20537853   2.511   1.601   0.681  0.3873 -0.1492 -0.6923
  105MOL   H20637854   2.756   1.386   1.063 -1.5364  0.7282 -0.2268
  105MOL   H20737855   2.898   1.434   0.975  0.0247  0.4123  3.1013
  105MOL   H20837856   2.751   1.521   0.793  2.2565  1.3437  1.2723
  105MOL   H20937857   2.540   1.386   0.953 -0.4861 -2.1594 -1.3749
  105MOL   H21037858   2.554   1.554   0.940  1.4033 -0.2689  0.7499
  105MOL   H21137859   2.490   1.379   0.703  0.8475 -0.6320  0.2301
  105MOL   H21237860   2.314   1.544   0.878  0.6522  0.6101 -0.0522
  105MOL   H21337861   2.303   1.374   0.828  1.5371 -0.6283 -1.8088
  105MOL   H21437862   2.259   1.491   0.720 -0.4206 -0.8685 -0.0515
  105MOL   H21537863   2.444   1.620   0.597 -0.2380 -0.3380 -0.2412
  105MOL   H21637864   2.618   1.606   0.660  0.5553 -2.2492 -0.4604
  105MOL   H21737865   2.482   1.681   0.748  1.1273 -1.3681  1.1176
  105MOL   C21837866   2.734   1.293   0.810 -0.1019 -0.5457  0.4164
  105MOL   C21937867   2.879   1.239   0.797  0.6521  0.0929  0.7018
  105MOL   C22037868   2.964   1.306   0.689  0.8097 -0.0180 -0.0300
  105MOL   C22137869   2.919   1.322   0.541  0.0257 -0.1131 -0.9550
  105MOL   C22237870   2.827   1.441   0.520  0.1377 -0.4774  0.1682
  105MOL   C22337871   3.039   1.321   0.448 -0.1808  0.0010  0.7830
  105MOL   H22437872   2.683   1.239   0.889 -0.5869  1.5510  1.5634
  105MOL   H22537873   2.668   1.260   0.729 -2.2379  1.0090  1.5034
  105MOL   H22637874   2.932   1.236   0.892  1.8349 -1.5145  0.0205
  105MOL   H22737875   2.998   1.405   0.720  0.9998  0.2401 -1.0380
  105MOL   H22837876   3.059   1.253   0.684  1.0412  0.2353  1.4858
  105MOL   H22937877   2.854   1.240   0.509 -0.3986 -0.7356  1.4423
  105MOL   H23037878   2.809   1.465   0.416 -1.0356 -1.9694  0.0064
  105MOL   H23137879   2.723   1.424   0.550 -0.2891 -2.0170 -2.0778
  105MOL   H23237880   2.869   1.533   0.561 -0.6403  0.3313 -0.8177
  105MOL   H23337881   3.099   1.230   0.451  1.0513  0.8315  2.2704
  105MOL   H23437882   3.005   1.345   0.348  0.0658 -2.9196 -0.0586
  105MOL   H23537883   3.113   1.391   0.485 -0.1154 -1.7832  4.2492
  105MOL   C23637884   2.883   1.082   0.769  0.6439  1.0548 -0.6712
  105MOL   C23737885   2.805   0.981   0.862  0.1341 -0.2426 -0.4535
  105MOL   C23837886   2.838   0.985   1.015 -0.0560 -0.4229 -0.2025
  105MOL   C23937887   2.989   0.953   1.043 -0.1458  0.3898 -0.3520
  105MOL   C24037888   3.054   1.062   1.128  0.0167 -0.3492  0.4568
  105MOL   C24137889   3.008   0.816   1.112 -0.1672 -0.1593  0.7059
  105MOL   H24237890   2.988   1.057   0.755  1.5341  2.9614  2.0859
  105MOL   H24337891   2.829   1.070   0.675  0.8910  1.2533 -0.8376
  105MOL   H24437892   2.701   1.010   0.876 -0.0665 -0.6317 -1.1401
  105MOL   H24537893   2.778   0.911   1.068 -0.1225 -0.0254  0.2866
  105MOL   H24637894   2.794   1.078   1.053  1.6977  0.6668 -0.8026
  105MOL   H24737895   3.036   0.947   0.945 -1.8006 -2.0808 -1.0287
  105MOL   H24837896   3.000   1.048   1.222 -0.1747  0.7027  0.5119
  105MOL   H24937897   3.017   1.161   1.103 -0.1732 -0.9361 -1.6497
  105MOL   H25037898   3.159   1.048   1.153 -0.1008  0.1983  1.2677
  105MOL   H25137899   2.968   0.727   1.064 -0.6957 -0.1602  1.1414
  105MOL   H25237900   2.986   0.826   1.218 -1.9031  0.3157  0.3139
  105MOL   H25337901   3.113   0.787   1.122 -0.0046  0.3940  0.6355
  105MOL   C25437902   2.807   0.842   0.806 -0.0563 -0.6053  0.2232
  105MOL   C25537903   2.736   0.802   0.674 -0.1762  0.4747 -0.4941
  105MOL   C25637904   2.784   0.659   0.622  1.1864 -0.0569  0.2514
  105MOL   C25737905   2.749   0.616   0.472  0.4825 -0.2759 -0.5466
  105MOL   C25837906   2.796   0.471   0.447  0.6511  0.1985  0.5068
  105MOL   C25937907   2.807   0.714   0.364 -0.1733 -0.8241  0.6451
  105MOL   H26037908   2.910   0.811   0.789 -0.4897 -1.3273 -1.1574
  105MOL   H26137909   2.793   0.778   0.893 -0.7252  0.8559  1.2144
  105MOL   H26237910   2.755   0.875   0.596  0.7365  1.4728  0.6475
  105MOL   H26337911   2.750   0.580   0.689 -1.7951 -0.7791 -2.0151
  105MOL   H26437912   2.893   0.667   0.626  1.0723  2.6011 -1.1029
  105MOL   H26537913   2.642   0.610   0.455  0.2698  2.2140 -0.2229
  105MOL   H26637914   2.898   0.452   0.479  0.7577  0.1824  0.1513
  105MOL   H26737915   2.793   0.450   0.340  3.6673  1.5857  0.0968
  105MOL   H26837916   2.733   0.406   0.507 -1.5052  1.6549 -0.1001
  105MOL   H26937917   2.916   0.710   0.363 -0.1772 -0.8168  0.3883
  105MOL   H27037918   2.766   0.708   0.263 -1.9573  2.6258  1.0774
  105MOL   H27137919   2.775   0.811   0.401 -2.5782 -1.8352  1.3427
  105MOL   C27237920   2.583   0.783   0.706 -0.0208  0.6495 -0.2530
  105MOL   C27337921   2.487   0.904   0.678  0.7238  0.9326 -0.2333
  105MOL   C27437922   2.457   0.913   0.521 -0.2146  0.4316  0.0594
  105MOL   C27537923   2.445   1.057   0.472  0.0293 -0.0934  0.2295
  105MOL   C27637924   2.364   1.059   0.341  0.7031  0.5414  0.2856
  105MOL   C27737925   2.578   1.127   0.459 -0.2498 -0.3889 -0.1596
  105MOL   H27837926   2.544   0.703   0.643  0.4564 -0.0952  0.3816
  105MOL   H27937927   2.571   0.746   0.808  1.0184  0.7885 -0.0775
  105MOL   H28037928   2.544   0.992   0.706 -0.8975  1.9189  0.0843
  105MOL   H28137929   2.361   0.869   0.493 -0.7036  0.8269  1.1137
  105MOL   H28237930   2.529   0.855   0.463 -0.2202 -0.1255  0.6178
  105MOL   H28337931   2.388   1.105   0.551 -1.1477  0.4966 -0.9502
  105MOL   H28437932   2.413   1.006   0.259  0.4520  0.1665  0.3736
  105MOL   H28537933   2.269   1.006   0.349  1.1256 -0.2932 -0.1264
  105MOL   H28637934   2.354   1.161   0.305 -0.9303 -0.0015 -0.8390
  105MOL   H28737935   2.618   1.123   0.560  1.6375 -0.6036 -0.9000
  105MOL   H28837936   2.651   1.094   0.385 -0.7779  2.8644 -2.2313
  105MOL   H28937937   2.556   1.231   0.434 -2.3340 -1.0833 -1.3537
  105MOL   C29037938   2.353   0.888   0.747 -0.5067  0.5111 -0.2319
  105MOL   C29137939   2.364   0.883   0.910  0.2091  0.2095  0.0797
  105MOL   C29237940   2.364   1.027   0.961 -0.9417 -0.5369  0.0223
  105MOL   C29337941   2.372   1.052   1.111  0.1387 -0.1243  0.0770
  105MOL   C29437942   2.495   0.987   1.181  0.5697  0.6695 -0.1496
  105MOL   C29537943   2.368   1.207   1.138 -0.1681 -0.6834  0.2167
  105MOL   H29637944   2.312   0.986   0.721 -0.4061  0.9924  1.3336
  105MOL   H29737945   2.306   0.797   0.710 -0.3159 -0.7423  2.5032
  105MOL   H29837946   2.460   0.846   0.945  0.7441  0.5189 -1.0583
  105MOL   H29937947   2.280   1.079   0.916 -1.4228 -0.7247  0.7045
  105MOL   H30037948   2.446   1.081   0.913 -0.9625 -2.6314 -2.4377
  105MOL   H30137949   2.280   1.011   1.151 -0.7052  2.0209  0.4138
  105MOL   H30237950   2.586   1.033   1.142  1.3282 -0.3646  0.3491
  105MOL   H30337951   2.511   0.880   1.167 -0.8103  0.3463  0.6939
  105MOL   H30437952   2.496   1.011   1.287  2.6693 -0.2184  0.0630
  105MOL   H30537953   2.375   1.211   1.246 -0.1671  1.6024  0.1428
  105MOL   H30637954   2.273   1.252   1.110  1.0426  2.1153  0.5033
  105MOL   H30737955   2.449   1.262   1.091  0.2999  1.7097  3.6735
  105MOL   C30837956   2.244   0.798   0.966  0.4135 -0.2976 -0.0004
  105MOL   C30937957   2.264   0.650   0.951 -0.4532  0.2570  0.3623
  105MOL   C31037958   2.347   0.587   1.065 -0.1328  0.3968  0.7361
  105MOL   C31137959   2.398   0.443   1.036  0.4761  0.7518  0.4003
  105MOL   C31237960   2.517   0.431   0.936  0.5352  0.4251 -0.4893
  105MOL   C31337961   2.433   0.381   1.164 -0.2146  0.0055 -0.0631
  105MOL   H31437962   2.221   0.817   1.070 -0.2523 -0.1492 -0.1730
  105MOL   H31537963   2.150   0.825   0.919  0.0523  1.8323  1.8753
  105MOL   H31637964   2.323   0.628   0.862 -2.7510 -0.5413 -1.0203
  105MOL   H31737965   2.283   0.597   1.152 -1.9474  1.9692 -0.7409
  105MOL   H31837966   2.430   0.654   1.090  0.1693  1.0009 -1.7333
  105MOL   H31937967   2.322   0.382   0.987 -0.1060  0.4579  1.6477
  105MOL   H32037968   2.482   0.457   0.836 -0.0944  3.4067  0.4312
  105MOL   H32137969   2.557   0.330   0.932 -0.5263 -0.0025 -0.4557
  105MOL   H32237970   2.602   0.493   0.965  1.7884 -1.3090 -0.3533
  105MOL   H32337971   2.518   0.427   1.214  0.4256 -1.1079 -0.1269
  105MOL   H32437972   2.357   0.392   1.241  1.9014 -0.1443  2.0923
  105MOL   H32537973   2.453   0.275   1.154  1.1016  0.1526  0.8434
  105MOL   C32637974   2.124   0.583   0.955 -0.1337  0.6461  0.2313
  105MOL   C32737975   2.046   0.585   0.816 -0.0432 -0.4839 -0.7889
  105MOL   C32837976   1.902   0.541   0.828  0.5789 -0.4546 -0.0888
  105MOL   C32937977   1.794   0.626   0.910  0.5313  0.2905  0.5950
  105MOL   C33037978   1.796   0.778   0.878 -0.7800 -0.1148  0.2405
  105MOL   C33137979   1.656   0.564   0.907 -0.3667 -0.2611  0.0853
  105MOL   H33237980   2.056   0.624   1.030 -1.2978  0.6065 -0.7765
  105MOL   H33337981   2.128   0.484   1.002 -0.0293 -0.2698 -1.6703
  105MOL   H33437982   2.043   0.689   0.784 -0.1340  0.6769  2.7943
  105MOL   H33537983   1.867   0.535   0.725  1.0207 -2.5549 -0.1474
  105MOL   H33637984   1.906   0.442   0.874 -0.9340  0.2230  1.5291
  105MOL   H33737985   1.837   0.618   1.009  0.7619 -1.8190  0.3334
  105MOL   H33837986   1.764   0.804   0.777 -1.8531 -0.1152  0.5668
  105MOL   H33937987   1.893   0.822   0.901 -1.2424 -0.2156  2.5916
  105MOL   H34037988   1.721   0.829   0.940 -0.8935  1.5971 -1.2504
  105MOL   H34137989   1.655   0.459   0.935 -0.5577 -0.3342 -0.1917
  105MOL   H34237990   1.600   0.593   0.996  1.0650 -2.1725  1.6507
  105MOL   H34337991   1.597   0.595   0.821  0.7352  1.6241 -0.0350
  105MOL   C34437992   2.121   0.506   0.704  0.1119  0.3860 -0.5477
  105MOL   C34537993   2.120   0.351   0.718 -0.2490 -0.2910 -0.5934
  105MOL   C34637994   2.252   0.289   0.673  0.3519  0.0399 -0.3152
  105MOL   C34737995   2.247   0.142   0.632 -0.5081 -0.0863 -0.1148
  105MOL   C34837996   2.164   0.056   0.731  0.0777  0.1444  0.2812
  105MOL   C34937997   2.382   0.076   0.615 -0.0611  0.7871  0.5346
  105MOL   H35037998   2.221   0.541   0.677 -0.1432  0.3806 -1.5154
  105MOL   H35137999   2.076   0.535   0.609  0.8364  4.3410  0.2371
  105MOL   H35238000   2.039   0.321   0.652 -2.9693  0.5944  2.2371
  105MOL   H35338001   2.293   0.350   0.592 -0.9675  1.1104 -0.1928
  105MOL   H35438002   2.325   0.298   0.754  0.3964 -0.5261 -0.2908
  105MOL   H35538003   2.195   0.127   0.537 -1.1355  0.4258  0.1453
  105MOL   H35638004   2.224   0.038   0.821  0.5256 -0.2314 -0.0908
  105MOL   H35738005   2.064   0.089   0.757  0.4793  0.4609  1.5070
  105MOL   H35838006   2.138   7.716   0.680 -0.6821  0.8212 -0.5676
  105MOL   H35938007   2.362   7.724   0.592  1.6223  0.2136  1.5814
  105MOL   H36038008   2.429   0.088   0.713  3.0379  0.6997 -0.8580
  105MOL   H36138009   2.436   0.115   0.529 -1.7210  0.4502 -0.6811
  105MOL   H36238010   2.105   0.315   0.819  1.6290  1.4584  0.3488
  106MOL     C138011   3.222   0.519   2.177  0.5218 -0.7006 -0.1299
  106MOL     C238012   3.101   0.586   2.240 -0.4177 -0.0272  0.1354
  106MOL     C338013   3.146   0.680   2.359  0.0887  0.0083  0.0489
  106MOL     C438014   3.049   0.798   2.391 -0.0990  0.0296 -0.0370
  106MOL     C538015   3.078   0.909   2.294  0.4708 -0.2608  0.3527
  106MOL     C638016   3.077   0.851   2.534  0.2461  0.1728 -0.4279
  106MOL     H738017   3.274   0.584   2.106 -1.5490 -0.6850 -1.6594
  106MOL     H838018   3.293   0.482   2.251  1.2586  0.0024 -0.4729
  106MOL     H938019   3.060   0.651   2.162 -2.8868 -1.2915  0.3152
  106MOL    H1038020   3.154   0.605   2.438 -0.1690 -0.1304 -0.0557
  106MOL    H1138021   3.245   0.723   2.347  0.3291 -0.2394  1.1202
  106MOL    H1238022   2.947   0.763   2.380  0.8612 -2.5088 -1.1743
  106MOL    H1338023   3.184   0.937   2.297  0.8007 -1.4839  0.2995
  106MOL    H1438024   3.048   0.876   2.194 -1.6793  1.5863  0.3400
  106MOL    H1538025   3.010   0.988   2.325  0.6095  0.2274 -0.5664
  106MOL    H1638026   3.061   0.783   2.617  1.0883  0.4605 -0.0319
  106MOL    H1738027   3.015   0.937   2.561 -0.2070 -0.6333  1.1819
  106MOL    H1838028   3.180   0.882   2.546 -0.2339  2.0427 -0.9768
  106MOL    H1938029   3.203   0.436   2.109 -0.2251 -1.3171  0.8306
  106MOL    C2038030   3.001   0.478   2.290  0.1697 -0.3861 -0.0608
  106MOL    C2138031   2.917   0.389   2.183 -0.9268 -0.4591 -1.1341
  106MOL    C2238032   2.863   0.265   2.258 -0.4457 -0.0677 -0.0830
  106MOL    C2338033   2.953   0.155   2.316 -0.2010 -0.4063 -0.0676
  106MOL    C2438034   2.872   0.052   2.392  0.0994  0.5789 -0.7487
  106MOL    C2538035   3.047   0.089   2.206 -0.5744  0.2571 -1.0638
  106MOL    H2638036   3.050   0.412   2.361 -1.8725  0.7820  2.5355
  106MOL    H2738037   2.926   0.524   2.355 -0.6538 -1.0480 -0.5205
  106MOL    H2838038   2.985   0.345   2.111  0.9935  0.2774  0.1889
  106MOL    H2938039   2.787   0.213   2.200 -1.2300  0.4193  0.5043
  106MOL    H3038040   2.803   0.310   2.337  1.5332 -0.3902  1.6461
  106MOL    H3138041   3.034   0.185   2.383  0.8276 -3.9613  0.3815
  106MOL    H3238042   2.800   0.007   2.323  0.2737  1.6803 -1.6710
  106MOL    H3338043   2.810   0.081   2.477  0.4512 -2.6676  0.7070
  106MOL    H3438044   2.944   7.736   2.436 -0.3830  0.0913 -0.7087
  106MOL    H3538045   3.003   0.059   2.111 -1.4978 -1.0993 -0.2353
  106MOL    H3638046   3.130   0.157   2.188 -0.3358  0.0904 -0.6052
  106MOL    H3738047   3.104   0.003   2.239 -1.8199 -0.2832 -0.2817
  106MOL    C3838048   2.809   0.473   2.106  0.0632 -0.0221  0.2821
  106MOL    C3938049   2.771   0.431   1.961 -1.2128 -0.2829  0.2054
  106MOL    C4038050   2.701   0.295   1.948  0.3846  0.6073  0.0515
  106MOL    C4138051   2.561   0.294   2.018  0.4709 -0.1631  0.3994
  106MOL    C4238052   2.521   0.146   2.025  0.6064  0.3083  0.2742
  106MOL    C4338053   2.456   0.380   1.937  0.3217  0.7823 -0.6929
  106MOL    H4438054   2.842   0.577   2.105 -0.9885  0.3061 -0.3239
  106MOL    H4538055   2.718   0.487   2.164  0.6072 -0.6642  1.2993
  106MOL    H4638056   2.703   0.510   1.930 -1.2442 -0.1360  0.6419
  106MOL    H4738057   2.764   0.213   1.982 -0.5408 -0.1698 -0.0823
  106MOL    H4838058   2.680   0.275   1.843  0.3462  1.8794 -0.1938
  106MOL    H4938059   2.559   0.327   2.122  2.2018  0.5517  0.2248
  106MOL    H5038060   2.414   0.148   2.042  0.4667  0.2100 -0.5772
  106MOL    H5138061   2.539   0.101   1.928  1.1368  1.8319 -0.3572
  106MOL    H5238062   2.553   0.102   2.119  0.3043  0.0797  0.2697
  106MOL    H5338063   2.471   0.487   1.946  0.6889  0.5869  1.2575
  106MOL    H5438064   2.362   0.347   1.981  1.2546 -1.8873 -0.5963
  106MOL    H5538065   2.459   0.351   1.832 -0.4805 -0.2307 -0.4428
  106MOL    C5638066   2.894   0.442   1.866  0.4361  0.2869 -1.0100
  106MOL    C5738067   2.860   0.449   1.711 -0.4165 -0.5476  0.7331
  106MOL    C5838068   2.755   0.556   1.672 -0.4999  0.6585 -0.3861
  106MOL    C5938069   2.776   0.615   1.524 -0.8861 -0.3659 -0.9480
  106MOL    C6038070   2.904   0.698   1.510 -0.1457  0.0413  0.1369
  106MOL    C6138071   2.655   0.696   1.496 -0.4048  0.3294 -0.2258
  106MOL    H6238072   2.955   0.354   1.889 -1.5621 -0.8780 -0.0110
  106MOL    H6338073   2.944   0.532   1.900  1.6994 -1.5835  2.3499
  106MOL    H6438074   2.955   0.487   1.675 -0.3084 -0.3494  1.2156
  106MOL    H6538075   2.655   0.513   1.672  0.6400 -2.1227  0.1967
  106MOL    H6638076   2.756   0.637   1.745  1.6727  1.6502 -1.4567
  106MOL    H6738077   2.781   0.530   1.456 -0.8319  0.2095 -1.6591
  106MOL    H6838078   2.915   0.771   1.589 -1.3052 -0.1276  0.4689
  106MOL    H6938079   2.904   0.754   1.417 -2.3675  1.5678  1.0124
  106MOL    H7038080   2.996   0.640   1.512  0.0906  0.4341  0.8265
  106MOL    H7138081   2.650   0.775   1.571  1.3570 -0.2962  0.5645
  106MOL    H7238082   2.562   0.644   1.519 -0.5726  0.5554 -0.3871
  106MOL    H7338083   2.660   0.739   1.396  1.0265  0.0347 -0.2869
  106MOL    C7438084   2.845   0.319   1.629 -0.9173  1.4011 -0.4953
  106MOL    C7538085   2.956   0.211   1.640 -0.0214 -0.3880 -0.0115
  106MOL    C7638086   3.085   0.261   1.573  0.5417  0.3077 -0.0146
  106MOL    C7738087   3.225   0.226   1.639  0.3166 -0.5970  0.0420
  106MOL    C7838088   3.258   0.303   1.767  0.0241 -0.9525  0.0004
  106MOL    C7938089   3.332   0.231   1.533  0.3542  0.8084  0.5677
  106MOL    H8038090   2.843   0.343   1.522  1.8236  0.6294 -0.7444
  106MOL    H8138091   2.747   0.276   1.648 -0.8923  0.6614 -1.9989
  106MOL    H8238092   2.976   0.191   1.745  0.5281 -0.9589 -0.2224
  106MOL    H8338093   3.087   0.264   1.464 -1.9768 -0.0091 -0.0885
  106MOL    H8438094   3.082   0.369   1.591  0.0013  0.7761 -2.7798
  106MOL    H8538095   3.217   0.120   1.662  0.3269 -0.3542  1.2101
  106MOL    H8638096   3.190   0.280   1.849 -2.2905  0.6781 -1.3907
  106MOL    H8738097   3.241   0.410   1.755  0.4418 -0.8511  0.3365
  106MOL    H8838098   3.359   0.293   1.805 -0.3354  0.7898  1.4668
  106MOL    H8938099   3.427   0.217   1.584  0.0007  1.5652  1.4448
  106MOL    H9038100   3.303   0.159   1.457  2.5759  1.3535 -0.8440
  106MOL    H9138101   3.336   0.320   1.470 -2.1753 -0.7630 -1.9224
  106MOL    C9238102   2.915   0.069   1.575  0.7601  0.3039  0.6161
  106MOL    C9338103   2.847   7.733   1.684  0.5328  0.3174  0.2516
  106MOL    C9438104   2.762   7.627   1.608  0.1966 -0.7228 -0.1020
  106MOL    C9538105   2.631   7.673   1.533 -0.1227 -1.0512 -0.8214
  106MOL    C9638106   2.564   7.552   1.474  0.0242 -0.0608  0.0437
  106MOL    C9738107   2.522   7.732   1.622  0.5020 -0.1145 -0.1735
  106MOL    H9838108   2.864   0.080   1.480  3.7345  0.3604 -1.0180
  106MOL    H9938109   3.005   0.015   1.545  0.6703 -0.6865  2.0822
  106MOL   H10038110   2.780   0.045   1.741 -0.1557 -2.4952  2.6981
  106MOL   H10138111   2.717   7.551   1.672 -1.5416  1.3272  1.1818
  106MOL   H10238112   2.831   7.577   1.540 -0.3719 -0.8247 -0.6043
  106MOL   H10338113   2.663   7.745   1.458 -0.7610 -0.4605 -0.5353
  106MOL   H10438114   2.614   7.491   1.398 -3.1986 -2.8903  0.0833
  106MOL   H10538115   2.471   7.580   1.424 -0.2282  0.7187  0.9376
  106MOL   H10638116   2.532   7.481   1.551  2.1962 -0.3272  0.7283
  106MOL   H10738117   2.478   7.654   1.685  1.4895 -0.4489  0.1210
  106MOL   H10838118   2.451   0.029   1.556  1.2472  0.0400 -0.8610
  106MOL   H10938119   2.567   0.047   1.695  2.4660 -1.6749  0.0835
  106MOL   C11038120   2.948   7.665   1.780  0.0434 -0.3546 -0.4570
  106MOL   C11138121   2.891   7.550   1.872  0.4448  0.5575 -0.2091
  106MOL   C11238122   3.004   7.482   1.948 -0.4830  0.4805  0.0018
  106MOL   C11338123   3.092   7.372   1.884  0.0088  0.5650 -0.0432
  106MOL   C11438124   3.009   7.243   1.852 -0.2224 -0.6716 -0.1823
  106MOL   C11538125   3.211   7.325   1.976  0.3860  0.2161  0.3366
  106MOL   H11638126   3.001   7.735   1.844 -3.9384  1.4083  1.0848
  106MOL   H11738127   3.021   7.605   1.725  1.9646  0.7215  0.8864
  106MOL   H11838128   2.841   7.471   1.816 -0.2078  0.6293  0.2543
  106MOL   H11938129   2.972   7.431   2.039  1.0124  0.5961  0.6145
  106MOL   H12038130   3.062   7.561   1.995  0.6087 -0.6017  0.5252
  106MOL   H12138131   3.134   7.424   1.798  0.7412 -0.8983 -0.5831
  106MOL   H12238132   3.060   7.164   1.797 -0.3164 -0.8839  0.0342
  106MOL   H12338133   2.924   7.266   1.788 -0.3090 -1.4757 -0.3632
  106MOL   H12438134   2.977   7.212   1.952  0.0128 -1.9873 -0.5041
  106MOL   H12538135   3.169   7.299   2.073 -0.8907 -1.2305 -0.5769
  106MOL   H12638136   3.284   7.406   1.983 -0.2956  1.0077 -1.3957
  106MOL   H12738137   3.257   7.242   1.924 -0.9509 -1.2937  1.5033
  106MOL   C12838138   2.785   7.599   1.965  0.8747  0.3444 -0.1494
  106MOL   C12938139   2.712   7.492   2.056  0.4642 -0.3663  0.0701
  106MOL   C13038140   2.560   7.480   2.026 -0.3661 -0.1149  0.3282
  106MOL   C13138141   2.531   7.400   1.896 -0.2563 -0.6089 -0.5714
  106MOL   C13238142   2.591   7.259   1.886 -0.6177 -0.1204  0.0082
  106MOL   C13338143   2.382   7.403   1.866  1.1212 -0.0108  0.3331
  106MOL   H13438144   2.716   7.649   1.897  0.7927  0.9487  0.3701
  106MOL   H13538145   2.831   7.674   2.028  1.2047  0.9269 -1.0728
  106MOL   H13638146   2.741   7.389   2.032 -1.0991 -1.4725  2.6971
  106MOL   H13738147   2.517   7.423   2.108 -2.5359 -0.3945 -0.9563
  106MOL   H13838148   2.516   7.580   2.029  2.3044  1.0960  1.4735
  106MOL   H13938149   2.579   7.456   1.815 -0.2170  0.8441  0.4328
  106MOL   H14038150   2.578   7.212   1.983  0.1603  1.2155  0.7830
  106MOL   H14138151   2.696   7.258   1.857 -0.9131  0.4033 -1.0896
  106MOL   H14238152   2.553   7.189   1.813 -2.6742  1.0344 -0.0744
  106MOL   H14338153   2.345   7.505   1.863 -0.6789 -0.6401  0.4246
  106MOL   H14438154   2.357   7.373   1.764  1.2462 -0.5767  0.4654
  106MOL   H14538155   2.326   7.340   1.935 -1.6092  1.1136 -0.7628
  106MOL   C14638156   2.745   7.503   2.201 -0.0457  0.7178  0.7213
  106MOL   C14738157   2.737   7.371   2.286  0.3728 -0.9928  0.0856
  106MOL   C14838158   2.765   7.409   2.433 -0.1743  0.6239  0.4694
  106MOL   C14938159   2.645   7.472   2.505  0.1276 -0.6114 -0.6501
  106MOL   C15038160   2.541   7.359   2.546  0.0656 -0.8577 -0.0226
  106MOL   C15138161   2.685   7.554   2.629 -0.0314  0.3712 -0.2313
  106MOL   H15238162   2.665   7.568   2.236 -0.5346  0.2369  0.5140
  106MOL   H15338163   2.840   7.552   2.222 -0.5856  1.1060  2.2764
  106MOL   H15438164   2.631   7.344   2.283 -0.3736  1.7806  0.1551
  106MOL   H15538165   2.794   7.319   2.488  1.0482  0.4367 -0.4689
  106MOL   H15638166   2.856   7.468   2.440  0.0743  0.3654 -0.5783
  106MOL   H15738167   2.588   7.543   2.445 -3.4943  0.1165  3.3855
  106MOL   H15838168   2.521   7.297   2.459 -0.3295  2.1529 -2.1571
  106MOL   H15938169   2.457   7.416   2.585  1.3497 -0.1228  1.7731
  106MOL   H16038170   2.563   7.297   2.633 -1.3564 -2.4265 -0.7776
  106MOL   H16138171   2.753   7.629   2.590  2.0207 -1.5848 -0.5611
  106MOL   H16238172   2.737   7.487   2.699 -2.1387  0.1836  1.1942
  106MOL   H16338173   2.599   7.592   2.684 -1.7981 -1.2055 -1.8239
  106MOL   C16438174   2.820   7.254   2.230 -0.6584 -0.3937  0.2919
  106MOL   C16538175   2.839   7.115   2.291 -0.3283 -0.3479  0.1799
  106MOL   C16638176   2.719   7.050   2.346  0.3495  0.1912 -0.1865
  106MOL   C16738177   2.612   7.002   2.247 -0.0791 -0.0366  0.8186
  106MOL   C16838178   2.596   6.851   2.256 -0.2945  0.7188  0.2377
  106MOL   C16938179   2.475   7.062   2.266  0.0375  0.2024  0.1343
  106MOL   H17038180   2.793   7.229   2.127  2.1861  0.6107 -0.7351
  106MOL   H17138181   2.920   7.292   2.207 -0.2124 -2.0295 -0.5875
  106MOL   H17238182   2.893   7.123   2.385  0.9387 -0.1951 -0.5390
  106MOL   H17338183   2.751   6.970   2.413 -0.0415 -0.3312 -0.6217
  106MOL   H17438184   2.669   7.118   2.415 -1.6250 -1.4673  0.0806
  106MOL   H17538185   2.625   7.038   2.145  1.2947 -1.7747  0.3590
  106MOL   H17638186   2.569   6.829   2.360  1.1176 -1.9433  0.0757
  106MOL   H17738187   2.696   6.814   2.237 -1.0723 -0.8148 -0.9815
  106MOL   H17838188   2.525   6.817   2.180  0.3955 -0.2468  0.0171
  106MOL   H17938189   2.482   7.171   2.269  0.1679  0.1685  2.0178
  106MOL   H18038190   2.427   7.026   2.357  0.8086 -0.6489  0.2040
  106MOL   H18138191   2.411   7.026   2.186  0.5972 -0.8076  0.1390
  106MOL   C18238192   2.930   7.023   2.199  0.1980  0.0267 -0.0012
  106MOL   C18338193   3.030   6.931   2.268 -0.4227 -0.2704  0.8782
  106MOL   C18438194   3.092   6.831   2.166  0.1384  0.1705  0.6782
  106MOL   C18538195   3.006   6.708   2.130 -0.1951 -0.2018  0.2451
  106MOL   C18638196   3.036   6.652   1.990 -0.2330 -0.0066 -0.1763
  106MOL   C18738197   3.012   6.589   2.225 -0.6461  0.0290 -0.0151
  106MOL   H18838198   2.997   7.095   2.153  1.5148  1.5546  4.0821
  106MOL   H18938199   2.885   6.966   2.117 -0.1025 -0.6331  0.6179
  106MOL   H19038200   2.974   6.861   2.331 -1.0869  0.0601  0.6654
  106MOL   H19138201   3.188   6.798   2.208  0.9050  2.2251  0.5815
  106MOL   H19238202   3.121   6.880   2.073 -0.1596  1.0836  1.0647
  106MOL   H19338203   2.904   6.747   2.119 -0.3685 -0.4918  0.8425
  106MOL   H19438204   2.963   6.578   1.956  1.2344 -1.2482 -0.6789
  106MOL   H19538205   3.131   6.599   1.991 -0.9612 -1.3327 -0.1864
  106MOL   H19638206   3.047   6.728   1.913 -2.7082  1.3977  0.7816
  106MOL   H19738207   2.967   6.614   2.321  0.0804 -1.4773  0.7334
  106MOL   H19838208   3.115   6.556   2.241 -1.2558 -1.2641  1.4365
  106MOL   H19938209   2.962   6.499   2.190  0.7897 -0.5574 -0.6166
  106MOL   C20038210   3.141   7.010   2.342 -0.2670  0.1675  0.1933
  106MOL   C20138211   3.208   6.945   2.469 -0.1407 -0.0170 -0.0162
  106MOL   C20238212   3.106   6.923   2.578  0.0040 -0.0221  0.0279
  106MOL   C20338213   3.149   6.811   2.675  0.2990 -0.1235 -0.5503
  106MOL   C20438214   3.082   6.820   2.809  0.1046  0.3996  0.2238
  106MOL   C20538215   3.100   6.677   2.610 -0.0038  0.2305  0.0497
  106MOL   H20638216   3.098   7.102   2.380 -1.3524  1.3826 -3.7983
  106MOL   H20738217   3.208   7.044   2.263 -1.1387  1.4550 -0.0025
  106MOL   H20838218   3.246   6.846   2.441  0.3304  0.0746  0.2958
  106MOL   H20938219   3.102   7.015   2.637 -0.6638 -0.9317  1.4167
  106MOL   H21038220   3.006   6.899   2.540 -0.7356  0.4304  1.6460
  106MOL   H21138221   3.256   6.805   2.698 -0.3733  1.3194  3.2145
  106MOL   H21238222   3.133   6.898   2.866 -2.1663  3.0619 -1.3071
  106MOL   H21338223   3.072   6.723   2.859 -1.1071  1.0445  1.2594
  106MOL   H21438224   2.980   6.856   2.798  0.4324  1.5882  1.0484
  106MOL   H21538225   2.992   6.681   2.598 -0.0445  2.7448  0.9991
  106MOL   H21638226   3.132   6.590   2.669  0.1392 -0.9512 -1.7392
  106MOL   H21738227   3.137   6.655   2.510  0.6091 -0.8417  0.4927
  106MOL   C21838228   3.336   7.026   2.516 -0.7232  0.2495  0.3848
  106MOL   C21938229   3.474   6.969   2.470 -0.4945 -0.1386 -0.4265
  106MOL   C22038230   3.589   7.068   2.519 -0.0248  0.1717 -0.2907
  106MOL   C22138231   3.627   7.071   2.672  0.5834  0.3317 -0.6056
  106MOL   C22238232   3.687   6.934   2.725  0.2168  0.2985 -0.1500
  106MOL   C22338233   3.718   7.192   2.700  0.1846  0.1108  0.0181
  106MOL   H22438234   3.318   7.130   2.486 -0.9065  0.7337  2.0973
  106MOL   H22538235   3.335   7.028   2.625  0.9471  3.4750  0.4001
  106MOL   H22638236   3.477   6.866   2.506 -1.2192  0.0494  0.1818
  106MOL   H22738237   3.680   7.030   2.472  0.0743 -3.6591  2.8334
  106MOL   H22838238   3.577   7.174   2.494  1.4701  0.8056  1.6064
  106MOL   H22938239   3.536   7.089   2.729  0.6084  2.4264 -1.1779
  106MOL   H23038240   3.705   6.934   2.832 -1.3975  0.9509  0.1368
  106MOL   H23138241   3.608   6.863   2.699  1.7053 -1.2884 -0.4558
  106MOL   H23238242   3.773   6.899   2.668 -0.3460 -2.1217  0.4297
  106MOL   H23338243   3.811   7.181   2.644 -0.2757 -1.0239 -0.5318
  106MOL   H23438244   3.664   7.282   2.670 -0.4094 -1.0459 -2.5645
  106MOL   H23538245   3.742   7.200   2.806 -1.8902 -1.1505  0.6191
  106MOL   C23638246   3.485   6.958   2.312  0.4010  0.3667  0.4486
  106MOL   C23738247   3.566   6.838   2.260  0.0271 -0.2905 -0.1736
  106MOL   C23838248   3.606   6.854   2.108  0.1254 -0.2221  0.0544
  106MOL   C23938249   3.710   6.962   2.068 -0.1499 -0.2460 -0.3914
  106MOL   C24038250   3.807   6.915   1.960 -0.8656 -0.1343 -0.1354
  106MOL   C24138251   3.665   7.100   2.015 -0.2653  0.4713 -0.4565
  106MOL   H24238252   3.531   7.044   2.263 -0.1359 -0.0597 -0.8219
  106MOL   H24338253   3.392   6.955   2.255  1.5310  1.6143 -1.5299
  106MOL   H24438254   3.656   6.846   2.321  0.5453  1.2253 -1.1060
  106MOL   H24538255   3.515   6.860   2.048 -0.7188 -1.3449  1.1748
  106MOL   H24638256   3.639   6.757   2.071  0.3382  0.0293 -0.4192
  106MOL   H24738257   3.771   6.987   2.155  0.9620 -0.8006 -1.0077
  106MOL   H24838258   3.888   6.986   1.943 -0.6746 -0.3829 -0.2659
  106MOL   H24938259   3.747   6.897   1.870 -1.2293 -0.1394  0.1078
  106MOL   H25038260   3.861   6.822   1.976  1.1166  0.8513 -0.8532
  106MOL   H25138261   3.746   7.170   1.997  0.6149  0.1962  2.2435
  106MOL   H25238262   3.598   7.138   2.092  0.1581  1.4314 -0.5584
  106MOL   H25338263   3.613   7.072   1.924 -1.8704  0.0889  0.5553
  106MOL   C25438264   3.481   6.701   2.287 -0.1340 -0.6581  0.3573
  106MOL   C25538265   3.573   6.570   2.292  0.1642 -0.3985 -0.4799
  106MOL   C25638266   3.554   6.497   2.426  0.0285 -0.0534  0.3357
  106MOL   C25738267   3.619   6.573   2.550 -0.0556 -0.4572 -0.4364
  106MOL   C25838268   3.770   6.578   2.544 -0.1011  0.1787 -0.0749
  106MOL   C25938269   3.573   6.503   2.674 -0.5680 -0.5597 -1.1600
  106MOL   H26038270   3.432   6.703   2.384  1.1479 -0.4377  1.0064
  106MOL   H26138271   3.401   6.686   2.215  0.9766 -1.0067 -0.8214
  106MOL   H26238272   3.675   6.606   2.296 -0.3347  0.9207  1.0922
  106MOL   H26338273   3.583   6.392   2.433 -1.9712 -0.6491  0.1382
  106MOL   H26438274   3.448   6.480   2.445 -0.1864  0.4060 -0.4535
  106MOL   H26538275   3.575   6.672   2.542 -0.4641 -0.3810  2.3111
  106MOL   H26638276   3.810   6.479   2.523  1.5392  1.3159 -2.5429
  106MOL   H26738277   3.802   6.616   2.641  1.0096  1.0811 -0.7891
  106MOL   H26838278   3.805   6.643   2.464 -0.8461  1.7184  0.8237
  106MOL   H26938279   3.651   6.438   2.715 -0.3246  0.6729  0.3378
  106MOL   H27038280   3.562   6.567   2.761  3.7750 -1.6613  0.3473
  106MOL   H27138281   3.473   6.461   2.667 -0.9516  0.3309 -0.9765
  106MOL   C27238282   3.541   6.492   2.163 -1.3229 -0.5225 -0.2031
  106MOL   C27338283   3.650   6.383   2.140  0.0418  0.5099 -0.4183
  106MOL   C27438284   3.593   6.266   2.050 -0.2627  0.8468 -0.5427
  106MOL   C27538285   3.503   6.164   2.128  0.2862 -0.3457 -0.3648
  106MOL   C27638286   3.580   6.039   2.170 -0.5632  0.0572  0.3642
  106MOL   C27738287   3.373   6.136   2.052  0.0847 -0.0963 -0.2374
  106MOL   H27838288   3.445   6.446   2.187 -1.1854  0.0569  1.5695
  106MOL   H27938289   3.520   6.559   2.080  0.1764  0.2664  0.0454
  106MOL   H28038290   3.682   6.343   2.236  2.4583  0.8255 -1.0654
  106MOL   H28138291   3.679   6.224   1.997  0.1582  2.3111 -1.0443
  106MOL   H28238292   3.540   6.320   1.971  0.2063  0.6113 -1.0266
  106MOL   H28338293   3.458   6.209   2.217 -0.2584  0.9292 -1.2749
  106MOL   H28438294   3.665   6.058   2.236 -0.6924 -0.3747  0.6521
  106MOL   H28538295   3.521   5.960   2.215 -0.2260  0.3143  1.2671
  106MOL   H28638296   3.616   5.999   2.075  0.9977 -1.0793  1.4123
  106MOL   H28738297   3.307   6.223   2.042 -1.4036 -0.9880  1.5303
  106MOL   H28838298   3.392   6.104   1.949 -2.4021 -0.8985 -0.5070
  106MOL   H28938299   3.317   6.052   2.093  0.4352 -0.4996 -0.5792
  106MOL   C29038300   3.770   6.458   2.080 -0.6381  0.0961  0.7394
  106MOL   C29138301   3.909   6.390   2.068 -0.1044  0.5834 -1.0200
  106MOL   C29238302   3.994   6.423   1.942  0.1315 -0.6690 -0.0068
  106MOL   C29338303   4.111   6.329   1.909  0.1942  0.2169 -0.1281
  106MOL   C29438304   4.078   6.181   1.889 -0.6280  0.6079 -0.0693
  106MOL   C29538305   4.193   6.381   1.788 -0.2555  0.2231  0.0015
  106MOL   H29638306   3.738   6.484   1.979 -2.6178 -3.4546  0.3642
  106MOL   H29738307   3.788   6.556   2.125 -0.9010  1.0353 -1.1286
  106MOL   H29838308   3.894   6.282   2.063  0.3878  0.5829 -2.6721
  106MOL   H29938309   4.032   6.525   1.941 -1.6330  0.0118 -1.4264
  106MOL   H30038310   3.929   6.421   1.855 -0.4240 -0.5396  0.3945
  106MOL   H30138311   4.188   6.347   1.985  0.1115  0.0950 -0.0157
  106MOL   H30238312   4.167   6.128   1.858 -2.8073 -2.6922 -0.9182
  106MOL   H30338313   4.009   6.166   1.806  0.4440 -2.0355 -0.5323
  106MOL   H30438314   4.025   6.133   1.972  0.1204  0.5544  0.3767
  106MOL   H30538315   4.227   6.484   1.802  3.3540 -0.6815 -1.5076
  106MOL   H30638316   4.126   6.381   1.702  0.2494  1.5736 -0.4029
  106MOL   H30738317   4.281   6.321   1.765 -1.6629 -1.5676 -0.7913
  106MOL   C30838318   3.976   6.416   2.208  0.2220 -0.0160 -0.1296
  106MOL   C30938319   4.068   6.305   2.258 -0.1962  0.7675  0.6538
  106MOL   C31038320   4.148   6.364   2.373  0.1020  0.0725  0.1217
  106MOL   C31138321   4.284   6.431   2.340 -0.7848 -0.5292 -0.2887
  106MOL   C31238322   4.333   6.512   2.470  0.0273  0.1208 -0.3241
  106MOL   C31338323   4.393   6.338   2.282 -0.4044 -0.7344  0.7850
  106MOL   H31438324   4.031   6.509   2.198  1.1159 -0.1940  2.6728
  106MOL   H31538325   3.896   6.443   2.277  1.0219  0.8178  0.4832
  106MOL   H31638326   4.127   6.277   2.171  0.6766  1.2596  1.0755
  106MOL   H31738327   4.162   6.295   2.456  1.7301 -0.1621 -0.3282
  106MOL   H31838328   4.088   6.449   2.404 -0.9083 -0.3025 -0.7733
  106MOL   H31938329   4.283   6.509   2.264  1.2782  2.4638  2.6089
  106MOL   H32038330   4.357   6.450   2.557 -0.8812 -1.4019 -1.1313
  106MOL   H32138331   4.271   6.599   2.492 -0.1210 -0.3969  1.3882
  106MOL   H32238332   4.420   6.572   2.443  1.4748 -2.0083 -0.4863
  106MOL   H32338333   4.338   6.262   2.226  2.5993 -0.8782 -2.1498
  106MOL   H32438334   4.452   6.395   2.210 -1.8479 -1.7757 -1.2939
  106MOL   H32538335   4.454   6.285   2.355  0.6346 -1.1232 -0.3609
  106MOL   C32638336   3.981   6.184   2.300 -0.7226  0.4724 -0.2615
  106MOL   C32738337   4.058   6.055   2.343 -0.1969 -0.0892  0.4301
  106MOL   C32838338   4.145   5.999   2.229  1.0675  0.0600  0.3221
  106MOL   C32938339   4.290   5.980   2.249 -0.0101 -0.4459  0.5839
  106MOL   C33038340   4.303   5.845   2.320 -0.3477 -0.5956  0.0143
  106MOL   C33138341   4.364   5.977   2.111 -0.1061  0.2777 -0.2455
  106MOL   H33238342   3.929   6.138   2.216  2.4055  0.9489 -2.5057
  106MOL   H33338343   3.910   6.224   2.372 -0.9063 -0.1655 -0.0800
  106MOL   H33438344   4.126   6.077   2.425  0.1058 -1.6602  0.6149
  106MOL   H33538345   4.092   5.913   2.189 -0.1935  1.2727 -0.6570
  106MOL   H33638346   4.137   6.062   2.141 -0.1383 -1.2448 -0.5323
  106MOL   H33738347   4.332   6.062   2.308 -0.2335  0.7772 -0.9218
  106MOL   H33838348   4.259   5.765   2.261  0.1900 -1.0821  0.2696
  106MOL   H33938349   4.250   5.840   2.415 -0.1519 -0.3756  0.1366
  106MOL   H34038350   4.407   5.816   2.337  0.1851  1.4644  0.4674
  106MOL   H34138351   4.358   6.075   2.065 -0.6132 -0.1863 -1.1626
  106MOL   H34238352   4.469   5.952   2.125 -0.5840 -1.3940  0.4819
  106MOL   H34338353   4.320   5.912   2.036 -0.0140 -0.7277  0.5630
  106MOL   C34438354   3.966   5.950   2.402  0.4123 -0.0530 -0.0252
  106MOL   C34538355   3.887   5.993   2.528  0.9951  0.0962  0.0425
  106MOL   C34638356   3.793   5.879   2.583 -0.4705 -0.6011 -0.6059
  106MOL   C34738357   3.700   5.918   2.696 -0.5708  0.1240  0.1358
  106MOL   C34838358   3.663   5.801   2.779 -0.2603 -0.1289 -0.0436
  106MOL   C34938359   3.575   5.991   2.642  0.2153  0.2200  0.0564
  106MOL   H35038360   4.004   5.850   2.426 -0.5224 -1.1688 -2.9682
  106MOL   H35138361   3.889   5.918   2.331  0.4315 -0.0538 -0.0456
  106MOL   H35238362   3.843   6.090   2.506 -1.1862 -1.0221 -0.5994
  106MOL   H35338363   3.739   5.830   2.502 -1.6869 -0.0630 -0.1253
  106MOL   H35438364   3.858   5.793   2.603  1.0322  0.0533 -2.5336
  106MOL   H35538365   3.759   5.982   2.763 -1.1285  1.7420 -0.9008
  106MOL   H35638366   3.580   5.749   2.733 -0.7420 -1.2462  2.0311
  106MOL   H35738367   3.745   5.729   2.786 -0.4441 -0.4174 -0.8146
  106MOL   H35838368   3.636   5.825   2.882  0.9658  0.8666  0.0596
  106MOL   H35938369   3.506   5.942   2.573 -1.0297  2.1282 -0.0686
  106MOL   H36038370   3.590   6.095   2.614  2.2950 -0.2889 -0.8470
  106MOL   H36138371   3.511   6.001   2.729  0.9085 -1.4956  0.8012
  106MOL   H36238372   3.957   6.013   2.610 -1.6387  3.6423  1.5638
  107MOL     C138373   6.402   3.995   1.384 -0.0680 -0.3690  0.8488
  107MOL     C238374   6.418   3.874   1.471 -0.4619 -0.2288 -0.3326
  107MOL     C338375   6.541   3.882   1.567  0.5909  0.1783 -0.6218
  107MOL     C438376   6.526   3.985   1.688 -0.1543  0.7604  0.3596
  107MOL     C538377   6.662   4.033   1.739  0.7171  0.2074 -0.1493
  107MOL     C638378   6.446   3.930   1.811 -0.3488  0.0364 -0.0109
  107MOL     H738379   6.318   3.995   1.314  0.5953 -1.4683  0.0318
  107MOL     H838380   6.396   4.086   1.444  0.1506 -1.6395  2.8608
  107MOL     H938381   6.342   3.854   1.545 -0.5449  0.8371 -0.1303
  107MOL    H1038382   6.575   3.791   1.616  0.0903  1.6176  2.5159
  107MOL    H1138383   6.630   3.914   1.512  1.8183 -1.8493  0.1047
  107MOL    H1238384   6.479   4.078   1.657  2.1041  2.1775  1.0420
  107MOL    H1338385   6.713   4.099   1.668  1.9371  2.2279  2.5332
  107MOL    H1438386   6.650   4.089   1.831 -3.3058  1.3651 -1.2910
  107MOL    H1538387   6.721   3.945   1.762 -0.5984 -0.9983 -1.2444
  107MOL    H1638388   6.348   3.900   1.771  0.3283  0.5585 -2.1252
  107MOL    H1738389   6.418   3.998   1.891  0.9234 -2.5905  2.7261
  107MOL    H1838390   6.477   3.838   1.860  0.4250  0.1561 -0.2735
  107MOL    H1938391   6.485   4.004   1.314  0.1570 -0.1992  1.1354
  107MOL    C2038392   6.424   3.753   1.374 -0.4321  0.3069  0.1696
  107MOL    C2138393   6.351   3.622   1.414 -0.1343  0.7942 -0.3008
  107MOL    C2238394   6.344   3.523   1.288  0.1781 -0.9607  0.4760
  107MOL    C2338395   6.266   3.563   1.161  0.3480  0.6694  0.1171
  107MOL    C2438396   6.250   3.440   1.072  0.4725 -0.1314  0.6393
  107MOL    C2538397   6.133   3.632   1.191  0.1803  0.2714  0.4193
  107MOL    H2638398   6.394   3.783   1.273 -0.3218  0.9316  0.3247
  107MOL    H2738399   6.529   3.723   1.373 -0.8383 -1.1843  0.3791
  107MOL    H2838400   6.248   3.647   1.441 -0.4513  0.3518 -1.0743
  107MOL    H2938401   6.295   3.430   1.318 -0.2400 -0.0068  2.8407
  107MOL    H3038402   6.446   3.511   1.252 -0.4989  3.7327 -3.5647
  107MOL    H3138403   6.325   3.637   1.106  1.4139  1.5793  2.4456
  107MOL    H3238404   6.177   3.373   1.117  0.9777  0.8447  3.0180
  107MOL    H3338405   6.342   3.385   1.054 -0.3706 -0.8463 -1.6399
  107MOL    H3438406   6.214   3.469   0.973 -1.6034 -1.8940  0.8712
  107MOL    H3538407   6.067   3.580   1.259 -1.4167  1.1155 -0.4675
  107MOL    H3638408   6.159   3.725   1.242 -1.5404  0.0647  1.7250
  107MOL    H3738409   6.081   3.663   1.101 -0.1791 -1.3612  0.0437
  107MOL    C3838410   6.414   3.564   1.548  0.1060 -0.0328 -0.0741
  107MOL    C3938411   6.374   3.426   1.590 -0.6562 -0.1283 -0.2338
  107MOL    C4038412   6.219   3.427   1.621 -0.0786  0.1549 -0.1983
  107MOL    C4138413   6.160   3.295   1.672  0.1103  0.3053 -0.2796
  107MOL    C4238414   6.169   3.178   1.568 -0.1428 -0.4718 -0.1157
  107MOL    C4338415   6.010   3.318   1.719 -0.0907 -0.2357  0.0976
  107MOL    H4438416   6.383   3.636   1.623 -1.7101 -0.2964 -0.5536
  107MOL    H4538417   6.522   3.577   1.534 -0.2414  1.9695 -1.1496
  107MOL    H4638418   6.393   3.351   1.513 -1.0715  0.4861 -0.9340
  107MOL    H4738419   6.154   3.451   1.537 -1.1001 -0.1946  0.4871
  107MOL    H4838420   6.204   3.499   1.702 -2.2784 -1.8894  1.2641
  107MOL    H4938421   6.216   3.270   1.762  0.4622  0.8315 -0.3519
  107MOL    H5038422   6.122   3.214   1.477  1.2811  0.1964 -0.6120
  107MOL    H5138423   6.270   3.153   1.535 -0.2303  1.5822 -2.0560
  107MOL    H5238424   6.115   3.085   1.585 -0.8243  0.2826  2.0361
  107MOL    H5338425   5.982   3.414   1.763 -0.2348 -1.4526  2.7821
  107MOL    H5438426   5.978   3.233   1.780  1.5023 -0.3083  0.8547
  107MOL    H5538427   5.944   3.316   1.633  0.0260 -2.2117  0.0309
  107MOL    C5638428   6.459   3.390   1.714  0.5337 -0.0271 -0.2359
  107MOL    C5738429   6.612   3.383   1.693 -0.6286 -0.7786  0.6915
  107MOL    C5838430   6.661   3.233   1.718 -0.2937  0.2778  0.6773
  107MOL    C5938431   6.611   3.137   1.604 -0.9415  0.5819  0.7918
  107MOL    C6038432   6.611   2.992   1.652 -0.4525  0.2264 -0.2911
  107MOL    C6138433   6.700   3.156   1.476  0.0750 -0.0308  0.6565
  107MOL    H6238434   6.430   3.294   1.756  0.6973  0.4601  1.0160
  107MOL    H6338435   6.432   3.458   1.795  0.7228 -1.0800  0.7268
  107MOL    H6438436   6.652   3.414   1.596 -0.0312  1.8602  1.7325
  107MOL    H6538437   6.769   3.225   1.721 -0.4178 -1.8970  0.0034
  107MOL    H6638438   6.620   3.202   1.815 -1.0749  1.4416  0.7404
  107MOL    H6738439   6.510   3.165   1.572 -0.8109  0.1088 -0.0623
  107MOL    H6838440   6.697   2.929   1.625 -0.3700  0.7563 -1.2795
  107MOL    H6938441   6.522   2.936   1.621  0.1618 -0.2322 -1.2835
  107MOL    H7038442   6.605   2.989   1.761  0.3071  0.9067 -0.2256
  107MOL    H7138443   6.701   3.252   1.425  2.0896  1.1690  2.8490
  107MOL    H7238444   6.660   3.087   1.402 -1.9083  3.2664 -1.5003
  107MOL    H7338445   6.803   3.130   1.499  0.5351  1.2735  0.1193
  107MOL    C7438446   6.672   3.487   1.794  0.1918 -0.4677  0.3913
  107MOL    C7538447   6.816   3.525   1.759 -0.1705 -1.0127  0.2971
  107MOL    C7638448   6.910   3.572   1.876  0.2905 -0.0120 -0.8372
  107MOL    C7738449   6.952   3.472   1.987 -0.4867 -0.1974 -0.5164
  107MOL    C7838450   7.021   3.545   2.106  0.3396 -0.5080 -0.1248
  107MOL    C7938451   7.042   3.359   1.925 -0.2131  0.0553  0.5655
  107MOL    H8038452   6.663   3.454   1.897  2.0640  0.6024  0.9166
  107MOL    H8138453   6.616   3.581   1.800  1.4726  0.1685  3.1735
  107MOL    H8238454   6.860   3.435   1.717 -1.9087 -1.9324  0.3966
  107MOL    H8338455   7.005   3.616   1.845  0.9346 -1.3524 -0.8124
  107MOL    H8438456   6.853   3.647   1.929 -1.4671 -0.5032 -1.9970
  107MOL    H8538457   6.858   3.428   2.021  0.8355 -1.0846  2.1073
  107MOL    H8638458   7.111   3.595   2.071 -0.0997 -1.1376 -2.2080
  107MOL    H8738459   7.058   3.470   2.176 -0.2417 -1.1540 -0.5103
  107MOL    H8838460   6.951   3.613   2.154  1.4660  1.3148 -0.9779
  107MOL    H8938461   7.044   3.285   2.005  1.4863  0.8492  1.2936
  107MOL    H9038462   7.005   3.315   1.833  1.5585  2.0105 -1.1473
  107MOL    H9138463   7.141   3.396   1.899  0.5186  0.1603  3.2886
  107MOL    C9238464   6.831   3.631   1.644 -0.2668  0.1937 -0.5298
  107MOL    C9338465   6.953   3.630   1.546 -0.3750 -0.0825 -0.0734
  107MOL    C9438466   6.915   3.631   1.393 -0.7104  0.1563  0.3328
  107MOL    C9538467   6.847   3.507   1.347 -0.6611  0.3530  0.3145
  107MOL    C9638468   6.769   3.531   1.221  0.2994 -0.4241 -0.2256
  107MOL    C9738469   6.939   3.387   1.336 -0.2652 -0.1452  0.0535
  107MOL    H9838470   6.741   3.619   1.583 -0.0502  1.8887 -1.2069
  107MOL    H9938471   6.807   3.727   1.688 -1.2333  0.4725 -1.6409
  107MOL   H10038472   7.005   3.540   1.580 -0.1322  0.5638  1.2966
  107MOL   H10138473   7.001   3.641   1.327 -1.0797  0.7664 -0.0704
  107MOL   H10238474   6.846   3.715   1.384  1.1515  1.9265  2.1874
  107MOL   H10338475   6.768   3.478   1.417  2.7484 -1.2958  3.6278
  107MOL   H10438476   6.829   3.546   1.131 -1.8174  1.8365 -1.3317
  107MOL   H10538477   6.689   3.605   1.228 -0.5194 -1.2733 -0.5070
  107MOL   H10638478   6.708   3.444   1.200 -0.1971 -0.2049  0.2724
  107MOL   H10738479   6.905   3.327   1.252 -0.5671 -1.0118  0.7921
  107MOL   H10838480   6.944   3.334   1.431  1.9395  1.3864  0.8390
  107MOL   H10938481   7.040   3.418   1.309 -0.9887  1.5513 -0.7852
  107MOL   C11038482   7.048   3.745   1.585  0.8809  0.2807 -0.0765
  107MOL   C11138483   7.199   3.696   1.613 -0.0364 -0.5308 -0.2193
  107MOL   C11238484   7.254   3.621   1.491 -0.2734  0.1567 -0.5143
  107MOL   C11338485   7.395   3.558   1.504 -0.6475  0.0980 -0.1683
  107MOL   C11438486   7.510   3.646   1.443 -0.0346 -0.0651  0.8263
  107MOL   C11538487   7.399   3.423   1.436  0.0647  0.6037  0.0986
  107MOL   H11638488   7.015   3.801   1.672 -1.5557  2.8694 -2.5718
  107MOL   H11738489   7.050   3.817   1.504  0.0567 -0.4374 -0.7558
  107MOL   H11838490   7.196   3.638   1.705 -0.7327 -0.2634 -0.0745
  107MOL   H11938491   7.244   3.686   1.405 -2.5996  1.1680  0.4773
  107MOL   H12038492   7.191   3.534   1.470 -0.0808 -0.3905  1.0616
  107MOL   H12138493   7.422   3.550   1.609 -0.1817 -1.4875 -0.4078
  107MOL   H12238494   7.517   3.744   1.490  0.7873  1.0845 -1.6460
  107MOL   H12338495   7.478   3.664   1.341 -1.8371 -0.2131  1.3565
  107MOL   H12438496   7.613   3.611   1.449  0.4206  1.4349  2.2323
  107MOL   H12538497   7.495   3.373   1.430 -0.5877 -0.3619 -3.0826
  107MOL   H12638498   7.361   3.432   1.334 -3.4670 -1.1059  1.1626
  107MOL   H12738499   7.321   3.365   1.487  2.4878 -0.6653  2.4956
  107MOL   C12838500   7.288   3.813   1.645 -0.3132 -0.6649  0.5552
  107MOL   C12938501   7.281   3.875   1.780  0.1929  0.0584 -0.1273
  107MOL   C13038502   7.194   3.998   1.780 -0.7070 -0.3431  0.0950
  107MOL   C13138503   7.130   4.022   1.921  0.6286  0.0535 -0.1118
  107MOL   C13238504   7.087   4.174   1.925  0.9633 -0.2717 -0.5145
  107MOL   C13338505   7.005   3.932   1.963 -0.1512 -0.2987 -0.5013
  107MOL   H13438506   7.288   3.880   1.559 -1.3466 -0.7216  0.5149
  107MOL   H13538507   7.391   3.777   1.647  1.1110  3.1036  4.0601
  107MOL   H13638508   7.225   3.804   1.841 -2.4342  2.8442  0.8437
  107MOL   H13738509   7.255   4.083   1.749  0.1727 -1.0918 -0.2435
  107MOL   H13838510   7.121   3.998   1.698 -0.8777  0.6391  0.2468
  107MOL   H13938511   7.208   4.015   1.997 -0.3405 -1.8078  0.7575
  107MOL   H14038512   7.168   4.246   1.916 -0.3449  1.1966 -0.7437
  107MOL   H14138513   7.041   4.199   2.020  1.2033  0.4691 -0.5871
  107MOL   H14238514   7.011   4.182   1.847  0.8654 -1.5033 -0.5498
  107MOL   H14338515   6.919   3.915   1.897  1.7392 -0.0459 -3.1119
  107MOL   H14438516   7.047   3.831   1.966  1.1213  0.1648 -2.0287
  107MOL   H14538517   6.958   3.963   2.056  0.1141 -0.2016 -0.3994
  107MOL   C14638518   7.419   3.908   1.836 -0.2380 -0.3999 -0.0259
  107MOL   C14738519   7.508   3.807   1.916  0.2843 -0.2475  0.5703
  107MOL   C14838520   7.441   3.752   2.047 -0.3487 -0.5679 -0.4197
  107MOL   C14938521   7.503   3.627   2.108 -0.2916 -0.1955  0.2098
  107MOL   C15038522   7.442   3.591   2.250 -0.2667  0.1479  0.0774
  107MOL   C15138523   7.495   3.500   2.007 -0.1375 -0.8383 -0.8461
  107MOL   H15238524   7.400   3.973   1.922 -0.1853 -0.1556 -0.1972
  107MOL   H15338525   7.471   3.954   1.752  0.6627  1.1134  1.3401
  107MOL   H15438526   7.506   3.723   1.847 -1.7413  1.4856 -1.5581
  107MOL   H15538527   7.437   3.835   2.118 -1.9455 -1.9898  1.2069
  107MOL   H15638528   7.335   3.732   2.032 -0.3992  0.5300 -1.6176
  107MOL   H15738529   7.604   3.654   2.139  0.1355 -2.3244  0.7660
  107MOL   H15838530   7.443   3.678   2.317 -0.9875 -0.3851  0.7911
  107MOL   H15938531   7.495   3.511   2.302  2.9793  0.7789 -2.1038
  107MOL   H16038532   7.336   3.570   2.241 -0.2457 -0.3291  0.8674
  107MOL   H16138533   7.398   3.477   1.962 -0.9421 -0.4379  0.6493
  107MOL   H16238534   7.529   3.407   2.053 -1.9450 -0.6492  0.9529
  107MOL   H16338535   7.566   3.514   1.925  0.8501  0.5749  0.2205
  107MOL   C16438536   7.656   3.869   1.944 -0.7313 -0.2246  0.3016
  107MOL   C16538537   0.015   3.811   1.853 -0.2835  0.3404  0.3789
  107MOL   C16638538   0.003   3.852   1.699 -0.4720 -0.2203  0.0825
  107MOL   C16738539   7.750   4.003   1.662  0.4740  0.4718 -0.1136
  107MOL   C16838540   0.132   4.067   1.683 -0.5609 -1.2074  0.6434
  107MOL   C16938541   7.703   4.017   1.515  0.3704  0.1983  0.7683
  107MOL   H17038542   7.661   3.977   1.929 -1.7208 -0.4773 -2.1987
  107MOL   H17138543   7.674   3.855   2.051  1.5847 -0.0839 -0.0459
  107MOL   H17238544   0.001   3.703   1.849 -1.9055  0.6108 -4.2786
  107MOL   H17338545   0.079   3.799   1.641  0.1059 -1.0310  1.5475
  107MOL   H17438546   7.668   3.807   1.652 -0.1998 -0.0374 -0.6103
  107MOL   H17538547   7.678   4.060   1.721  0.7606  0.9177 -0.1872
  107MOL   H17638548   0.147   4.084   1.789  0.9579  0.8927  0.1191
  107MOL   H17738549   0.148   4.171   1.653 -2.0601 -1.4186 -0.9750
  107MOL   H17838550   0.210   4.010   1.633  0.4813  1.3202 -0.7224
  107MOL   H17938551   7.749   4.108   1.477  0.3960  0.6274  1.8030
  107MOL   H18038552   7.594   4.020   1.506  0.5476  0.7410 -1.6621
  107MOL   H18138553   7.747   3.944   1.448 -0.6446 -0.0522  0.3635
  107MOL   C18238554   0.160   3.831   1.909 -0.1108 -0.5972  0.5340
  107MOL   C18338555   0.200   3.732   2.016 -0.1806  0.4022 -0.9688
  107MOL   C18438556   0.266   3.607   1.949 -0.0161  0.0400 -0.1807
  107MOL   C18538557   0.231   3.475   2.018 -0.3322 -0.8213  0.1461
  107MOL   C18638558   0.080   3.440   2.018  0.0278  0.6237 -0.4595
  107MOL   C18738559   0.303   3.349   1.967  0.6184  0.3002  0.1970
  107MOL   H18838560   0.166   3.926   1.961  0.7249 -0.3675  0.0188
  107MOL   H18938561   0.232   3.837   1.827 -2.7675  2.2719 -1.7054
  107MOL   H19038562   0.107   3.697   2.063  0.1745 -0.0492 -0.6007
  107MOL   H19138563   0.373   3.619   1.930  0.3879 -3.3899 -0.3708
  107MOL   H19238564   0.213   3.591   1.855 -4.1017 -0.6138  2.1323
  107MOL   H19338565   0.274   3.481   2.118  1.4988 -0.4143 -0.6597
  107MOL   H19438566   0.028   3.452   2.113  1.2238  1.0807  0.1452
  107MOL   H19538567   0.049   3.338   1.995 -0.4096  0.3333  1.3750
  107MOL   H19638568   0.026   3.509   1.952 -1.1543 -0.2808 -0.4657
  107MOL   H19738569   0.259   3.332   1.869  2.3958  1.4925 -0.8332
  107MOL   H19838570   0.289   3.271   2.042  1.9433 -0.1538 -0.0177
  107MOL   H19938571   0.410   3.363   1.949  0.3726  1.3893 -0.4475
  107MOL   C20038572   0.283   3.793   2.134 -0.2057 -0.8845  0.6646
  107MOL   C20138573   0.248   3.737   2.270 -0.6979 -0.8527  0.3404
  107MOL   C20238574   0.120   3.793   2.328  0.2466  0.1319 -0.1897
  107MOL   C20338575   0.055   3.736   2.455  1.1000 -0.3690 -0.3475
  107MOL   C20438576   7.688   3.812   2.506 -0.0840 -0.2811  0.0497
  107MOL   C20538577   0.018   3.587   2.445 -0.2634  1.7740  0.6651
  107MOL   H20638578   0.257   3.898   2.147 -1.5968 -0.8130 -2.3391
  107MOL   H20738579   0.387   3.783   2.104 -1.3820  0.5464 -4.2860
  107MOL   H20838580   0.231   3.632   2.245  0.7512 -0.5479 -2.0900
  107MOL   H20938581   0.146   3.899   2.339  0.8527  0.0058 -0.3880
  107MOL   H21038582   0.044   3.790   2.250 -1.1724 -1.1231  1.2131
  107MOL   H21138583   0.133   3.742   2.531 -0.7022 -2.0739  1.7111
  107MOL   H21238584   7.699   3.920   2.514  1.5441 -0.6101  2.6397
  107MOL   H21338585   7.639   3.765   2.592  0.5048  0.3686  0.7419
  107MOL   H21438586   7.618   3.815   2.422  1.5549  0.5708 -1.3177
  107MOL   H21538587   0.116   3.538   2.445 -0.4975  1.2068 -2.5301
  107MOL   H21638588   7.723   3.551   2.354  2.0878 -1.6299  0.6724
  107MOL   H21738589   7.727   3.542   2.534 -0.1525  0.3808  0.0223
  107MOL   C21838590   0.365   3.755   2.371 -0.0265 -0.2809  0.0545
  107MOL   C21938591   0.477   3.642   2.357 -0.1460  0.8301  0.0599
  107MOL   C22038592   0.432   3.504   2.413  0.1277 -0.4442 -0.3761
  107MOL   C22138593   0.525   3.382   2.395 -0.1893 -0.3075  0.7124
  107MOL   C22238594   0.488   3.265   2.480  1.0541 -0.0735 -0.9535
  107MOL   C22338595   0.548   3.344   2.246  0.5702 -0.2308  0.4967
  107MOL   H22438596   0.403   3.857   2.363 -0.1757 -0.3109 -1.1709
  107MOL   H22538597   0.314   3.757   2.467  2.1457  0.4760  1.2217
  107MOL   H22638598   0.502   3.625   2.253  1.0559  1.1677  0.2818
  107MOL   H22738599   0.395   3.505   2.515 -0.8189  2.1606 -0.6925
  107MOL   H22838600   0.346   3.470   2.355  0.5393 -1.4941 -0.3830
  107MOL   H22938601   0.624   3.408   2.432  0.5801 -0.3726 -1.2534
  107MOL   H23038602   0.506   3.278   2.587 -0.4643 -0.1179 -0.6742
  107MOL   H23138603   0.383   3.235   2.473  0.9964 -0.2488  0.4550
  107MOL   H23238604   0.549   3.180   2.451  0.0869 -1.3629  0.6435
  107MOL   H23338605   0.482   3.260   2.222 -1.7629  2.0177 -1.2102
  107MOL   H23438606   0.521   3.418   2.171 -1.5230  0.9950  2.3823
  107MOL   H23538607   0.654   3.321   2.236  0.8422  1.4423 -0.7400
  107MOL   C23638608   0.605   3.684   2.433 -0.8838 -0.1067 -0.1322
  107MOL   C23738609   0.688   3.802   2.380  0.8677  0.3062  0.2759
  107MOL   C23838610   0.716   3.777   2.235 -0.5252 -0.0202 -0.4387
  107MOL   C23938611   0.790   3.645   2.185  0.4934  0.1689 -0.7591
  107MOL   C24038612   0.794   3.643   2.029  0.0166  0.2443 -0.1580
  107MOL   C24138613   0.923   3.621   2.259 -0.9996  0.7660 -0.1611
  107MOL   H24238614   0.679   3.604   2.437 -1.0692 -0.3710 -1.5906
  107MOL   H24338615   0.576   3.708   2.535  0.6454  1.2706  0.0123
  107MOL   H24438616   0.619   3.886   2.374 -0.7478 -0.9273  1.0745
  107MOL   H24538617   0.776   3.862   2.204  1.1638 -0.2664  2.0840
  107MOL   H24638618   0.626   3.791   2.174 -1.2201 -0.2754  0.5193
  107MOL   H24738619   0.720   3.568   2.217  0.2452  0.4309 -0.6694
  107MOL   H24838620   0.874   3.702   1.984 -0.3204 -0.1485 -1.2990
  107MOL   H24938621   0.703   3.682   1.982  0.7594  0.6507 -1.2947
  107MOL   H25038622   0.817   3.541   2.000  1.0106  0.1019  1.1127
  107MOL   H25138623   0.984   3.711   2.252 -0.1464  0.4326  2.2577
  107MOL   H25238624   0.973   3.534   2.217 -0.3760  0.5576  0.9852
  107MOL   H25338625   0.921   3.591   2.364 -0.9880 -1.5421 -0.8025
  107MOL   C25438626   0.811   3.836   2.475 -0.3638  0.8025 -0.6473
  107MOL   C25538627   0.790   3.942   2.586  0.6676  0.4896 -0.7508
  107MOL   C25638628   0.728   3.884   2.717  0.1953  0.1475  0.4333
  107MOL   C25738629   0.642   3.987   2.790  0.1986  0.0866 -0.1275
  107MOL   C25838630   0.581   3.937   2.927 -1.2883 -0.2455  0.4143
  107MOL   C25938631   0.528   4.049   2.712  0.5977 -0.2094  0.7559
  107MOL   H26038632   0.849   3.740   2.510 -0.1751  1.0031 -0.3027
  107MOL   H26138633   0.893   3.867   2.410 -0.4496 -0.1922 -1.2395
  107MOL   H26238634   0.725   4.014   2.537  1.1395  2.1386  0.9668
  107MOL   H26338635   0.808   3.847   2.780 -1.3357  0.1219  2.4046
  107MOL   H26438636   0.672   3.792   2.697  2.1087 -0.4999 -2.2732
  107MOL   H26538637   0.703   4.072   2.821 -0.6579  0.5799  0.2454
  107MOL   H26638638   0.509   4.009   2.967 -1.1137 -0.4572  1.1033
  107MOL   H26738639   0.666   3.932   2.995 -2.2679 -1.1887  1.5793
  107MOL   H26838640   0.537   3.838   2.916 -0.1788 -0.7829  0.6701
  107MOL   H26938641   0.578   4.124   2.651  0.1772  0.0362  0.7140
  107MOL   H27038642   0.477   3.975   2.650 -1.0177  0.4711  1.2702
  107MOL   H27138643   0.458   4.111   2.766  2.3115  1.9124  0.5792
  107MOL   C27238644   0.926   4.018   2.632  0.6326  0.6041 -0.5108
  107MOL   C27338645   0.959   4.154   2.565  0.1856  0.4181 -0.0439
  107MOL   C27438646   0.928   4.275   2.663  0.0507 -0.1170 -0.0255
  107MOL   C27538647   0.926   4.416   2.595  0.3878  0.2433 -0.1558
  107MOL   C27638648   0.931   4.525   2.705  0.1953 -0.3832 -0.1462
  107MOL   C27738649   0.809   4.434   2.495 -0.5856 -0.6602  0.7527
  107MOL   H27838650   0.930   4.034   2.739 -0.8455 -0.0437 -0.3458
  107MOL   H27938651   1.004   3.946   2.609  0.9872  0.4757  1.0564
  107MOL   H28038652   0.886   4.150   2.484 -0.8840  0.1190  0.9076
  107MOL   H28138653   0.996   4.269   2.748 -0.0556 -1.3589 -0.0215
  107MOL   H28238654   0.824   4.265   2.696  0.0319 -2.3075 -0.6713
  107MOL   H28338655   1.011   4.431   2.529 -0.4860  3.5959 -0.5880
  107MOL   H28438656   0.834   4.535   2.753 -0.7973 -1.0935 -1.9946
  107MOL   H28538657   1.017   4.528   2.773  0.3074  2.3327 -0.3586
  107MOL   H28638658   0.947   4.615   2.645  2.1938 -1.4682 -1.3124
  107MOL   H28738659   0.705   4.441   2.527 -0.0871  1.5728  1.9566
  107MOL   H28838660   0.809   4.531   2.446  0.0443 -0.8411  0.3855
  107MOL   H28938661   0.810   4.359   2.415 -0.1181  1.4762 -1.3094
  107MOL   C29038662   1.105   4.156   2.521 -0.1089 -0.2004  0.2903
  107MOL   C29138663   1.132   4.081   2.392 -0.3679  0.5946 -0.1759
  107MOL   C29238664   1.088   4.173   2.268 -0.0908 -0.1899  0.0248
  107MOL   C29338665   0.993   4.114   2.169  0.0749  0.5721  0.3115
  107MOL   C29438666   0.943   4.212   2.065  0.4318 -0.3912  0.3051
  107MOL   C29538667   1.055   3.994   2.094 -0.7696  0.0147 -0.9803
  107MOL   H29638668   1.139   4.257   2.498  0.5257 -0.2601  0.9580
  107MOL   H29738669   1.168   4.121   2.602 -0.9297 -0.3274  0.8899
  107MOL   H29838670   1.073   3.990   2.398 -0.9863  1.0898  1.4235
  107MOL   H29938671   1.180   4.213   2.228 -0.4123  2.3811  1.7724
  107MOL   H30038672   1.038   4.261   2.309  1.3931  0.4298  0.5185
  107MOL   H30138673   0.909   4.081   2.230 -0.7417  1.6739 -0.1957
  107MOL   H30238674   0.893   4.301   2.104  0.9511  0.1091 -0.1526
  107MOL   H30338675   0.868   4.169   1.998  0.7951  1.3304 -1.2645
  107MOL   H30438676   1.029   4.260   2.017 -0.5175  1.5847  0.5122
  107MOL   H30538677   1.146   4.033   2.048 -0.2230  0.5297  0.4929
  107MOL   H30638678   1.000   3.952   2.010 -1.2850  1.1925 -1.2474
  107MOL   H30738679   1.095   3.915   2.157 -0.7370 -0.1538 -1.2117
  107MOL   C30838680   1.279   4.037   2.376  0.1718  0.7557  0.1063
  107MOL   C30938681   1.328   3.922   2.473 -0.1611  0.0563 -0.6808
  107MOL   C31038682   1.289   3.783   2.420  0.2961  0.4757 -0.5045
  107MOL   C31138683   1.296   3.663   2.526 -0.3588 -0.1008  0.3683
  107MOL   C31238684   1.208   3.677   2.647  0.0236  0.3833 -0.5410
  107MOL   C31338685   1.267   3.533   2.445  0.8482 -0.5338 -0.0456
  107MOL   H31438686   1.304   4.014   2.273  3.7034  3.2810  0.2741
  107MOL   H31538687   1.343   4.125   2.382 -0.2957  1.0764  0.4095
  107MOL   H31638688   1.280   3.940   2.569  1.5449  1.1099  0.0040
  107MOL   H31738689   1.357   3.758   2.339  0.5017 -0.0860 -0.1595
  107MOL   H31838690   1.185   3.784   2.386 -0.0642  0.6115  0.5616
  107MOL   H31938691   1.399   3.645   2.556  0.0739  2.3394  0.3876
  107MOL   H32038692   1.105   3.704   2.620 -0.4682 -0.5674  0.3297
  107MOL   H32138693   1.238   3.756   2.714  2.8574  0.0066 -1.3123
  107MOL   H32238694   1.201   3.581   2.698 -1.6615  0.4892 -0.5203
  107MOL   H32338695   1.173   3.548   2.391  2.1148  2.6013 -1.5034
  107MOL   H32438696   1.349   3.520   2.375 -0.0662 -1.5106 -0.9491
  107MOL   H32538697   1.256   3.447   2.512  0.9747  1.1609  2.1931
  107MOL   C32638698   1.482   3.922   2.491 -0.2903 -0.0562 -0.0067
  107MOL   C32738699   1.556   4.027   2.583  0.5377  0.3994 -0.4759
  107MOL   C32838700   1.701   4.053   2.541  0.4051  0.3258  0.2205
  107MOL   C32938701   1.778   4.151   2.634 -0.7708  0.5072  0.0092
  107MOL   C33038702   1.931   4.140   2.603  0.1752  0.1695  0.2005
  107MOL   C33138703   1.727   4.289   2.616 -0.3244 -0.5616  0.0218
  107MOL   H33238704   1.542   3.906   2.401  0.9992 -0.1462  0.8534
  107MOL   H33338705   1.507   3.825   2.533  2.8032  0.0781 -1.4065
  107MOL   H33438706   1.509   4.123   2.560  0.4459  0.6156  0.6150
  107MOL   H33538707   1.755   3.959   2.552 -2.4080 -1.4162 -0.3129
  107MOL   H33638708   1.715   4.079   2.437  1.6906 -1.1183  0.0080
  107MOL   H33738709   1.754   4.117   2.735 -0.6999  0.5250  0.0317
  107MOL   H33838710   1.962   4.035   2.610 -0.5253 -0.0589 -0.1377
  107MOL   H33938711   2.005   4.191   2.665 -0.7233 -0.3987  1.7644
  107MOL   H34038712   1.945   4.188   2.507 -1.4170 -0.2256 -0.2295
  107MOL   H34138713   1.749   4.328   2.517  2.0094 -2.1881 -0.1566
  107MOL   H34238714   1.623   4.293   2.648 -1.1561 -1.0660 -2.5081
  107MOL   H34338715   1.789   4.342   2.689  0.1918 -1.3018  0.1358
  107MOL   C34438716   1.536   3.992   2.735  0.2813  0.3876 -0.1533
  107MOL   C34538717   1.607   3.867   2.787  0.0198 -0.1597  0.4924
  107MOL   C34638718   1.610   3.838   2.935 -0.3462  0.4129 -0.0925
  107MOL   C34738719   1.647   3.692   2.966 -0.2503  1.2353  0.3693
  107MOL   C34838720   1.639   3.657   3.118 -0.8644  1.0004  0.3409
  107MOL   C34938721   1.779   3.653   2.910 -0.0168 -1.2550 -0.1715
  107MOL   H35038722   1.433   3.962   2.755  0.3659  1.4093  1.9492
  107MOL   H35138723   1.558   4.082   2.791 -1.4300  1.5476 -1.3057
  107MOL   H35238724   1.710   3.869   2.750 -0.2764 -0.3947 -0.3544
  107MOL   H35338725   1.681   3.905   2.985  0.1650 -0.7488  0.7547
  107MOL   H35438726   1.514   3.845   2.987 -1.2919  0.3488 -1.7681
  107MOL   H35538727   1.564   3.634   2.925  0.4532  0.4891 -0.0082
  107MOL   H35638728   1.687   3.735   3.178 -1.7481  0.9129  1.1748
  107MOL   H35738729   1.537   3.661   3.154 -1.2105  1.5871 -0.6852
  107MOL   H35838730   1.685   3.561   3.139  0.1662  1.5413  0.6269
  107MOL   H35938731   1.784   3.658   2.801 -0.8193  0.6405 -0.1390
  107MOL   H36038732   1.803   3.551   2.940  0.3263 -1.0026  0.4036
  107MOL   H36138733   1.851   3.723   2.951 -0.7037 -0.5999 -0.0674
  107MOL   H36238734   1.571   3.773   2.744  1.1054  0.4501 -1.8195
  108MOL     C138735   5.672   7.202   0.701 -0.1351  0.2243  0.0054
  108MOL     C238736   5.574   7.325   0.693 -0.1268 -0.1486  0.0640
  108MOL     C338737   5.492   7.332   0.819  0.1536  0.2228  0.9026
  108MOL     C438738   5.564   7.299   0.953  0.1546  0.2181 -0.5752
  108MOL     C538739   5.478   7.304   1.085 -0.8579  0.0908 -0.8546
  108MOL     C638740   5.673   7.404   0.983 -0.0373 -0.4799 -0.4356
  108MOL     H738741   5.604   7.117   0.702 -1.0459  0.8832 -2.3668
  108MOL     H838742   5.728   7.199   0.608  0.2877 -0.5359  0.2799
  108MOL     H938743   5.618   7.424   0.688  0.4228 -0.4455 -1.0280
  108MOL    H1038744   5.441   7.426   0.836 -0.1164  0.9354 -3.2317
  108MOL    H1138745   5.410   7.261   0.805  0.3290  0.6926 -2.9825
  108MOL    H1238746   5.608   7.199   0.949 -0.4274 -0.0948  0.5988
  108MOL    H1338747   5.430   7.402   1.084  1.7485  1.4245  0.3241
  108MOL    H1438748   5.405   7.224   1.092 -0.7195  0.0993  0.8961
  108MOL    H1538749   5.530   7.285   1.179 -1.4007  3.7645  0.2779
  108MOL    H1638750   5.735   7.386   1.070  1.1411  0.1552 -1.1346
  108MOL    H1738751   5.631   7.505   0.982 -0.7342 -0.7713 -1.0806
  108MOL    H1838752   5.740   7.408   0.898  1.4663 -3.7187  0.5390
  108MOL    H1938753   5.744   7.208   0.782 -0.9834  0.2418  0.7660
  108MOL    C2038754   5.483   7.316   0.565  0.8387  0.2841  0.4265
  108MOL    C2138755   5.552   7.329   0.429  0.0128  0.8571 -0.2998
  108MOL    C2238756   5.449   7.323   0.314  0.5916 -0.0415 -0.4105
  108MOL    C2338757   5.408   7.184   0.267 -0.1991 -0.1267  0.1656
  108MOL    C2438758   5.301   7.190   0.162 -0.5837 -0.6707 -0.3146
  108MOL    C2538759   5.520   7.074   0.236  0.0006 -0.2657  0.0855
  108MOL    H2638760   5.427   7.223   0.557  2.8894 -1.1433  2.2489
  108MOL    H2738761   5.414   7.400   0.580  1.3181  0.5728  1.0310
  108MOL    H2838762   5.618   7.243   0.416 -2.5403 -1.0119 -1.2447
  108MOL    H2938763   5.476   7.362   0.216  1.0609  1.1399  0.1835
  108MOL    H3038764   5.362   7.376   0.350  0.5871 -1.4429  1.7135
  108MOL    H3138765   5.350   7.151   0.353 -0.3489  0.0848  0.1445
  108MOL    H3238766   5.231   7.107   0.159  0.8353 -2.0065  1.9645
  108MOL    H3338767   5.350   7.199   0.065 -0.3339 -2.3939 -0.3665
  108MOL    H3438768   5.239   7.278   0.177 -2.0350 -1.8683  0.8380
  108MOL    H3538769   5.586   7.101   0.154  0.1110  0.6534  0.4726
  108MOL    H3638770   5.585   7.057   0.321  0.6081 -1.9198 -0.6885
  108MOL    H3738771   5.466   6.983   0.209 -1.1592  0.3634  0.2182
  108MOL    C3838772   5.636   7.454   0.414  0.2649 -0.2009  0.1589
  108MOL    C3938773   5.740   7.430   0.293  0.6737  0.1005 -1.3857
  108MOL    C4038774   5.867   7.368   0.345 -0.2160  0.5205 -0.7157
  108MOL    C4138775   5.946   7.286   0.249  0.0551 -0.8349 -0.1648
  108MOL    C4238776   5.877   7.157   0.202  0.4029  0.1299  0.3888
  108MOL    C4338777   6.084   7.256   0.301  0.2102 -0.4696 -0.7163
  108MOL    H4438778   5.700   7.488   0.495  0.0574 -1.3563  0.8126
  108MOL    H4538779   5.569   7.536   0.385 -0.1493 -0.5096  0.2380
  108MOL    H4638780   5.698   7.356   0.225 -1.0470 -0.5365  0.3052
  108MOL    H4738781   5.854   7.311   0.436  0.9094  0.8911 -0.3086
  108MOL    H4838782   5.926   7.451   0.385 -0.0792 -0.0774  0.3421
  108MOL    H4938783   5.969   7.342   0.158 -2.8062  0.3913 -0.1741
  108MOL    H5038784   5.779   7.171   0.157  1.2503 -1.0551 -1.8916
  108MOL    H5138785   5.940   7.095   0.137  1.7972  0.0449  1.7769
  108MOL    H5238786   5.872   7.096   0.292 -0.8548 -1.3253 -0.6470
  108MOL    H5338787   6.091   7.193   0.390 -2.7938 -0.4172 -0.4133
  108MOL    H5438788   6.135   7.351   0.318 -0.8814 -0.2499  1.5389
  108MOL    H5538789   6.137   7.196   0.226  2.6943  1.5813 -0.6432
  108MOL    C5638790   5.769   7.572   0.224  0.4340  0.0733 -0.0908
  108MOL    C5738791   5.688   7.608   0.096 -0.1788 -0.1926 -0.3765
  108MOL    C5838792   5.539   7.642   0.122 -0.4094 -0.2896 -0.2959
  108MOL    C5938793   5.462   0.004   0.049 -0.1514 -0.3227 -0.2225
  108MOL    C6038794   5.502   0.138   0.104 -0.0196  0.3681 -0.0660
  108MOL    C6138795   5.308   7.743   0.081 -0.1293 -0.3818  0.1738
  108MOL    H6238796   5.874   7.578   0.194  0.6113  0.4156  0.5951
  108MOL    H6338797   5.764   7.649   0.301 -0.5063  0.3988 -0.4696
  108MOL    H6438798   5.729   7.703   0.062  1.5945 -0.4228  1.0306
  108MOL    H6538799   5.475   7.554   0.122  0.0669 -0.6710  1.7556
  108MOL    H6638800   5.534   7.668   0.228 -1.7948 -0.9363 -0.1992
  108MOL    H6738801   5.477   7.750   7.693  1.3031  1.2046 -0.1294
  108MOL    H6838802   5.440   0.218   0.065 -1.7415 -0.4463  0.9359
  108MOL    H6938803   5.606   0.162   0.081 -0.2700  0.2723 -1.3451
  108MOL    H7038804   5.488   0.137   0.212 -1.0139  1.1639 -0.1783
  108MOL    H7138805   5.264   7.651   0.044  0.6341 -1.0824  0.9829
  108MOL    H7238806   5.244   0.061   0.029 -0.4770 -0.4356  0.5330
  108MOL    H7338807   5.281   7.750   0.186 -2.0855  3.8680 -0.4934
  108MOL    C7438808   5.700   7.508   7.732  0.3621 -0.0683 -0.2740
  108MOL    C7538809   5.833   7.495   7.663 -1.0810 -0.2400 -0.3837
  108MOL    C7638810   5.847   7.588   7.538  0.3201 -0.1673 -0.3891
  108MOL    C7738811   5.841   7.744   7.566  0.0573 -0.7957 -0.0012
  108MOL    C7838812   5.824   0.078   7.436 -0.0316 -0.0518 -0.1239
  108MOL    C7938813   5.959   0.044   7.652  0.5150 -0.4852 -0.4582
  108MOL    H8038814   5.625   7.526   7.655 -0.2944 -1.4573  0.0216
  108MOL    H8138815   5.666   7.412   0.020 -0.1068  0.3745  0.3930
  108MOL    H8238816   5.911   7.512   7.737  0.2018  1.1532 -1.9988
  108MOL    H8338817   5.950   7.577   7.504  0.8700  3.0905  0.1039
  108MOL    H8438818   5.774   7.555   7.464 -1.3768  0.3815  1.0146
  108MOL    H8538819   5.749   0.013   7.621 -1.5880 -1.9697 -2.1933
  108MOL    H8638820   5.920   0.087   7.385 -0.1137  0.6758 -0.1528
  108MOL    H8738821   5.784   0.175   7.463  0.8854  0.2057  0.3341
  108MOL    H8838822   5.760   0.030   7.362  2.0690 -0.1251 -1.9648
  108MOL    H8938823   5.949   0.008   0.003  0.4544  2.4008  0.5711
  108MOL    H9038824   6.050   0.001   7.610  0.4485 -0.0008 -1.1039
  108MOL    H9138825   5.970   0.152   7.645 -0.4647 -0.2374  1.4541
  108MOL    C9238826   5.854   7.348   7.619 -0.3821  0.9493  0.0144
  108MOL    C9338827   5.986   7.292   7.554  0.1669 -0.5259 -0.6610
  108MOL    C9438828   6.097   7.280   7.663  0.0579 -0.4335  0.3017
  108MOL    C9538829   6.244   7.280   7.605  0.0290 -0.4097 -0.5119
  108MOL    C9638830   6.295   7.427   7.575 -0.1843 -0.0349  0.9585
  108MOL    C9738831   6.334   7.201   7.698 -1.0200 -0.0295 -0.4956
  108MOL    H9838832   5.823   7.291   7.707  1.5648  1.1009  0.8183
  108MOL    H9938833   5.777   7.342   7.542  0.6852 -2.0219 -0.9041
  108MOL   H10038834   6.023   7.361   7.478 -1.5059  2.7003  1.3451
  108MOL   H10138835   6.063   7.192   7.719 -1.1772 -1.3718 -1.8763
  108MOL   H10238836   6.094   7.374   7.718  1.8482 -0.3271  0.2455
  108MOL   H10338837   6.231   7.231   7.508 -0.7814 -1.5304  0.1507
  108MOL   H10438838   6.237   7.488   7.505  1.6726  1.3341  0.5845
  108MOL   H10538839   6.400   7.422   7.545 -0.4123  0.0507  0.1214
  108MOL   H10638840   6.283   7.486   7.666 -2.0999 -2.9563  2.7095
  108MOL   H10738841   6.438   7.198   7.667 -0.8945 -0.1811 -0.0636
  108MOL   H10838842   6.308   7.095   7.688 -1.7103  0.1028 -0.1435
  108MOL   H10938843   6.330   7.225   0.052  0.4861  1.3961 -0.7485
  108MOL   C11038844   5.963   7.160   7.465  0.1881  0.1476  0.4383
  108MOL   C11138845   5.864   7.051   7.519  0.3407 -0.2953  0.1680
  108MOL   C11238846   5.757   7.014   7.418 -0.3847 -0.0201  0.1975
  108MOL   C11338847   5.646   7.123   7.380 -0.1851 -0.6352 -0.1581
  108MOL   C11438848   5.536   7.140   7.483  0.2459  0.5463 -0.2930
  108MOL   C11538849   5.600   7.086   7.242  0.1034 -0.0557  0.4334
  108MOL   H11638850   6.060   7.115   7.446 -0.3801 -1.8362  1.9763
  108MOL   H11738851   5.928   7.197   7.369 -2.0276 -0.3324  1.0268
  108MOL   H11838852   5.817   7.076   7.614 -1.2760  2.6277 -1.3330
  108MOL   H11938853   5.688   6.935   7.446 -1.1066  1.0047  1.3725
  108MOL   H12038854   5.804   6.988   7.323 -1.3148 -0.1468 -0.2395
  108MOL   H12138855   5.690   7.222   7.376  0.8412 -1.0945 -0.4033
  108MOL   H12238856   5.577   7.163   7.581 -1.5867  3.0586 -0.0500
  108MOL   H12338857   5.470   7.054   7.491 -0.1452  0.6864 -1.8088
  108MOL   H12438858   5.465   7.218   7.455  1.0588  0.8400 -1.5651
  108MOL   H12538859   5.556   6.987   7.229  0.0917  0.1685 -1.4004
  108MOL   H12638860   5.677   7.094   7.165  0.5471  0.5521  0.9414
  108MOL   H12738861   5.514   7.143   7.206 -0.2783 -1.4278 -0.9198
  108MOL   C12838862   5.952   6.925   7.547  0.8909  0.3023 -0.2689
  108MOL   C12938863   5.880   6.797   7.601  0.1871 -0.4481  0.2812
  108MOL   C13038864   5.866   6.814   0.008  0.1377  0.1795  0.2475
  108MOL   C13138865   5.742   6.737   0.068 -0.3089 -0.2956 -0.1199
  108MOL   C13238866   5.729   6.754   0.223 -0.0467  0.1176  0.3788
  108MOL   C13338867   5.599   6.773   0.001  0.0115  0.4804  0.5363
  108MOL   H13438868   6.021   6.955   7.626  1.2813 -0.6977 -0.2202
  108MOL   H13538869   6.014   6.898   7.462  1.6821 -0.4454  0.5385
  108MOL   H13638870   5.780   6.774   7.567  0.3278 -2.1454  0.9585
  108MOL   H13738871   5.963   6.799   0.055  0.3054 -0.3190 -0.2589
  108MOL   H13838872   5.848   6.918   0.035  0.9751  0.6586 -1.0085
  108MOL   H13938873   5.758   6.632   0.044  1.1631  0.1548 -1.1704
  108MOL   H14038874   5.667   6.841   0.247 -1.0639  0.2923 -2.6120
  108MOL   H14138875   5.824   6.776   0.272 -1.1813  3.7901  1.0778
  108MOL   H14238876   5.683   6.668   0.272  3.0162 -1.8295 -0.0190
  108MOL   H14338877   5.567   6.726   7.661 -2.2329  1.0634  0.9852
  108MOL   H14438878   5.514   6.752   0.066 -1.9812  0.5093 -1.9987
  108MOL   H14538879   5.606   6.882   7.752 -1.4531  0.5974  1.3456
  108MOL   C14638880   5.958   6.665   7.560 -0.1669 -0.8042  0.0744
  108MOL   C14738881   5.906   6.592   7.440 -0.2713  0.8342  0.5398
  108MOL   C14838882   5.780   6.510   7.457 -0.1143  0.4056 -0.4256
  108MOL   C14938883   5.778   6.391   7.562 -0.1885  0.4776  0.3615
  108MOL   C15038884   5.634   6.340   7.589  0.0754  0.4655 -0.2387
  108MOL   C15138885   5.866   6.272   7.521 -0.5640 -0.0364  0.8577
  108MOL   H15238886   5.962   6.588   7.637  0.2817  0.0937  0.9570
  108MOL   H15338887   6.063   6.696   7.555 -0.6908  1.0736  0.4585
  108MOL   H15438888   5.870   6.662   7.365  1.0605 -1.5254 -2.3957
  108MOL   H15538889   5.693   6.568   7.488 -0.8658 -2.6713  3.5972
  108MOL   H15638890   5.753   6.464   7.362  0.6874 -3.9919  1.3349
  108MOL   H15738891   5.814   6.422   7.660  1.2902  0.3236 -0.1182
  108MOL   H15838892   5.580   6.317   7.497  0.5558  0.6166 -0.5591
  108MOL   H15938893   5.567   6.402   7.648  1.6413  1.0255  0.9715
  108MOL   H16038894   5.643   6.244   7.640  0.4005 -0.0398 -1.2209
  108MOL   H16138895   5.973   6.290   7.532 -0.3946 -0.2606 -0.3093
  108MOL   H16238896   5.851   6.239   7.418 -0.2723 -2.0063  1.4325
  108MOL   H16338897   5.848   6.191   7.591  1.8530 -2.1090 -0.8062
  108MOL   C16438898   6.020   6.510   7.374  0.1718 -0.0544  0.2446
  108MOL   C16538899   6.105   6.589   7.274 -0.2941 -0.1538  0.2819
  108MOL   C16638900   6.256   6.561   7.281  0.5499  0.3515  0.3524
  108MOL   C16738901   6.329   6.608   7.411 -0.4475 -0.2081  0.2184
  108MOL   C16838902   6.459   6.546   7.425 -0.0919  0.5177 -0.2122
  108MOL   C16938903   6.344   6.763   7.418  0.3201  0.8291  0.1485
  108MOL   H17038904   6.089   6.482   7.452  0.7366 -2.4774 -1.0796
  108MOL   H17138905   5.987   6.418   7.324 -0.3545  0.8777 -1.1750
  108MOL   H17238906   6.083   6.693   7.298  1.4864  0.1309  0.7770
  108MOL   H17338907   6.275   6.454   7.282  4.5250  0.9458 -0.6521
  108MOL   H17438908   6.300   6.599   7.189 -0.7863 -2.0607 -1.3395
  108MOL   H17538909   6.283   6.561   7.498  1.9431 -3.1821 -0.0291
  108MOL   H17638910   6.511   6.570   7.518 -0.4397 -0.5775  0.2709
  108MOL   H17738911   6.522   6.574   7.341  1.1978 -0.5472  0.3790
  108MOL   H17838912   6.452   6.437   7.425 -0.1443  0.5193 -1.0394
  108MOL   H17938913   6.381   6.809   7.326  0.7562 -2.0242 -1.1590
  108MOL   H18038914   6.411   6.796   7.497 -1.1275 -0.9844  2.2084
  108MOL   H18138915   6.246   6.812   7.423  0.9622  2.1167  0.4286
  108MOL   C18238916   6.054   6.565   7.137 -0.5563 -0.2890 -0.1553
  108MOL   C18338917   6.083   6.678   7.044 -0.5511  0.3554 -0.3414
  108MOL   C18438918   6.067   6.631   6.894  0.0317  0.1968  0.1984
  108MOL   C18538919   6.184   6.544   6.841  0.1908  0.9075 -0.3535
  108MOL   C18638920   6.133   6.468   6.723 -0.2573  0.0177  0.3203
  108MOL   C18738921   6.309   6.629   6.819 -0.4150 -0.1522  0.0895
  108MOL   H18838922   5.947   6.545   7.138 -0.6272  0.1262  1.2191
  108MOL   H18938923   6.106   6.477   7.098  0.1508  0.4025 -0.7821
  108MOL   H19038924   6.188   6.703   7.057 -0.6341  1.0995 -1.0352
  108MOL   H19138925   6.057   6.716   6.826 -0.4281 -0.3468 -0.4120
  108MOL   H19238926   5.974   6.577   6.883 -0.2793  1.2700 -2.8097
  108MOL   H19338927   6.200   6.463   6.912  0.1175 -0.0739 -1.4357
  108MOL   H19438928   6.221   6.415   6.684  0.7740 -0.1248  2.7619
  108MOL   H19538929   6.091   6.541   6.654 -1.4694  0.9173  1.9718
  108MOL   H19638930   6.058   6.393   6.746 -1.7781  0.8644 -1.7227
  108MOL   H19738931   6.356   6.655   6.915  0.0637  0.7697 -0.3828
  108MOL   H19838932   6.280   6.722   6.771 -0.8560 -1.4080 -2.1231
  108MOL   H19938933   6.382   6.589   6.749  0.9619  0.2666  1.2328
  108MOL   C20038934   5.987   6.799   7.067 -0.1180  0.9648  0.3660
  108MOL   C20138935   6.044   6.931   7.012 -0.5229 -0.0112  0.4495
  108MOL   C20238936   6.128   6.986   7.119  0.3769  0.0093 -0.8179
  108MOL   C20338937   6.236   7.086   7.091  0.6496 -0.2249  0.7254
  108MOL   C20438938   6.278   7.139   7.230 -0.1927  0.0215 -0.3702
  108MOL   C20538939   6.356   7.043   7.001  0.0640 -0.4388  0.7350
  108MOL   H20638940   5.957   6.795   7.171 -3.6116  2.4620 -0.5173
  108MOL   H20738941   5.894   6.773   7.017 -0.0529  1.2805  0.0799
  108MOL   H20838942   6.118   6.905   6.937 -0.9137 -0.1390  0.1012
  108MOL   H20938943   6.066   7.023   7.202  2.4237  1.2613  0.1913
  108MOL   H21038944   6.181   6.905   7.169  0.1711 -0.0507 -0.6961
  108MOL   H21138945   6.198   7.177   7.044  1.5685 -0.3303 -0.2348
  108MOL   H21238946   6.323   7.072   7.303 -1.6556 -0.8436 -0.2534
  108MOL   H21338947   6.207   7.200   7.286  0.4998 -1.3269  2.0468
  108MOL   H21438948   6.358   7.205   7.195 -0.6331  0.1412 -1.1735
  108MOL   H21538949   6.406   6.964   7.057  0.2321  0.2712  1.5958
  108MOL   H21638950   6.431   7.121   6.987 -1.8581  0.8892 -3.0844
  108MOL   H21738951   6.320   7.000   6.907  1.5947 -0.8852  0.3227
  108MOL   C21838952   5.928   7.021   6.953 -0.0970  0.2974 -0.5087
  108MOL   C21938953   5.848   6.975   6.825 -0.1090  0.1517 -0.5102
  108MOL   C22038954   5.880   7.060   6.699 -0.7177  0.8273  0.1778
  108MOL   C22138955   6.029   7.029   6.648  0.2276 -0.9033 -0.4301
  108MOL   C22238956   6.015   6.897   6.560 -0.5286  0.6530 -0.4515
  108MOL   C22338957   6.088   7.146   6.563  0.6540  0.0855 -0.2118
  108MOL   H22438958   5.857   7.046   7.032  1.3879 -0.4704  1.0991
  108MOL   H22538959   5.965   7.123   6.940  1.3767 -0.3384 -1.3808
  108MOL   H22638960   5.877   6.873   6.801 -2.0212 -0.0618 -2.1296
  108MOL   H22738961   5.815   7.038   6.614  0.3183 -2.0480  0.0941
  108MOL   H22838962   5.860   7.165   6.719  1.5261  1.2333  0.4366
  108MOL   H22938963   6.097   7.004   6.729 -0.2421  1.3546  0.6844
  108MOL   H23038964   6.117   6.868   6.537 -0.5051  0.6573 -0.3555
  108MOL   H23138965   5.962   6.812   6.602 -0.9003  0.2058 -1.8079
  108MOL   H23238966   5.988   6.917   6.456  1.2931 -0.9857 -1.2606
  108MOL   H23338967   6.165   7.113   6.493 -0.2055  0.6673 -1.4500
  108MOL   H23438968   5.997   7.189   6.521  0.9397  1.6651  0.7594
  108MOL   H23538969   6.144   7.209   6.632  0.8601  1.1943 -1.3558
  108MOL   C23638970   5.695   6.971   6.841  0.2326  0.0763 -0.1136
  108MOL   C23738971   5.626   6.880   6.743  0.1029 -0.0232  0.0700
  108MOL   C23838972   5.474   6.913   6.740 -0.0928  0.0500  0.3330
  108MOL   C23938973   5.432   7.014   6.627 -0.5166  0.1998 -0.3690
  108MOL   C24038974   5.439   6.953   6.479 -0.5773 -0.6917 -0.6703
  108MOL   C24138975   5.302   7.083   6.647  0.2817 -0.2597 -0.0721
  108MOL   H24238976   5.656   7.073   6.830  0.5174  0.0319 -1.7051
  108MOL   H24338977   5.664   6.934   6.938 -2.3941 -1.0025 -1.3284
  108MOL   H24438978   5.666   6.910   6.646  1.3996  0.2603  0.6802
  108MOL   H24538979   5.453   6.964   6.834 -2.8559 -0.1593 -0.1453
  108MOL   H24638980   5.415   6.823   6.732 -0.1421  0.0091  1.0701
  108MOL   H24738981   5.514   7.085   6.632  0.7966 -1.0991 -2.2151
  108MOL   H24838982   5.344   6.900   6.469 -0.4940 -0.8861 -0.4475
  108MOL   H24938983   5.526   6.893   6.450  0.7899  0.9846 -0.0826
  108MOL   H25038984   5.436   7.036   6.410 -1.8103  0.7598  1.0948
  108MOL   H25138985   5.270   7.134   6.556  2.8027  0.1200 -0.7876
  108MOL   H25238986   5.308   7.146   6.736  2.1921 -1.7329  0.8923
  108MOL   H25338987   5.223   7.015   6.676 -1.9237  1.7578 -1.1427
  108MOL   C25438988   5.649   6.731   6.777  0.2488  0.6254  0.0361
  108MOL   C25538989   5.621   6.638   6.661  0.3460  0.4138  0.0662
  108MOL   C25638990   5.720   6.659   6.541  0.2662  0.5164  0.0462
  108MOL   C25738991   5.691   6.581   6.408 -0.4217 -0.4080  0.8454
  108MOL   C25838992   5.791   6.630   6.301 -0.5529 -0.1249  0.0046
  108MOL   C25938993   5.551   6.602   6.351 -0.5477  0.4249  0.0554
  108MOL   H26038994   5.746   6.705   6.818 -1.1851 -2.6488  1.5732
  108MOL   H26138995   5.582   6.707   6.860 -0.5532 -1.4940 -1.1797
  108MOL   H26238996   5.521   6.670   6.631  0.7776 -0.4777 -2.4295
  108MOL   H26338997   5.817   6.643   6.588 -0.4132 -1.7800  0.7292
  108MOL   H26438998   5.728   6.764   6.511 -0.5614  0.9751  1.3421
  108MOL   H26538999   5.707   6.474   6.419  3.4712 -0.3404 -2.5437
  108MOL   H26639000   5.805   6.556   6.222  1.4549 -0.8101  0.9742
  108MOL   H26739001   5.892   6.645   6.338  0.4011  1.7295 -3.1984
  108MOL   H26839002   5.761   6.721   6.249  3.2462  1.2652  0.1344
  108MOL   H26939003   5.561   6.556   6.253  1.2173 -1.2571  1.0001
  108MOL   H27039004   5.472   6.555   6.409  0.5122 -1.2267  0.1869
  108MOL   H27139005   5.532   6.706   6.326  0.6180  0.0631 -2.5282
  108MOL   C27239006   5.610   6.492   6.692  0.7313  0.6461  0.5876
  108MOL   C27339007   5.472   6.452   6.754 -0.1910  1.0015  0.2302
  108MOL   C27439008   5.374   6.395   6.650  0.0970  0.1959 -0.3953
  108MOL   C27539009   5.227   6.424   6.677 -0.3143  0.1657 -0.1380
  108MOL   C27639010   5.130   6.365   6.576 -0.0980  0.5353 -0.2982
  108MOL   C27739011   5.199   6.573   6.713  0.0852 -0.1503 -0.4625
  108MOL   H27839012   5.607   6.428   6.604 -0.6089 -0.9005  1.7269
  108MOL   H27939013   5.684   6.475   6.770  1.6955  0.3422 -0.3921
  108MOL   H28039014   5.420   6.545   6.781  0.5244  1.2076  0.9072
  108MOL   H28139015   5.400   6.289   6.657  1.0904  0.4860  0.3922
  108MOL   H28239016   5.397   6.416   6.546  0.0211 -1.3523 -0.7301
  108MOL   H28339017   5.206   6.356   6.759  0.3563 -1.8149 -1.5592
  108MOL   H28439018   5.149   6.396   6.473 -0.4899  0.6112 -0.3472
  108MOL   H28539019   5.159   6.260   6.573  0.0129  0.5795 -1.0385
  108MOL   H28639020   5.025   6.378   6.601  0.1149  1.8540 -0.0375
  108MOL   H28739021   5.091   6.584   6.703  0.3899  1.2848 -2.5697
  108MOL   H28839022   5.229   6.613   6.810  2.2381 -1.1407 -0.7052
  108MOL   H28939023   5.241   6.636   6.635  2.8438 -0.1098  0.9885
  108MOL   C29039024   5.480   6.359   6.891 -0.0235 -0.9003 -0.3450
  108MOL   C29139025   5.541   6.427   7.017  0.0311 -0.3676  0.5759
  108MOL   C29239026   5.458   6.541   7.069 -0.0447 -0.5490  0.1961
  108MOL   C29339027   5.507   6.626   7.192  0.2161  0.0909  0.1103
  108MOL   C29439028   5.655   6.687   7.181  0.3670 -0.0492 -0.4991
  108MOL   C29539029   5.410   6.734   7.231  0.8325  0.7453 -0.3807
  108MOL   H29639030   5.380   6.337   6.925 -0.3872 -1.4957 -1.7696
  108MOL   H29739031   5.523   6.263   6.863  1.6517 -0.6422  1.2586
  108MOL   H29839032   5.637   6.471   6.992 -0.1689  0.0783  0.6034
  108MOL   H29939033   5.355   6.510   7.091  0.1099 -1.0868  0.1677
  108MOL   H30039034   5.445   6.612   6.988 -0.2493  0.3219  0.9815
  108MOL   H30139035   5.506   6.555   7.275  0.0896  0.0598  0.0815
  108MOL   H30239036   5.727   6.612   7.147  1.0609  0.7107 -0.7259
  108MOL   H30339037   5.696   6.740   7.267 -1.3689  0.1509  0.2253
  108MOL   H30439038   5.655   6.753   7.094  1.0455  0.4725 -0.1108
  108MOL   H30539039   5.392   6.796   7.143 -3.5198  1.5102  0.9315
  108MOL   H30639040   5.439   6.805   7.309  0.5745 -0.8839  1.2316
  108MOL   H30739041   5.316   6.683   7.253 -1.3746  4.2655 -1.1916
  108MOL   C30839042   5.555   6.309   7.121  0.5174  1.1017 -0.3057
  108MOL   C30939043   5.656   6.189   7.098  0.3809 -0.1504 -0.5086
  108MOL   C31039044   5.800   6.247   7.087  0.0444  0.4616 -0.2632
  108MOL   C31139045   5.907   6.153   7.029 -0.2113 -0.0406 -0.0906
  108MOL   C31239046   5.890   6.131   6.877 -0.4555  0.5264  0.0382
  108MOL   C31339047   6.044   6.205   7.051 -0.2167  0.3121  0.0366
  108MOL   H31439048   5.561   6.359   7.217 -0.5805 -1.3757  1.0714
  108MOL   H31539049   5.457   6.262   7.121  2.2015 -2.6854 -3.4661
  108MOL   H31639050   5.628   6.142   7.004 -0.5657 -1.0805  0.2189
  108MOL   H31739051   5.829   6.284   7.185 -1.2475  0.5947  0.0860
  108MOL   H31839052   5.803   6.342   7.033 -0.6130  0.3760 -0.4588
  108MOL   H31939053   5.901   6.056   7.080 -0.0812  0.0705  0.1396
  108MOL   H32039054   5.977   6.094   6.822 -1.4807  1.6174 -2.3956
  108MOL   H32139055   5.870   6.222   6.821  2.6467  1.2286 -0.0126
  108MOL   H32239056   5.813   6.056   6.855  0.0784  0.0026 -0.0670
  108MOL   H32339057   6.041   6.233   7.157 -3.8974 -0.8901  0.3055
  108MOL   H32439058   6.112   6.127   7.018  2.5718  1.4998  2.7388
  108MOL   H32539059   6.054   6.287   6.981  1.6094 -1.4106 -1.7871
  108MOL   C32639060   5.646   6.081   7.211 -0.4933  0.2700  0.0844
  108MOL   C32739061   5.512   6.007   7.237 -0.2691 -0.4530 -0.2316
  108MOL   C32839062   5.529   5.892   7.343  0.4029 -0.2505 -0.1145
  108MOL   C32939063   5.552   5.938   7.488  0.2059 -0.2890  0.3196
  108MOL   C33039064   5.433   6.016   7.554  0.1170 -0.3821  0.8675
  108MOL   C33139065   5.580   5.813   7.580 -0.0175 -0.6228 -0.3538
  108MOL   H33239066   5.680   6.113   7.309 -2.7701  0.0304  0.9772
  108MOL   H33339067   5.714   6.002   7.178 -1.7924  0.0235 -2.0519
  108MOL   H33439068   5.448   6.085   7.278  0.0762 -0.3696  0.1469
  108MOL   H33539069   5.438   5.833   7.337  0.3995 -0.2070 -0.4822
  108MOL   H33639070   5.611   5.825   7.319  1.5741  0.6388  1.3057
  108MOL   H33739071   5.645   5.995   7.484 -1.2138  2.0379 -0.7974
  108MOL   H33839072   5.451   6.055   7.654 -0.5662  2.7851 -0.1844
  108MOL   H33939073   5.338   5.961   7.550 -0.5731  0.7221  1.7407
  108MOL   H34039074   5.414   6.105   7.493 -0.6743  0.4780  2.3299
  108MOL   H34139075   5.498   5.742   7.578 -1.3058  0.8400 -0.8525
  108MOL   H34239076   5.668   5.763   7.540 -0.7242 -0.5270 -2.0747
  108MOL   H34339077   5.584   5.853   7.681 -1.7719 -1.0564 -0.0936
  108MOL   C34439078   5.444   5.940   7.114 -0.2925 -0.6856 -0.0603
  108MOL   C34539079   5.290   5.951   7.125  1.1482  0.2164  0.0609
  108MOL   C34639080   5.233   5.911   6.992 -0.4201 -0.6011  0.2170
  108MOL   C34739081   5.077   5.939   6.984  0.0070 -0.3898  0.2658
  108MOL   C34839082   4.983   5.834   7.060 -0.2140  0.8156  0.1970
  108MOL   C34939083   5.023   5.971   6.843  0.1206  0.7017 -0.0530
  108MOL   H35039084   5.488   5.841   7.121  2.5780  0.5161 -0.0967
  108MOL   H35139085   5.478   5.970   7.015  0.5215 -0.2506  0.3401
  108MOL   H35239086   5.249   6.049   7.151 -1.6578 -0.8417 -0.1984
  108MOL   H35339087   5.276   5.966   6.909 -1.5910  0.2906  0.1812
  108MOL   H35439088   5.252   5.806   6.975  2.0237 -0.6812  3.0151
  108MOL   H35539089   5.072   6.032   7.041  0.9908  0.8938 -1.6848
  108MOL   H35639090   5.008   5.823   7.166 -0.4212 -1.9042  0.0010
  108MOL   H35739091   4.879   5.863   7.072 -0.2527  0.1177  1.7586
  108MOL   H35839092   4.990   5.735   7.014 -1.3132  0.8098  0.0252
  108MOL   H35939093   5.030   5.890   6.770 -5.6585 -0.1045  0.0528
  108MOL   H36039094   5.089   6.049   6.805  0.3583 -0.1036 -1.3152
  108MOL   H36139095   4.917   5.997   6.836  0.2459  2.3131  3.1936
  108MOL   H36239096   5.267   5.894   7.215 -0.8889  2.7456  1.2033
  109MOL     C139097   0.589   2.350   2.762  0.2190 -0.3783  0.0819
  109MOL     C239098   0.536   2.307   2.626  0.7031  0.4967 -0.5778
  109MOL     C339099   0.418   2.205   2.657  0.2943  0.1591  0.8656
  109MOL     C439100   0.297   2.260   2.742 -0.5155  0.3950  0.9467
  109MOL     C539101   0.200   2.150   2.775  0.1337  0.0875 -0.0740
  109MOL     C639102   0.218   2.366   2.657 -0.7655  0.7081  0.3924
  109MOL     H739103   0.682   2.405   2.746  1.2352 -1.0766  3.2136
  109MOL     H839104   0.516   2.412   2.814 -0.0439 -2.3184  2.0825
  109MOL     H939105   0.502   2.401   2.581  1.3900 -0.1821 -2.5960
  109MOL    H1039106   0.378   2.166   2.563  0.3022 -4.5370  2.6421
  109MOL    H1139107   0.457   2.122   2.716 -2.8630 -1.2597  1.0607
  109MOL    H1239108   0.330   2.301   2.837  1.5371  1.8499 -0.3501
  109MOL    H1339109   0.178   2.089   2.687 -0.6894 -1.1689  0.9676
  109MOL    H1439110   0.249   2.089   2.851 -0.0277 -0.0652 -0.0901
  109MOL    H1539111   0.097   2.173   2.804 -0.7454 -3.8231  0.2493
  109MOL    H1639112   0.177   2.316   2.569  2.8719  2.7654 -2.6039
  109MOL    H1739113   0.267   2.460   2.630  2.7195 -0.9732  0.5490
  109MOL    H1839114   0.128   2.389   2.714 -0.8965  2.5090 -0.5029
  109MOL    H1939115   0.613   2.275   2.837  0.8611 -1.8779 -1.5749
  109MOL    C2039116   0.653   2.248   2.534 -0.9613  0.5654 -0.3404
  109MOL    C2139117   0.726   2.365   2.458 -0.1111  0.8939 -0.6698
  109MOL    C2239118   0.859   2.309   2.400 -0.4911 -0.2899  0.2635
  109MOL    C2339119   0.965   2.292   2.506  0.4337  0.4741 -0.3886
  109MOL    C2439120   1.017   2.144   2.506  0.2414 -0.8715 -0.4508
  109MOL    C2539121   1.077   2.398   2.499  0.1802 -0.3053  0.6887
  109MOL    H2639122   0.715   2.184   2.596 -0.0805 -0.9824 -2.7629
  109MOL    H2739123   0.609   2.178   2.463 -0.2005 -2.2011  1.8481
  109MOL    H2839124   0.767   2.443   2.521  3.0265 -0.1157 -1.3532
  109MOL    H2939125   0.900   2.378   2.326 -2.6887  1.2327  0.4392
  109MOL    H3039126   0.830   2.218   2.347 -0.2921 -0.4717  0.4640
  109MOL    H3139127   0.913   2.317   2.598 -0.0059 -1.0510 -0.2227
  109MOL    H3239128   0.932   2.078   2.486 -1.4159  0.8934  0.5342
  109MOL    H3339129   1.064   2.113   2.599 -0.4214 -0.1249  0.1451
  109MOL    H3439130   1.088   2.117   2.428 -1.6805 -0.4174 -2.4244
  109MOL    H3539131   1.156   2.371   2.429 -0.5771  0.7915 -0.6051
  109MOL    H3639132   1.043   2.491   2.453 -1.8849 -0.1618  2.4073
  109MOL    H3739133   1.130   2.415   2.593  0.4640  1.8278  0.1590
  109MOL    C3839134   0.639   2.417   2.339  0.0729  0.1214 -0.2063
  109MOL    C3939135   0.686   2.543   2.276  0.1099 -0.3074 -0.2066
  109MOL    C4039136   0.646   2.653   2.381 -0.7599  0.0258  0.1202
  109MOL    C4139137   0.715   2.795   2.365  0.6110 -0.5373  0.5099
  109MOL    C4239138   0.865   2.795   2.388  0.2687 -0.2176 -0.1935
  109MOL    C4339139   0.658   2.905   2.465  0.1970 -0.8363 -0.4034
  109MOL    H4439140   0.539   2.434   2.377 -0.1685  1.3774 -1.3805
  109MOL    H4539141   0.622   2.332   2.272 -0.7580  0.8809 -0.9645
  109MOL    H4639142   0.795   2.549   2.266  0.1190 -0.9461 -0.5009
  109MOL    H4739143   0.674   2.625   2.482 -0.5306 -0.0475  0.0369
  109MOL    H4839144   0.538   2.670   2.381 -0.3069  3.2183  0.0140
  109MOL    H4939145   0.708   2.844   2.268  2.0624  1.4482  1.3806
  109MOL    H5039146   0.921   2.728   2.323 -0.1128  0.0549 -0.8022
  109MOL    H5139147   0.908   2.893   2.369  1.3546 -0.6017  0.2471
  109MOL    H5239148   0.870   2.778   2.496  1.2550  1.4238  0.0415
  109MOL    H5339149   0.565   2.952   2.432  0.1185  0.4322  1.5813
  109MOL    H5439150   0.725   2.991   2.467 -0.3992 -0.3884  0.7548
  109MOL    H5539151   0.646   2.878   2.570 -1.6453  0.7811 -0.1753
  109MOL    C5639152   0.613   2.559   2.143 -0.1418 -0.1112  0.1978
  109MOL    C5739153   0.679   2.640   2.030  0.2361 -0.8653  0.7730
  109MOL    C5839154   0.601   2.617   1.897  0.3788  0.0348  0.4880
  109MOL    C5939155   0.444   2.644   1.901 -0.1382  0.8506 -0.3759
  109MOL    C6039156   0.379   2.567   1.783  0.6485  0.0953 -0.5475
  109MOL    C6139157   0.403   2.789   1.892 -0.4784 -0.1673 -0.1138
  109MOL    H6239158   0.510   2.591   2.163  0.0544  0.3747  0.4397
  109MOL    H6339159   0.611   2.459   2.101 -0.7757  0.3616 -0.9080
  109MOL    H6439160   0.662   2.742   2.066  0.3844 -0.8689  0.8536
  109MOL    H6539161   0.638   2.685   1.820 -2.1181  1.1826  0.2616
  109MOL    H6639162   0.618   2.512   1.876 -1.1890  0.0251 -0.8284
  109MOL    H6739163   0.399   2.606   1.993  1.0154 -0.0495 -0.1764
  109MOL    H6839164   0.398   2.460   1.775 -1.8516 -0.5692  1.7012
  109MOL    H6939165   0.397   2.614   1.687 -1.1304  1.4446 -0.2515
  109MOL    H7039166   0.270   2.575   1.788  0.6109 -0.5567 -0.1990
  109MOL    H7139167   0.447   2.852   1.969  2.7030 -1.8089 -0.5129
  109MOL    H7239168   0.295   2.804   1.898 -0.3699  0.3002  0.7400
  109MOL    H7339169   0.440   2.824   1.796 -0.4462  2.4468  0.8080
  109MOL    C7439170   0.833   2.606   1.999  0.7455  0.2727 -0.5155
  109MOL    C7539171   0.923   2.704   1.919 -0.2498 -0.7480 -0.3619
  109MOL    C7639172   0.899   2.850   1.968 -0.2039  0.3503  0.1004
  109MOL    C7739173   0.999   2.971   1.950 -0.1867 -0.1636 -0.5459
  109MOL    C7839174   1.141   2.922   1.983 -0.0911  0.0631 -0.5965
  109MOL    C7939175   0.946   3.086   2.037  0.0346  0.2604 -0.5566
  109MOL    H8039176   0.834   2.503   1.962 -0.5943  0.3767 -0.8779
  109MOL    H8139177   0.876   2.591   2.097  0.6699 -1.0259 -0.6691
  109MOL    H8239178   1.018   2.674   1.963 -1.6173  1.5199  4.3905
  109MOL    H8339179   0.801   2.877   1.927 -1.0687 -1.2546  1.0702
  109MOL    H8439180   0.875   2.850   2.074 -2.7970 -0.4392 -0.4402
  109MOL    H8539181   0.995   3.008   1.847  2.5278 -1.3328 -1.0872
  109MOL    H8639182   1.197   3.015   1.997 -2.1701  1.2200  0.3094
  109MOL    H8739183   1.192   2.865   1.906 -0.7343 -1.1847 -0.1037
  109MOL    H8839184   1.154   2.860   2.072 -2.6290 -1.4588 -1.2413
  109MOL    H8939185   1.010   3.170   2.010  0.3315  0.1367 -0.2394
  109MOL    H9039186   0.838   3.099   2.034  0.1072  0.9417 -0.3436
  109MOL    H9139187   0.961   3.067   2.143  1.3067  1.0661 -0.5724
  109MOL    C9239188   0.928   2.689   1.765  0.5398  0.4109 -0.9053
  109MOL    C9339189   0.973   2.550   1.713  0.6312  0.1137 -0.2344
  109MOL    C9439190   0.851   2.474   1.646  0.1008 -0.6645 -0.1057
  109MOL    C9539191   0.879   2.328   1.610 -0.0809 -0.2047 -0.1144
  109MOL    C9639192   0.917   2.240   1.737 -0.6800  0.0448 -0.0030
  109MOL    C9739193   0.761   2.253   1.542  0.1832  0.1328  0.6288
  109MOL    H9839194   0.830   2.708   1.722  0.5310  1.5932 -0.3791
  109MOL    H9939195   0.996   2.767   1.731  1.9229 -1.6375 -3.0044
  109MOL   H10039196   0.989   2.491   1.803  1.4395 -0.3011 -0.6502
  109MOL   H10139197   0.808   2.536   1.567 -1.8061 -1.1325  0.5430
  109MOL   H10239198   0.775   2.480   1.724  1.1806  1.1427  0.8185
  109MOL   H10339199   0.961   2.337   1.538 -0.3957  1.7599 -0.2530
  109MOL   H10439200   0.832   2.212   1.799 -0.1402 -1.1056  0.2211
  109MOL   H10539201   0.988   2.283   1.807 -2.4877  2.0758  0.6369
  109MOL   H10639202   0.964   2.151   1.696  2.1794  1.3409  0.3473
  109MOL   H10739203   0.714   2.306   1.459  0.8666  1.1263  0.8737
  109MOL   H10839204   0.679   2.235   1.612 -0.1411  3.6172  1.2555
  109MOL   H10939205   0.799   2.164   1.491  2.0102  0.7268  0.9173
  109MOL   C11039206   1.105   2.549   1.635  0.5751 -0.4739  0.2074
  109MOL   C11139207   1.231   2.565   1.719  0.3834 -0.0231 -0.9457
  109MOL   C11239208   1.274   2.431   1.780 -0.4841 -0.3245 -0.0265
  109MOL   C11339209   1.380   2.423   1.891 -0.1231  0.9239  0.0098
  109MOL   C11439210   1.437   2.278   1.915 -0.3713 -0.1099  0.0329
  109MOL   C11539211   1.327   2.472   2.025 -0.5755 -0.9171  0.5338
  109MOL   H11639212   1.093   2.634   1.568 -1.2175 -2.3557 -1.9665
  109MOL   H11739213   1.111   2.467   1.563 -1.5941  1.3639 -2.1603
  109MOL   H11839214   1.216   2.633   1.803  3.0073 -2.2232  1.4196
  109MOL   H11939215   1.314   2.361   1.707 -3.4754 -1.5261 -0.5818
  109MOL   H12039216   1.182   2.384   1.815 -0.1575 -0.3628  0.8001
  109MOL   H12139217   1.472   2.477   1.869  1.1346 -0.7852  1.0159
  109MOL   H12239218   1.364   2.207   1.956 -1.1539  0.3848 -0.4859
  109MOL   H12339219   1.525   2.276   1.978  0.7608 -0.7769 -1.5435
  109MOL   H12439220   1.474   2.230   1.824  2.1212 -2.5024  2.2446
  109MOL   H12539221   1.392   2.440   2.106  0.8327  2.2977  0.7559
  109MOL   H12639222   1.228   2.431   2.047 -0.4300 -1.9548 -0.7244
  109MOL   H12739223   1.330   2.581   2.028 -1.8488 -0.7827 -1.8287
  109MOL   C12839224   1.344   2.619   1.622 -0.5525  0.0174 -0.4189
  109MOL   C12939225   1.371   2.775   1.636  0.1063  0.0906  0.3710
  109MOL   C13039226   1.428   2.833   1.511 -0.4295  0.4956  0.5284
  109MOL   C13139227   1.323   2.874   1.404 -0.5321  0.3596  0.5807
  109MOL   C13239228   1.222   2.981   1.450  0.1854  0.4870 -0.3305
  109MOL   C13339229   1.380   2.907   1.267 -0.1760 -0.6052 -0.2633
  109MOL   H13439230   1.314   2.593   1.520  0.0858 -0.6734 -0.4299
  109MOL   H13539231   1.438   2.567   1.639  0.2508  2.0186  1.5174
  109MOL   H13639232   1.273   2.814   1.664 -0.3891 -1.6260  1.0674
  109MOL   H13739233   1.485   2.924   1.531  2.5380 -1.1021 -0.3389
  109MOL   H13839234   1.513   2.779   1.470 -1.0565 -1.3637  1.6286
  109MOL   H13939235   1.265   2.781   1.398  0.9851 -0.9195  4.5034
  109MOL   H14039236   1.281   3.072   1.455 -0.2376  0.7598 -0.2745
  109MOL   H14139237   1.194   2.961   1.553 -0.2408 -0.4936 -0.6282
  109MOL   H14239238   1.131   2.990   1.390 -0.5388  0.6118  0.7640
  109MOL   H14339239   1.428   2.816   1.232  2.8299  1.0875 -0.7473
  109MOL   H14439240   1.305   2.943   1.196  2.4138  0.3957 -2.5957
  109MOL   H14539241   1.457   2.984   1.276  0.7541 -1.3889 -1.3331
  109MOL   C14639242   1.464   2.794   1.768  0.0741  0.1318  0.1939
  109MOL   C14739243   1.534   2.933   1.795 -0.1710 -0.0196  0.5609
  109MOL   C14839244   1.609   2.922   1.931 -0.3552 -0.2612  0.5236
  109MOL   C14939245   1.748   2.847   1.924  0.1295  0.1376  0.6839
  109MOL   C15039246   1.852   2.953   1.873  0.3468 -0.5357 -0.3683
  109MOL   C15139247   1.784   2.788   2.067  0.5781  0.2077 -0.6070
  109MOL   H15239248   1.542   2.719   1.774  1.0469  1.2232  1.4768
  109MOL   H15339249   1.408   2.753   1.852 -0.1010 -1.9596 -0.9121
  109MOL   H15439250   1.605   2.960   1.717 -1.7936  3.4000  0.1526
  109MOL   H15539251   1.623   3.024   1.967  0.1984  0.2375 -1.0789
  109MOL   H15639252   1.548   2.884   2.013 -2.1063 -0.0781 -0.6656
  109MOL   H15739253   1.750   2.762   1.856 -0.8091  0.5877  0.0756
  109MOL   H15839254   1.956   2.940   1.905  0.4467 -0.6106 -0.7211
  109MOL   H15939255   1.836   3.044   1.930  4.4327  0.1448 -0.1142
  109MOL   H16039256   1.857   2.970   1.765  0.9015  1.8210  0.0147
  109MOL   H16139257   1.721   2.704   2.094  0.6227 -0.7895 -3.3524
  109MOL   H16239258   1.780   2.862   2.146 -0.4895 -0.2960 -0.1902
  109MOL   H16339259   1.887   2.751   2.073  0.4223  0.1788  2.1701
  109MOL   C16439260   1.426   3.040   1.800 -0.1498 -0.1912 -0.1045
  109MOL   C16539261   1.464   3.189   1.794  0.7257 -0.2962  0.7025
  109MOL   C16639262   1.480   3.236   1.646 -0.4563  0.8751  0.3761
  109MOL   C16739263   1.548   3.370   1.622 -0.2049  1.3487 -0.1808
  109MOL   C16839264   1.686   3.379   1.699  0.6107  1.4196 -0.2245
  109MOL   C16939265   1.572   3.393   1.475 -0.4351  0.2824  0.0524
  109MOL   H17039266   1.344   3.023   1.731 -1.6961 -0.7019  1.7938
  109MOL   H17139267   1.380   3.024   1.898 -0.6118 -1.7748 -0.5687
  109MOL   H17239268   1.558   3.209   1.847 -1.0970  0.0742  3.9330
  109MOL   H17339269   1.544   3.162   1.600  0.8203  0.8042  2.1946
  109MOL   H17439270   1.387   3.238   1.591 -1.0458  0.3946  1.3431
  109MOL   H17539271   1.487   3.455   1.651  0.8225  1.3125  2.1785
  109MOL   H17639272   1.684   3.372   1.807  1.4930  2.1967 -0.1488
  109MOL   H17739273   1.741   3.469   1.670  3.1409  0.0059  0.0957
  109MOL   H17839274   1.747   3.299   1.657  1.1373  0.8589  1.5726
  109MOL   H17939275   1.637   3.312   1.444  0.3284  1.0377 -0.3325
  109MOL   H18039276   1.628   3.486   1.462  1.4792 -0.7433  0.7712
  109MOL   H18139277   1.488   3.394   1.405  0.0494 -0.4141 -0.5503
  109MOL   C18239278   1.359   3.283   1.857  0.3427  0.4023 -0.5885
  109MOL   C18339279   1.404   3.344   1.994 -0.0672  0.0883  0.6487
  109MOL   C18439280   1.317   3.463   2.052 -0.7620 -0.6675  0.2216
  109MOL   C18539281   1.320   3.595   1.960  0.1343  0.4362  0.2255
  109MOL   C18639282   1.190   3.682   1.976  0.3659  0.3082  0.1360
  109MOL   C18739283   1.436   3.684   1.988 -0.5069  0.3589  0.0616
  109MOL   H18839284   1.263   3.232   1.867 -0.3734  1.4026 -2.1549
  109MOL   H18939285   1.326   3.364   1.793  0.6662 -0.0419 -1.3238
  109MOL   H19039286   1.500   3.385   1.965 -1.5168  1.8637 -1.8171
  109MOL   H19139287   1.365   3.486   2.147 -0.7238 -0.8814  0.2553
  109MOL   H19239288   1.220   3.417   2.070 -0.2864 -1.1295  1.6681
  109MOL   H19339289   1.333   3.564   1.856 -1.6724  0.2708  0.0244
  109MOL   H19439290   1.203   3.777   1.923  1.2276  0.2874  0.2987
  109MOL   H19539291   1.179   3.693   2.084 -1.5560 -1.2905  0.1160
  109MOL   H19639292   1.101   3.640   1.930  0.5741 -1.6667  1.5001
  109MOL   H19739293   1.527   3.633   2.020 -1.4729 -1.3209  0.2195
  109MOL   H19839294   1.417   3.747   2.075 -0.8364 -0.9320  0.9342
  109MOL   H19939295   1.461   3.749   1.904  0.7027  1.0321  0.9459
  109MOL   C20039296   1.430   3.243   2.111 -0.1948 -0.4031  0.1931
  109MOL   C20139297   1.540   3.276   2.218 -0.7636 -0.8808  0.0961
  109MOL   C20239298   1.668   3.353   2.168  0.0047  0.0288  0.0657
  109MOL   C20339299   1.748   3.413   2.286 -0.0124 -0.6044 -0.0536
  109MOL   C20439300   1.885   3.463   2.255 -0.3859 -0.0625 -0.1809
  109MOL   C20539301   1.680   3.530   2.355  0.6671 -0.2804  0.0530
  109MOL   H20639302   1.460   3.151   2.061 -1.0945  0.2984 -1.6838
  109MOL   H20739303   1.332   3.240   2.158  0.3121 -1.0311  1.2101
  109MOL   H20839304   1.492   3.341   2.291  0.0171  0.7396 -0.7819
  109MOL   H20939305   1.734   3.285   2.113  2.7151  2.0848  0.6463
  109MOL   H21039306   1.637   3.441   2.112  0.1920 -0.0834 -0.2175
  109MOL   H21139307   1.769   3.332   2.356 -1.0478 -2.4460 -1.8183
  109MOL   H21239308   1.929   3.482   2.353  0.1136  1.0583 -0.6181
  109MOL   H21339309   1.869   3.553   2.197 -0.0324 -2.0936 -3.5647
  109MOL   H21439310   1.950   3.393   2.202 -2.2969 -3.8215  2.1907
  109MOL   H21539311   1.746   3.580   2.426 -0.5140  3.2305 -1.1972
  109MOL   H21639312   1.592   3.503   2.413 -0.0462  0.1283 -0.8283
  109MOL   H21739313   1.656   3.605   2.279 -1.5064 -0.2407  0.7440
  109MOL   C21839314   1.567   3.130   2.285 -0.1374  0.1107  0.1571
  109MOL   C21939315   1.458   3.072   2.385 -0.2302 -0.5263  0.0894
  109MOL   C22039316   1.316   3.038   2.321  0.1655  1.2597  0.2951
  109MOL   C22139317   1.250   2.904   2.356  0.2134 -0.0362  0.0319
  109MOL   C22239318   1.339   2.776   2.331 -0.4101 -0.3341 -0.2811
  109MOL   C22339319   1.229   2.896   2.510 -0.4525 -0.1145 -0.3767
  109MOL   H22439320   1.580   3.066   2.198  0.0559  1.6408 -0.9638
  109MOL   H22539321   1.661   3.134   2.341 -0.8557 -1.9869  1.5744
  109MOL   H22639322   1.506   2.977   2.404  0.5113 -0.2505 -0.3874
  109MOL   H22739323   1.252   3.125   2.317 -2.6202 -0.7889 -1.9252
  109MOL   H22839324   1.336   3.021   2.215 -0.4799  2.4589 -0.0208
  109MOL   H22939325   1.152   2.891   2.310  0.4877 -2.0496 -0.0341
  109MOL   H23039326   1.285   2.687   2.364 -0.7213  0.5159  1.5834
  109MOL   H23139327   1.371   2.754   2.230 -2.8863 -1.7431 -0.8032
  109MOL   H23239328   1.430   2.791   2.389  0.0190 -2.6483 -0.3308
  109MOL   H23339329   1.321   2.891   2.568 -0.0445 -0.0850 -1.0188
  109MOL   H23439330   1.173   2.984   2.540 -1.5020 -1.3617  1.4431
  109MOL   H23539331   1.164   2.812   2.536 -0.3424  0.0391  0.4008
  109MOL   C23639332   1.442   3.162   2.509 -0.5189 -0.3605 -0.5978
  109MOL   C23739333   1.482   3.109   2.648  0.3706  0.4822 -0.3819
  109MOL   C23839334   1.484   3.217   2.765 -0.2591 -0.3443 -0.3170
  109MOL   C23939335   1.349   3.266   2.814  0.1172 -0.0436  0.3252
  109MOL   C24039336   1.272   3.154   2.884 -0.8092  0.2198  0.4568
  109MOL   C24139337   1.365   3.393   2.902  0.0689  0.3332  0.7748
  109MOL   H24239338   1.335   3.180   2.520 -0.0388 -0.0649  4.9244
  109MOL   H24339339   1.482   3.262   2.492 -4.6179  1.4695 -0.1061
  109MOL   H24439340   1.424   3.022   2.679  2.2384 -0.7197 -0.1950
  109MOL   H24539341   1.555   3.296   2.737 -1.4856  0.9589  0.1598
  109MOL   H24639342   1.527   3.167   2.852  0.2515 -1.8416 -1.4204
  109MOL   H24739343   1.298   3.287   2.720  0.4521 -2.5272 -0.4276
  109MOL   H24839344   1.315   3.054   2.879 -1.1957  0.1153 -1.0381
  109MOL   H24939345   1.169   3.139   2.851 -1.0180 -1.8377  1.9153
  109MOL   H25039346   1.269   3.199   2.984  0.1142  2.0638 -0.3245
  109MOL   H25139347   1.386   3.478   2.839 -1.5105  0.9938  1.1176
  109MOL   H25239348   1.445   3.375   2.974  0.1464 -0.1218  0.5798
  109MOL   H25339349   1.274   3.410   2.960 -0.1186  0.7344  0.3591
  109MOL   C25439350   1.630   3.054   2.641  0.5529 -0.2719  0.7349
  109MOL   C25539351   1.646   2.898   2.647 -0.0351  0.3352  0.0702
  109MOL   C25639352   1.782   2.859   2.582  0.2774 -0.3493  0.1732
  109MOL   C25739353   1.801   2.710   2.549  0.2709 -0.2320  0.1790
  109MOL   C25839354   1.938   2.701   2.472 -0.5641  0.2595 -0.3054
  109MOL   C25939355   1.695   2.656   2.451 -0.0690  0.3504 -0.5418
  109MOL   H26039356   1.681   3.095   2.554 -1.2809  1.0230  0.2403
  109MOL   H26139357   1.694   3.095   2.719  0.0825  2.6647 -0.3484
  109MOL   H26239358   1.563   2.870   2.582  0.1739  0.8110 -0.4114
  109MOL   H26339359   1.870   2.877   2.643 -0.2917  0.0319  0.8792
  109MOL   H26439360   1.806   2.919   2.494  0.2436 -0.2429  0.2373
  109MOL   H26539361   1.801   2.646   2.637 -0.0783 -0.7847 -0.2221
  109MOL   H26639362   1.973   2.599   2.453 -1.3820  0.0176 -0.5654
  109MOL   H26739363   2.018   2.756   2.521 -1.7839  1.2467  0.5848
  109MOL   H26839364   1.933   2.743   2.371 -0.3635 -2.5295 -1.5247
  109MOL   H26939365   1.692   2.727   2.369  0.4975  1.9505  0.8026
  109MOL   H27039366   1.734   2.558   2.424 -0.3382  0.4009 -1.1309
  109MOL   H27139367   1.602   2.644   2.508  0.2800  0.2220  0.0054
  109MOL   C27239368   1.622   2.830   2.783  0.3716  0.3626  0.5141
  109MOL   C27339369   1.736   2.823   2.887  0.5044  0.1977 -0.3065
  109MOL   C27439370   1.800   2.955   2.916  0.0881 -0.1677  0.4313
  109MOL   C27539371   1.921   2.946   3.023  0.0656  0.1027  0.1125
  109MOL   C27639372   1.967   3.087   3.060 -0.0054 -0.2358 -0.5911
  109MOL   C27739373   2.035   2.868   2.958 -0.6833 -0.2366 -0.0920
  109MOL   H27839374   1.524   2.860   2.820 -0.3792  0.0323 -1.1835
  109MOL   H27939375   1.606   2.725   2.762 -2.3966  0.7439  0.6450
  109MOL   H28039376   1.809   2.764   2.831  0.3461  1.2645 -1.6821
  109MOL   H28139377   1.726   3.029   2.947 -0.3892 -0.6820  0.5314
  109MOL   H28239378   1.838   2.991   2.821 -1.9289 -1.5408 -0.9223
  109MOL   H28339379   1.895   2.899   3.118 -2.4739  0.3518 -0.4270
  109MOL   H28439380   2.037   3.119   2.982  0.3749 -0.8183 -0.4886
  109MOL   H28539381   1.881   3.154   3.064 -0.0820 -0.2527 -1.8422
  109MOL   H28639382   2.019   3.090   3.156  0.4068 -0.9330 -0.7911
  109MOL   H28739383   2.120   2.864   3.027  0.0334 -0.5854 -0.9849
  109MOL   H28839384   2.009   2.763   2.944  3.6515 -1.5448  0.9077
  109MOL   H28939385   2.060   2.911   2.861 -1.2555 -0.5223 -0.3665
  109MOL   C29039386   1.680   2.757   3.024  0.6874 -0.6995 -0.1701
  109MOL   C29139387   1.647   2.609   3.008 -0.2238 -0.0148 -0.3234
  109MOL   C29239388   1.782   2.533   2.995  0.0563  0.0179 -0.0795
  109MOL   C29339389   1.761   2.384   2.939  0.4475  0.8147  0.7563
  109MOL   C29439390   1.724   2.372   2.793  0.4216  0.4040 -0.9696
  109MOL   C29539391   1.880   2.291   2.969  0.3091 -0.3213 -0.1827
  109MOL   H29639392   1.758   2.762   3.100  0.0601  0.3679  0.4167
  109MOL   H29739393   1.595   2.813   3.062  0.6051 -1.1861  0.3836
  109MOL   H29839394   1.590   2.601   2.915  1.6085 -0.6069 -1.4237
  109MOL   H29939395   1.832   2.539   3.092 -0.4622  2.5416  0.0690
  109MOL   H30039396   1.857   2.570   2.926 -1.0013 -0.3374 -1.4416
  109MOL   H30139397   1.680   2.343   3.001 -0.5047  0.6875 -0.5598
  109MOL   H30239398   1.688   2.271   2.777  1.8046 -0.2678  0.0545
  109MOL   H30339399   1.810   2.374   2.725 -0.3075 -0.2613 -1.9145
  109MOL   H30439400   1.664   2.449   2.744  0.5174  0.2907 -1.2620
  109MOL   H30539401   1.897   2.273   3.076  1.2801 -1.9127 -0.5950
  109MOL   H30639402   1.959   2.340   2.914  1.3621 -1.0711  0.6415
  109MOL   H30739403   1.857   2.191   2.930 -0.7812  0.1218 -0.6917
  109MOL   C30839404   1.559   2.554   3.127 -0.0133 -0.1691 -0.3261
  109MOL   C30939405   1.418   2.620   3.149 -0.1157  0.0454  0.1141
  109MOL   C31039406   1.313   2.574   3.040  0.1458  0.6637 -0.3456
  109MOL   C31139407   1.182   2.668   3.039  0.1823 -0.2700  1.1924
  109MOL   C31239408   1.204   2.793   2.957 -0.2304  0.0241  0.0676
  109MOL   C31339409   1.063   2.581   2.979 -0.1605 -0.2791  0.2343
  109MOL   H31439410   1.539   2.448   3.110  0.0194 -0.1855 -0.2621
  109MOL   H31539411   1.619   2.560   3.218 -0.5527  1.5343 -0.0743
  109MOL   H31639412   1.421   2.729   3.147 -0.5436  0.0660  0.4360
  109MOL   H31739413   1.284   2.471   3.061  2.3190 -0.0586 -0.7241
  109MOL   H31839414   1.349   2.562   2.938  0.6530  1.9526 -0.3253
  109MOL   H31939415   1.147   2.694   3.138 -1.5488  0.7850  0.3347
  109MOL   H32039416   1.108   2.841   2.937 -0.6596 -0.4864  0.8594
  109MOL   H32139417   1.240   2.760   2.860  0.3895  0.3577  0.1848
  109MOL   H32239418   1.276   2.863   2.999 -0.5228  0.6063 -0.3992
  109MOL   H32339419   0.972   2.640   2.971  0.2475  0.3473  0.1646
  109MOL   H32439420   1.085   2.530   2.885  0.0003  0.8104 -0.3336
  109MOL   H32539421   1.047   2.501   3.051  1.5783 -1.7127 -0.9363
  109MOL   C32639422   1.365   2.577   3.290 -0.1498  0.0659 -0.2722
  109MOL   C32739423   1.428   2.644   3.420  0.8971  0.1229  0.2525
  109MOL   C32839424   1.410   2.571   3.550 -0.2354 -0.2852  0.4023
  109MOL   C32939425   1.438   2.420   3.564 -0.2472 -0.6470  0.6039
  109MOL   C33039426   1.587   2.381   3.540  0.7506  0.4532  0.1228
  109MOL   C33139427   1.384   2.374   3.695  0.6479  0.0754 -0.5137
  109MOL   H33239428   1.390   2.471   3.292  1.1823  0.3800  0.4088
  109MOL   H33339429   1.257   2.593   3.292 -0.1983 -0.1242 -1.4276
  109MOL   H33439430   1.533   2.650   3.393  0.1471  1.5434 -2.4874
  109MOL   H33539431   1.470   2.615   3.629  2.6988  0.4861 -2.1179
  109MOL   H33639432   1.307   2.595   3.576 -0.3946  1.0248 -1.2661
  109MOL   H33739433   1.383   2.362   3.489  1.9529 -0.8682 -0.8702
  109MOL   H33839434   1.606   2.274   3.525 -1.5961  0.2743 -1.9347
  109MOL   H33939435   1.646   2.406   3.628  0.1241  0.6916  0.4706
  109MOL   H34039436   1.632   2.440   3.460  1.3551  0.7491  0.6764
  109MOL   H34139437   1.443   2.430   3.768 -0.6476 -0.2937  0.8507
  109MOL   H34239438   1.279   2.404   3.705  0.7493  1.5387 -3.4642
  109MOL   H34339439   1.393   2.266   3.702  0.8044  0.1109 -0.1594
  109MOL   C34439440   1.387   2.797   3.453 -0.4039 -0.4412 -0.2571
  109MOL   C34539441   1.446   2.898   3.346 -0.0548  0.1250 -0.3892
  109MOL   C34639442   1.451   3.042   3.400 -0.7194 -0.4767 -0.3472
  109MOL   C34739443   1.473   3.146   3.296 -0.4138  0.5869  0.1063
  109MOL   C34839444   1.604   3.112   3.214 -0.2456  0.3398  0.3832
  109MOL   C34939445   1.483   3.287   3.364 -0.3591  0.4513  0.1821
  109MOL   H35039446   1.418   2.807   3.557 -0.7913  0.3717 -0.2174
  109MOL   H35139447   1.278   2.799   3.448 -0.5413 -1.9625  1.7523
  109MOL   H35239448   1.376   2.892   3.263 -1.9848 -4.3918  1.3913
  109MOL   H35339449   1.358   3.062   3.453 -0.0218 -1.7215  1.4014
  109MOL   H35439450   1.524   3.048   3.480 -0.4794  1.1537 -0.6776
  109MOL   H35539451   1.392   3.147   3.224 -1.1274  1.4557  0.9201
  109MOL   H35639452   1.671   3.069   3.288 -2.2973 -2.6722  0.5857
  109MOL   H35739453   1.584   3.032   3.144 -1.7766  2.1486 -1.3108
  109MOL   H35839454   1.648   3.197   3.161  0.7465 -0.5798 -0.3021
  109MOL   H35939455   1.534   3.283   3.460  2.6040 -0.0434 -1.3417
  109MOL   H36039456   1.384   3.325   3.387 -0.3210  0.0171  1.0770
  109MOL   H36139457   1.531   3.358   3.296  2.5853 -2.1011 -0.4823
  109MOL   H36239458   1.551   2.884   3.321 -0.2686  3.4041 -3.4746
  110MOL     C139459   0.746   2.074   7.216 -0.0104 -0.1710  0.2704
  110MOL     C239460   0.754   2.019   7.073  0.1524 -0.4358  0.0777
  110MOL     C339461   0.831   2.112   6.972 -0.4325 -0.6941 -0.0974
  110MOL     C439462   0.892   2.043   6.844 -0.0054  0.1247  0.2911
  110MOL     C539463   1.002   1.950   6.882  0.1401  0.2436 -0.2606
  110MOL     C639464   0.930   2.151   6.738 -0.1310  0.0712 -0.0175
  110MOL     H739465   0.836   2.098   7.273  1.2910  0.9997 -2.1764
  110MOL     H839466   0.695   2.169   7.203  0.2737 -0.0855 -0.2338
  110MOL     H939467   0.804   1.922   7.077  1.6876  0.3566  0.3154
  110MOL    H1039468   0.755   2.185   6.944 -0.7567 -0.8333  0.4221
  110MOL    H1139469   0.910   2.162   7.028  1.6556 -0.8900 -2.7383
  110MOL    H1239470   0.814   1.977   6.804 -0.9389  1.0923  0.4981
  110MOL    H1339471   1.096   2.001   6.902  1.3042 -2.5867  1.9071
  110MOL    H1439472   0.971   1.896   6.971 -1.9387  2.1433  0.2347
  110MOL    H1539473   1.019   1.874   6.807 -1.3650 -1.0714  0.6965
  110MOL    H1639474   0.833   2.193   6.711  0.0259  0.2805 -0.2572
  110MOL    H1739475   0.977   2.102   6.652 -1.0162 -2.5102  0.9277
  110MOL    H1839476   0.988   2.235   6.775  2.2138 -0.4495 -2.3676
  110MOL    H1939477   0.670   2.015   7.267  0.4514 -1.7507 -0.8230
  110MOL    C2039478   0.604   2.007   7.022 -0.0887  0.7580 -0.2317
  110MOL    C2139479   0.553   1.864   7.053  0.0418 -0.0473 -0.6207
  110MOL    C2239480   0.391   1.864   7.049  0.4179  1.0134 -0.9114
  110MOL    C2339481   0.326   1.906   7.182 -0.3315  0.0400  0.1836
  110MOL    C2439482   0.174   1.906   7.166  0.8402  0.6854 -1.0323
  110MOL    C2539483   0.373   1.841   7.311 -0.3766  0.0633  0.2003
  110MOL    H2639484   0.539   2.085   7.064 -0.7864 -0.4429  0.9563
  110MOL    H2739485   0.609   2.017   6.914  0.3985  0.7244 -0.2117
  110MOL    H2839486   0.574   1.831   7.155  0.1865  0.0991 -0.6041
  110MOL    H2939487   0.351   1.766   7.025 -1.5495  1.7569 -0.7747
  110MOL    H3039488   0.353   1.940   6.981 -3.2604  0.0480 -0.0131
  110MOL    H3139489   0.352   2.010   7.202  1.1047 -0.1195 -0.7527
  110MOL    H3239490   0.128   1.959   7.249 -0.7335 -1.4077 -0.5256
  110MOL    H3339491   0.126   1.808   7.161  1.6286  0.3158 -1.6596
  110MOL    H3439492   0.150   1.947   7.068 -2.1925  0.2542 -0.5158
  110MOL    H3539493   0.316   1.890   7.390 -2.2211  1.5239 -1.9730
  110MOL    H3639494   0.341   1.737   7.323  1.6512 -0.6975 -0.7682
  110MOL    H3739495   0.479   1.842   7.336 -0.4223 -0.8522  0.4632
  110MOL    C3839496   0.613   1.760   6.958  0.2575 -0.2862 -0.4628
  110MOL    C3939497   0.595   1.613   6.993  1.0698 -0.1587 -0.2075
  110MOL    C4039498   0.684   1.573   7.117 -0.1919  0.4058 -0.5015
  110MOL    C4139499   0.651   1.445   7.190  0.2544  0.6881 -0.3556
  110MOL    C4239500   0.510   1.444   7.248  0.1993  0.3473  0.2125
  110MOL    C4339501   0.760   1.412   7.292  0.7371 -0.3230 -0.5734
  110MOL    H4439502   0.717   1.782   6.935  0.4949 -1.0247 -0.1077
  110MOL    H4539503   0.573   1.764   6.857  2.5885 -0.1021 -1.4126
  110MOL    H4639504   0.489   1.607   7.019  1.1660  0.8014  0.4237
  110MOL    H4739505   0.674   1.653   7.190 -0.4500 -1.5566  1.6916
  110MOL    H4839506   0.788   1.578   7.084 -0.2714 -2.1094 -1.2614
  110MOL    H4939507   0.661   1.372   7.110 -2.3628  0.9842 -1.0074
  110MOL    H5039508   0.501   1.355   7.310  0.1664  1.0383  1.2038
  110MOL    H5139509   0.480   1.534   7.302 -2.3111 -0.2941 -0.0274
  110MOL    H5239510   0.432   1.439   7.172 -1.7046  0.1558  2.1297
  110MOL    H5339511   0.738   1.310   7.325 -0.1777 -0.7076 -2.2647
  110MOL    H5439512   0.754   1.482   7.375 -1.1118 -1.6078  0.4175
  110MOL    H5539513   0.853   1.424   7.237  1.9153 -0.5021  1.3327
  110MOL    C5639514   0.642   1.529   6.873  0.7624 -0.3427  0.0439
  110MOL    C5739515   0.544   1.515   6.753  0.1862  1.2237  0.0698
  110MOL    C5839516   0.421   1.414   6.783  0.5753 -0.4036  0.0626
  110MOL    C5939517   0.437   1.273   6.843 -0.0556  0.1399  0.2577
  110MOL    C6039518   0.543   1.196   6.765  0.0072  0.3529 -0.5527
  110MOL    C6139519   0.298   1.205   6.836  0.1196 -0.0883 -0.2838
  110MOL    H6239520   0.679   1.431   6.904  0.0249 -0.9484 -0.9775
  110MOL    H6339521   0.736   1.577   6.846  0.6253 -0.4837 -0.6811
  110MOL    H6439522   0.488   1.609   6.749  0.2528  1.2041 -2.5089
  110MOL    H6539523   0.363   1.460   6.863 -0.2738 -1.4365  0.0412
  110MOL    H6639524   0.361   1.423   6.692 -0.8031  1.1747  1.0804
  110MOL    H6739525   0.469   1.288   6.946 -1.2030 -1.0301  0.8033
  110MOL    H6839526   0.641   1.234   6.794  0.2784 -0.3426 -0.5760
  110MOL    H6939527   0.539   1.210   6.657  1.1782 -2.0392 -0.9397
  110MOL    H7039528   0.534   1.093   6.798  1.1997  0.6742  0.8126
  110MOL    H7139529   0.226   1.272   6.881  0.7678 -0.3103  1.1313
  110MOL    H7239530   0.289   1.112   6.894 -0.8612 -1.1797 -2.1445
  110MOL    H7339531   0.280   1.176   6.733 -2.0011  0.6144 -0.1241
  110MOL    C7439532   0.622   1.491   6.623  0.0059  0.0382 -0.2231
  110MOL    C7539533   0.702   1.604   6.560 -0.2603  1.0147 -0.1514
  110MOL    C7639534   0.604   1.699   6.486 -0.6789 -0.1377 -0.7492
  110MOL    C7739535   0.651   1.845   6.475  0.0108 -0.4343  0.3985
  110MOL    C7839536   0.619   1.928   6.598 -0.1843  0.9521  0.1800
  110MOL    C7939537   0.594   1.916   6.346  0.2128  0.2145 -0.1882
  110MOL    H8039538   0.542   1.469   6.552 -0.2100  3.3498 -1.0819
  110MOL    H8139539   0.684   1.403   6.641  1.3942  1.4579  2.1202
  110MOL    H8239540   0.739   1.668   6.639  0.8554  0.2616 -0.0548
  110MOL    H8339541   0.582   1.663   6.386 -0.1341 -0.1646 -0.8652
  110MOL    H8439542   0.504   1.701   6.529  0.2032 -0.5041  1.3864
  110MOL    H8539543   0.757   1.848   6.449 -0.3303  0.1357 -1.0003
  110MOL    H8639544   0.648   1.878   6.690 -1.1165 -1.2780 -0.6991
  110MOL    H8739545   0.512   1.948   6.605 -0.2289  0.8980 -0.3008
  110MOL    H8839546   0.676   2.021   6.595 -0.5553  1.1352 -1.2664
  110MOL    H8939547   0.488   1.933   6.362  0.4095 -0.0444  1.5517
  110MOL    H9039548   0.643   2.013   6.331  0.1426  0.6587  2.2148
  110MOL    H9139549   0.606   1.851   6.260 -2.7173  0.6112 -0.9373
  110MOL    C9239550   0.813   1.556   6.467  0.9003 -0.4200 -0.3375
  110MOL    C9339551   0.961   1.572   6.521  0.5064  0.0475 -0.2618
  110MOL    C9439552   0.990   1.467   6.637 -0.2999  0.0642 -0.3500
  110MOL    C9539553   1.038   1.535   6.762  0.7182  0.1621  0.0830
  110MOL    C9639554   1.044   1.434   6.874  0.4250  0.2607 -0.2732
  110MOL    C9739555   1.175   1.599   6.750  0.0695 -0.3112  0.0236
  110MOL    H9839556   0.801   1.460   6.416 -1.1699  1.2321 -3.1332
  110MOL    H9939557   0.803   1.628   6.385 -1.5907 -1.2790 -0.8379
  110MOL   H10039558   0.958   1.671   6.566 -0.4145 -0.5613  1.0495
  110MOL   H10139559   1.059   1.391   6.602  0.7055  0.8196 -0.0378
  110MOL   H10239560   0.894   1.422   6.663  0.3101 -1.3496 -0.5389
  110MOL   H10339561   0.966   1.607   6.801 -0.5627  0.8554 -3.3481
  110MOL   H10439562   1.128   1.367   6.859 -2.7128 -3.3257 -2.5984
  110MOL   H10539563   0.948   1.385   6.892  1.0499 -0.8513  0.0295
  110MOL   H10639564   1.049   1.493   6.965  0.6031 -1.4160  0.8181
  110MOL   H10739565   1.154   1.686   6.689 -2.2315 -0.1482  1.0228
  110MOL   H10839566   1.242   1.531   6.696  1.3688  1.6860 -0.9398
  110MOL   H10939567   1.219   1.629   6.845  1.0650  0.2665 -0.6029
  110MOL   C11039568   1.067   1.568   6.410  0.5526 -0.8906 -0.4466
  110MOL   C11139569   1.086   1.692   6.324  0.7089  0.3471  0.5162
  110MOL   C11239570   1.122   1.817   6.409  0.4711 -0.8372  0.3108
  110MOL   C11339571   1.137   1.942   6.326 -0.4245 -0.5106 -0.1070
  110MOL   C11439572   1.230   2.047   6.399 -0.2753  0.7819 -0.2175
  110MOL   C11539573   1.007   2.003   6.284 -0.1510 -0.2627  0.0917
  110MOL   H11639574   1.053   1.479   6.349  0.8635 -0.2026 -1.5580
  110MOL   H11739575   1.165   1.564   6.457  0.5046 -2.1450 -0.4473
  110MOL   H11839576   0.990   1.702   6.274  1.0067 -0.2048 -0.1753
  110MOL   H11939577   1.215   1.797   6.462  2.2125  1.8702 -1.5947
  110MOL   H12039578   1.046   1.838   6.484 -0.5225 -1.3208 -0.5565
  110MOL   H12139579   1.181   1.923   6.228 -1.1898  0.9219 -0.7442
  110MOL   H12239580   1.249   2.122   6.322  1.6601  0.0939 -0.4435
  110MOL   H12339581   1.326   2.002   6.422 -0.1640  2.4470  2.6625
  110MOL   H12439582   1.193   2.100   6.486 -0.4839 -0.6540  0.5962
  110MOL   H12539583   0.955   1.946   6.208  0.3029  0.6838 -0.9428
  110MOL   H12639584   1.019   2.103   6.241 -0.5144 -0.4212 -0.3763
  110MOL   H12739585   0.945   2.009   6.374  0.7353 -2.4024  0.8570
  110MOL   C12839586   1.196   1.660   6.216  0.0537 -0.6295 -0.1021
  110MOL   C12939587   1.152   1.571   6.093 -0.1260 -0.3451  0.9447
  110MOL   C13039588   1.251   1.448   6.080  0.1373  0.5244  0.5052
  110MOL   C13139589   1.227   1.346   5.965  0.2041 -0.6163 -0.0412
  110MOL   C13239590   1.323   1.371   5.844 -0.2421  0.4027  0.2867
  110MOL   C13339591   1.246   1.207   6.020 -0.1338 -0.8148 -0.2174
  110MOL   H13439592   1.284   1.617   6.265  3.1141  2.1447 -2.9208
  110MOL   H13539593   1.248   1.747   6.176  0.1172  0.0798  1.4963
  110MOL   H13639594   1.056   1.520   6.104  1.3812 -2.6453  4.6405
  110MOL   H13739595   1.354   1.483   6.074  0.3265 -0.1451 -0.2002
  110MOL   H13839596   1.245   1.400   6.178  1.9013 -0.2656  0.2566
  110MOL   H13939597   1.122   1.357   5.937  0.9683  1.0903 -2.3742
  110MOL   H14039598   1.324   1.474   5.809 -1.9463  0.6246  0.8378
  110MOL   H14139599   1.294   1.297   5.770  2.6674 -1.7038  1.1703
  110MOL   H14239600   1.425   1.344   5.870 -0.0609 -0.4340 -1.2518
  110MOL   H14339601   1.209   1.128   5.956 -1.1016  1.3696 -2.4329
  110MOL   H14439602   1.355   1.206   6.027 -0.1778 -2.2193  0.3912
  110MOL   H14539603   1.203   1.194   6.119  0.8526  1.2202  0.5109
  110MOL   C14639604   1.138   1.648   5.963  0.0675 -0.9299  0.3935
  110MOL   C14739605   1.028   1.754   5.952  0.0738  0.1402  0.3886
  110MOL   C14839606   0.897   1.671   5.927  0.0325 -0.4222 -1.1958
  110MOL   C14939607   0.762   1.746   5.925 -0.0894  0.0417 -0.1268
  110MOL   C15039608   0.641   1.656   5.908  0.4006  0.1003 -0.3035
  110MOL   C15139609   0.740   1.849   6.044 -0.0873  0.5196 -0.4567
  110MOL   H15239610   1.128   1.584   5.875  1.3387 -1.5428  0.6809
  110MOL   H15339611   1.229   1.706   5.954 -1.6934  2.2136  2.1346
  110MOL   H15439612   1.021   1.807   6.047  1.3084  0.9453  0.0350
  110MOL   H15539613   0.910   1.603   5.843  0.7730  0.7695 -2.0625
  110MOL   H15639614   0.885   1.599   6.007  0.4002 -1.3720 -1.9938
  110MOL   H15739615   0.758   1.791   5.826 -1.5297 -2.0563 -1.0724
  110MOL   H15839616   0.641   1.603   5.812 -0.0226 -0.6559  0.1064
  110MOL   H15939617   0.551   1.718   5.908  0.6951  0.5956  2.4178
  110MOL   H16039618   0.633   1.575   5.980 -0.3367 -0.4205 -0.9614
  110MOL   H16139619   0.776   1.949   6.023  0.5138  0.1198 -1.3652
  110MOL   H16239620   0.774   1.811   6.140  2.0360 -0.3513 -1.5229
  110MOL   H16339621   0.633   1.865   6.057  0.1873  1.9695  0.1422
  110MOL   C16439622   1.055   1.851   5.833 -0.1798 -0.5467  0.4015
  110MOL   C16539623   1.188   1.939   5.817 -0.3768 -0.4164  0.5766
  110MOL   C16639624   1.223   1.960   5.668  0.5257  0.0558 -0.1672
  110MOL   C16739625   1.278   1.830   5.602  0.8650  0.2983 -0.3642
  110MOL   C16839626   1.199   1.786   5.485 -0.1564  0.7143  0.4926
  110MOL   C16939627   1.427   1.844   5.572 -1.0842  0.2690  0.4755
  110MOL   H17039628   1.044   1.781   5.751  0.2209  0.4335 -0.4919
  110MOL   H17139629   0.973   1.924   5.835  0.0821 -0.2305 -0.2472
  110MOL   H17239630   1.276   1.887   5.854  0.0216  0.5093  0.9446
  110MOL   H17339631   1.129   1.992   5.622  0.4601 -3.5207 -2.7774
  110MOL   H17439632   1.288   2.044   5.646 -2.5622  2.5257 -0.3226
  110MOL   H17539633   1.276   1.751   5.677  1.6384  2.1569  1.6429
  110MOL   H17639634   1.231   1.691   5.443  1.5329  1.5673 -0.2149
  110MOL   H17739635   1.209   1.850   5.397 -0.5900  1.0366  0.6757
  110MOL   H17839636   1.091   1.791   5.501 -0.1424  0.2023  0.7315
  110MOL   H17939637   1.446   1.877   5.470  2.0394  1.0122  1.2547
  110MOL   H18039638   1.481   1.750   5.583 -1.5173  0.1454  1.6771
  110MOL   H18139639   1.480   1.906   5.644  1.7953  0.5313 -1.7937
  110MOL   C18239640   1.174   2.073   5.900  0.2192 -0.2415  0.1675
  110MOL   C18339641   1.305   2.146   5.931  0.2325 -0.4576  0.0798
  110MOL   C18439642   1.283   2.296   5.958  0.0191  0.1024 -0.4888
  110MOL   C18539643   1.278   2.387   5.830  0.5228  0.2964 -0.2674
  110MOL   C18639644   1.206   2.522   5.863  0.5160 -0.2158 -0.1357
  110MOL   C18739645   1.417   2.417   5.772  0.3216 -0.4546  0.0881
  110MOL   H18839646   1.128   2.045   5.995  0.5789  0.7850  0.6589
  110MOL   H18939647   1.105   2.129   5.838 -0.9757 -1.0017  0.7928
  110MOL   H19039648   1.356   2.142   5.835  0.7857 -1.2193  0.4023
  110MOL   H19139649   1.356   2.340   6.026 -0.3151 -1.0200  0.5982
  110MOL   H19239650   1.189   2.310   6.011 -1.5517 -1.6061 -2.6971
  110MOL   H19339651   1.220   2.337   5.753 -0.4024 -0.0155  0.6182
  110MOL   H19439652   1.231   2.598   5.788  0.6237  1.5315  1.6467
  110MOL   H19539653   1.242   2.551   5.961 -0.6202 -1.1241  0.5675
  110MOL   H19639654   1.098   2.513   5.871  0.5984  0.1646  1.5045
  110MOL   H19739655   1.404   2.484   5.686 -1.3569  0.7307  1.2380
  110MOL   H19839656   1.473   2.327   5.749 -0.0353 -1.1556  1.9250
  110MOL   H19939657   1.476   2.467   5.849 -1.2364 -0.4765  1.3121
  110MOL   C20039658   1.385   2.079   6.041  1.2332 -0.0311 -0.4118
  110MOL   C20139659   1.538   2.106   6.049  0.1556 -0.3804 -0.3125
  110MOL   C20239660   1.585   2.241   6.114  0.1462  0.4054 -0.1003
  110MOL   C20339661   1.514   2.292   6.244 -0.2514 -0.0459 -0.4081
  110MOL   C20439662   1.552   2.204   6.367 -0.3340 -0.1211 -0.4905
  110MOL   C20539663   1.562   2.432   6.275  0.2457  0.1531 -0.1165
  110MOL   H20639664   1.370   1.972   6.025 -1.2295  0.4096 -1.3056
  110MOL   H20739665   1.332   2.089   6.136  0.6653 -0.0970 -0.7217
  110MOL   H20839666   1.572   2.027   6.116  0.3543  0.9542  1.2098
  110MOL   H20939667   1.691   2.247   6.138  0.4960  0.4303 -1.5977
  110MOL   H21039668   1.578   2.324   6.044 -1.1381 -0.0433 -0.5223
  110MOL   H21139669   1.406   2.282   6.236 -0.1781 -2.9114  1.5778
  110MOL   H21239670   1.517   2.101   6.364 -3.0610  0.7393  0.1664
  110MOL   H21339671   1.518   2.258   6.456 -1.4692 -3.0512  0.9038
  110MOL   H21439672   1.658   2.206   6.393 -0.7282 -0.5595  1.2668
  110MOL   H21539673   1.669   2.444   6.292  0.0815 -0.1876  1.2493
  110MOL   H21639674   1.529   2.475   6.370 -2.9369  2.4455 -2.1449
  110MOL   H21739675   1.525   2.514   6.213  0.6325  1.1310  0.9127
  110MOL   C21839676   1.615   2.097   5.912 -0.2696 -0.4241 -0.6286
  110MOL   C21939677   1.758   2.028   5.918  1.0947 -0.0552 -0.4467
  110MOL   C22039678   1.836   2.045   5.784  0.5355 -0.4059  0.1227
  110MOL   C22139679   1.931   2.164   5.783 -0.0230 -0.3940  0.0069
  110MOL   C22239680   1.966   2.207   5.638  0.3870 -0.4459  0.2504
  110MOL   C22339681   1.887   2.300   5.849 -0.4125 -0.4146  0.0358
  110MOL   H22439682   1.559   2.036   5.841  1.0445 -0.6490 -1.4986
  110MOL   H22539683   1.625   2.196   5.867  0.3410  0.3926  1.2896
  110MOL   H22639684   1.805   2.068   6.008  0.4676 -1.2657  0.4297
  110MOL   H22739685   1.890   1.952   5.766  2.5071  0.3474  1.9067
  110MOL   H22839686   1.768   2.050   5.699  0.9695 -3.7572 -0.4985
  110MOL   H22939687   2.028   2.134   5.824 -0.6323 -1.0758  0.9614
  110MOL   H23039688   1.883   2.254   5.584  1.3199  0.9098 -0.0114
  110MOL   H23139689   2.044   2.283   5.632  0.1984 -0.3328 -0.8092
  110MOL   H23239690   1.994   2.120   5.580 -0.6999 -0.0311 -0.9219
  110MOL   H23339691   1.958   2.383   5.848 -0.7396 -0.1215 -1.8715
  110MOL   H23439692   1.789   2.330   5.812 -1.2907 -0.8730  1.9046
  110MOL   H23539693   1.873   2.274   5.954 -0.7009  1.6220  0.5073
  110MOL   C23639694   1.738   1.881   5.963  0.0679 -0.1056  0.5369
  110MOL   C23739695   1.864   1.802   6.002 -0.5193  0.3910  0.0620
  110MOL   C23839696   1.828   1.647   6.003 -0.0861 -0.0384 -0.0620
  110MOL   C23939697   1.801   1.572   5.870 -0.2531 -0.1388  1.0113
  110MOL   C24039698   1.913   1.470   5.838 -0.0255  0.0698 -0.3054
  110MOL   C24139699   1.666   1.500   5.857 -0.2520  0.2580  0.5815
  110MOL   H24239700   1.692   1.828   5.879  1.3422 -0.5727  0.1331
  110MOL   H24339701   1.668   1.871   6.046 -0.0578  0.6992  0.5333
  110MOL   H24439702   1.947   1.822   5.936 -0.3272 -0.4339  0.0484
  110MOL   H24539703   1.754   1.622   6.079  2.2783 -2.8045  1.4183
  110MOL   H24639704   1.910   1.589   6.046 -1.8302 -2.0993  0.5522
  110MOL   H24739705   1.802   1.648   5.793  0.9817 -0.8293  0.3270
  110MOL   H24839706   2.008   1.521   5.855 -0.4647  1.0599 -0.7686
  110MOL   H24939707   1.900   1.439   5.734  0.4763  0.7359 -0.5696
  110MOL   H25039708   1.906   1.397   5.919 -1.4325 -1.1173 -1.4809
  110MOL   H25139709   1.636   1.430   5.936  0.7422  0.5530  1.2320
  110MOL   H25239710   1.669   1.445   5.763 -3.0944  3.0546 -1.2286
  110MOL   H25339711   1.592   1.576   5.836  0.0808  0.2853 -0.5078
  110MOL   C25439712   1.922   1.845   6.141  0.2177 -0.0570 -0.2258
  110MOL   C25539713   2.029   1.953   6.130 -0.3410  0.4037 -0.0129
  110MOL   C25639714   2.004   2.047   6.249 -0.4415  0.0017 -0.5390
  110MOL   C25739715   2.092   2.169   6.268  0.3351  0.0426 -0.1490
  110MOL   C25839716   2.029   2.255   6.384 -0.1107  0.4973 -0.3985
  110MOL   C25939717   2.122   2.250   6.140  0.9003  0.4021  0.7878
  110MOL   H26039718   1.839   1.865   6.208  0.3359 -2.9713  0.8479
  110MOL   H26139719   1.969   1.759   6.188 -0.4695 -0.0268  0.5264
  110MOL   H26239720   2.029   2.002   6.033  0.9330 -0.6455 -0.5555
  110MOL   H26339721   2.008   1.991   6.342  1.1882 -1.1877 -1.3026
  110MOL   H26439722   1.903   2.088   6.245 -0.6479 -0.3309  1.2501
  110MOL   H26539723   2.188   2.133   6.305 -1.5872 -3.4651  1.5622
  110MOL   H26639724   2.110   2.319   6.418 -1.2474  0.7393  1.9661
  110MOL   H26739725   2.010   2.190   6.469  0.0120 -0.6958 -1.2669
  110MOL   H26839726   1.936   2.302   6.350 -0.9762 -0.5285  0.4903
  110MOL   H26939727   2.207   2.311   6.169  0.9114  0.7113  0.1140
  110MOL   H27039728   2.170   2.193   6.061 -0.6692  3.9844 -2.9140
  110MOL   H27139729   2.030   2.290   6.097  0.5195 -1.2191  0.0508
  110MOL   C27239730   2.173   1.896   6.147 -0.4218  0.4350  0.0193
  110MOL   C27339731   2.225   1.808   6.036 -0.3934 -0.4776  0.7155
  110MOL   C27439732   2.233   1.875   5.898 -0.1858 -0.3801  0.5406
  110MOL   C27539733   2.285   1.795   5.779 -0.0630  0.0797 -0.4143
  110MOL   C27639734   2.303   1.887   5.654 -1.0651 -0.4420 -0.0508
  110MOL   C27739735   2.202   1.674   5.748 -0.2470 -0.2140 -0.2041
  110MOL   H27839736   2.241   1.982   6.144  0.3209 -0.1650 -0.6589
  110MOL   H27939737   2.186   1.853   6.246 -0.7722 -0.2476 -0.2275
  110MOL   H28039738   2.156   1.725   6.018 -3.0092  1.5092  1.4333
  110MOL   H28139739   2.307   1.954   5.912  0.8135 -1.3206  0.6434
  110MOL   H28239740   2.144   1.936   5.880  0.7694  1.0640  0.5706
  110MOL   H28339741   2.388   1.763   5.794 -0.2641 -0.2190  0.3369
  110MOL   H28439742   2.368   1.839   5.581  0.2244  0.2778  0.6137
  110MOL   H28539743   2.205   1.917   5.616 -0.8878 -0.4489 -0.5168
  110MOL   H28639744   2.340   1.988   5.675  1.0288 -1.2418  0.2421
  110MOL   H28739745   2.099   1.703   5.726 -0.1027 -0.9776 -1.9607
  110MOL   H28839746   2.235   1.620   5.659  0.8426 -2.4310  1.4838
  110MOL   H28939747   2.210   1.593   5.820  1.2654 -0.2669 -0.4042
  110MOL   C29039748   2.361   1.740   6.069 -0.2087 -0.2460 -0.3798
  110MOL   C29139749   2.372   1.660   6.199 -0.1959  0.1932  0.2758
  110MOL   C29239750   2.436   1.524   6.184 -0.8323  0.6610 -0.4933
  110MOL   C29339751   2.360   1.429   6.085  0.2365  0.6881  0.2521
  110MOL   C29439752   2.429   1.295   6.082 -0.1032 -0.3069 -0.0386
  110MOL   C29539753   2.213   1.415   6.107 -0.0578  0.3042 -0.0049
  110MOL   H29639754   2.396   1.679   5.986  2.1842  0.5295  0.0164
  110MOL   H29739755   2.438   1.816   6.061 -0.2823 -0.3011 -1.7124
  110MOL   H29839756   2.269   1.631   6.219 -0.8986  1.2063 -1.6713
  110MOL   H29939757   2.439   1.473   6.280 -2.3334 -1.1397 -1.3660
  110MOL   H30039758   2.541   1.539   6.159 -0.9675 -0.2457 -1.6627
  110MOL   H30139759   2.370   1.461   5.981 -2.2867 -1.5212 -0.7656
  110MOL   H30239760   2.420   1.222   6.163 -0.0051  0.8508  1.0267
  110MOL   H30339761   2.536   1.313   6.072 -0.3095  0.6074 -0.6553
  110MOL   H30439762   2.399   1.252   5.987  1.6758  1.2207 -1.3075
  110MOL   H30539763   2.177   1.386   6.205  2.4302  1.3061  1.2266
  110MOL   H30639764   2.167   1.349   6.033 -0.3543  0.2463  0.2294
  110MOL   H30739765   2.161   1.510   6.091 -2.9122 -1.4158 -1.4189
  110MOL   C30839766   2.445   1.745   6.311  0.4745  0.5655 -1.0006
  110MOL   C30939767   2.407   1.714   6.455  0.6254  0.8459 -0.3711
  110MOL   C31039768   2.445   1.582   6.513 -0.2872  0.3912 -0.1273
  110MOL   C31139769   2.335   1.478   6.535  0.4044 -0.1471  0.6735
  110MOL   C31239770   2.393   1.339   6.534 -0.0701  0.6578 -0.1217
  110MOL   C31339771   2.260   1.494   6.664 -0.6860  0.7567 -0.2236
  110MOL   H31439772   2.553   1.751   6.293  0.3349 -0.4441 -2.1812
  110MOL   H31539773   2.422   1.850   6.297  1.1259  1.0028  0.9589
  110MOL   H31639774   2.298   1.713   6.461  0.6655 -2.4456  0.7668
  110MOL   H31739775   2.484   1.594   6.613 -1.3871 -0.9297  0.4829
  110MOL   H31839776   2.527   1.543   6.453 -0.7047 -0.9584  0.1518
  110MOL   H31939777   2.258   1.493   6.458  1.4959  0.2571 -0.3509
  110MOL   H32039778   2.312   1.269   6.553 -0.7502  1.3389 -0.4577
  110MOL   H32139779   2.476   1.318   6.601  1.0939  2.5572 -0.9126
  110MOL   H32239780   2.436   1.314   6.437 -1.5186 -0.6664 -0.4387
  110MOL   H32339781   2.175   1.426   6.667  0.2362 -0.4180 -0.3983
  110MOL   H32439782   2.315   1.453   6.748 -2.6087  0.9694  1.1924
  110MOL   H32539783   2.230   1.598   6.683  0.0945  0.6585  1.6337
  110MOL   C32639784   2.459   1.829   6.545  0.3522 -0.1063  0.4342
  110MOL   C32739785   2.365   1.958   6.527  0.2101 -0.0280 -0.4929
  110MOL   C32839786   2.458   2.081   6.542 -0.1501 -0.0756  0.4642
  110MOL   C32939787   2.556   2.103   6.428  0.1520  0.5752 -0.6167
  110MOL   C33039788   2.483   2.156   6.311 -0.3057 -0.0281 -0.0169
  110MOL   C33139789   2.673   2.195   6.459  0.3765 -0.2058 -0.9241
  110MOL   H33239790   2.563   1.840   6.516  0.7116 -1.4223  1.1885
  110MOL   H33339791   2.469   1.804   6.650  0.1837  1.7080  0.9045
  110MOL   H33439792   2.324   1.969   6.427 -1.6027 -0.8604  0.1274
  110MOL   H33539793   2.390   2.164   6.563  1.1127  0.9451  0.5306
  110MOL   H33639794   2.509   2.066   6.637 -1.2513  1.4465  1.3106
  110MOL   H33739795   2.605   2.012   6.391 -1.0342  0.1967 -1.2650
  110MOL   H33839796   2.404   2.228   6.332 -1.2961 -0.6405 -1.5484
  110MOL   H33939797   2.435   2.073   6.260  0.0105 -0.8491  1.0314
  110MOL   H34039798   2.548   2.206   6.238 -1.1224  0.5324 -0.3701
  110MOL   H34139799   2.725   2.175   6.552  2.0991  0.5903 -1.6881
  110MOL   H34239800   2.755   2.172   6.391  1.0883 -0.1288 -0.0982
  110MOL   H34339801   2.637   2.297   6.442 -1.7977 -0.0898  3.7119
  110MOL   C34439802   2.234   1.942   6.614 -0.4134 -0.0755  0.4465
  110MOL   C34539803   2.244   1.908   6.769  0.3718  0.7431  0.1542
  110MOL   C34639804   2.124   1.946   6.847 -0.0494  0.6737 -0.5487
  110MOL   C34739805   2.087   1.851   6.965  0.2158  1.3427 -0.3007
  110MOL   C34839806   1.963   1.885   7.046 -0.2002  0.0339  0.1130
  110MOL   C34939807   2.209   1.842   7.058 -0.5268 -0.0237 -0.3081
  110MOL   H35039808   2.165   1.870   6.571 -0.4565 -0.2590  0.8225
  110MOL   H35139809   2.182   2.039   6.614  0.3255  0.3206  0.1929
  110MOL   H35239810   2.329   1.960   6.814  1.3433  0.6534 -1.5644
  110MOL   H35339811   2.138   2.044   6.892  0.4822 -0.1141  1.0614
  110MOL   H35439812   2.034   1.955   6.786  0.7636  3.0815 -1.4578
  110MOL   H35539813   2.076   1.748   6.929  1.1285  0.7189  1.1353
  110MOL   H35639814   1.945   1.823   7.134 -0.2810 -1.1025 -0.6984
  110MOL   H35739815   1.961   1.988   7.080 -0.3252  0.2496 -0.5612
  110MOL   H35839816   1.875   1.870   6.984 -0.2057  0.4514  0.0214
  110MOL   H35939817   2.300   1.820   7.002 -2.8007 -0.0651 -4.1865
  110MOL   H36039818   2.193   1.767   7.135  0.3695 -0.5661 -0.6383
  110MOL   H36139819   2.222   1.934   7.114  1.1962  1.0258 -2.3505
  110MOL   H36239820   2.268   1.801   6.766  1.3175  0.9812 -0.9965
  111MOL     C139821   3.685   3.182   3.663 -0.2161  0.1506  0.0729
  111MOL     C239822   3.588   3.242   3.558 -0.0185 -0.2324 -0.1249
  111MOL     C339823   3.668   3.367   3.507 -0.1144 -0.5229 -0.0393
  111MOL     C439824   3.623   3.426   3.366 -0.3881  0.0306 -0.1348
  111MOL     C539825   3.735   3.471   3.273  0.4295  0.3951  0.0117
  111MOL     C639826   3.525   3.537   3.380  0.2950  0.7310  0.4938
  111MOL     H739827   3.676   3.238   3.757  0.6420 -0.3490  0.4534
  111MOL     H839828   3.650   3.082   3.686 -2.9112  0.8257 -0.8723
  111MOL     H939829   3.571   3.169   3.479 -0.9339  1.5918 -1.6803
  111MOL    H1039830   3.675   3.446   3.581  2.3904 -0.8649  0.1339
  111MOL    H1139831   3.773   3.341   3.492 -0.1256 -0.4574 -0.2354
  111MOL    H1239832   3.579   3.338   3.318 -1.1257  1.0564 -1.3764
  111MOL    H1339833   3.821   3.404   3.279 -0.2320 -0.3695  1.0766
  111MOL    H1439834   3.713   3.478   3.166 -1.8689  0.7263  0.4858
  111MOL    H1539835   3.783   3.564   3.301 -2.4344  1.1592  2.6060
  111MOL    H1639836   3.459   3.548   3.294 -0.6217  0.7196  1.1886
  111MOL    H1739837   3.579   3.630   3.395 -0.5376  1.3780 -0.4765
  111MOL    H1839838   3.479   3.517   3.476 -0.5327  2.8313  0.5506
  111MOL    H1939839   3.789   3.169   3.635 -0.4168 -1.1944 -0.0362
  111MOL    C2039840   3.449   3.276   3.616 -0.0175 -0.6613  0.8767
  111MOL    C2139841   3.376   3.160   3.690  0.2935  0.7042 -0.3480
  111MOL    C2239842   3.238   3.213   3.732  0.3189  0.1358  0.5274
  111MOL    C2339843   3.222   3.327   3.834  0.1226  0.6385  0.6795
  111MOL    C2439844   3.079   3.336   3.889  0.4096  1.0337  0.1887
  111MOL    C2539845   3.315   3.306   3.955  0.1469 -0.0482  0.8036
  111MOL    H2639846   3.457   3.366   3.677 -0.3075  0.0175 -0.0910
  111MOL    H2739847   3.392   3.310   3.530  0.8598  0.2660  0.6523
  111MOL    H2839848   3.428   3.130   3.782 -0.4906  3.8371  1.1631
  111MOL    H2939849   3.176   3.131   3.769 -0.3863 -0.0335 -0.9787
  111MOL    H3039850   3.183   3.248   3.645 -0.9066 -2.5500  0.1647
  111MOL    H3139851   3.241   3.425   3.791  0.2943  0.8114  1.1493
  111MOL    H3239852   3.006   3.359   3.811 -0.0648 -2.0148 -0.3286
  111MOL    H3339853   3.075   3.413   3.966 -1.1248 -1.1373  2.3491
  111MOL    H3439854   3.033   3.247   3.931 -0.4823  0.8868 -1.0763
  111MOL    H3539855   3.417   3.305   3.918 -0.6864  0.5111 -1.6120
  111MOL    H3639856   3.291   3.371   4.039  0.7993  1.9600 -0.5282
  111MOL    H3739857   3.298   3.205   3.991  4.3709 -0.9790  0.4688
  111MOL    C3839858   3.361   3.048   3.587 -0.4555 -0.9246 -0.5710
  111MOL    C3939859   3.307   2.906   3.618  0.7430  0.6491  0.3848
  111MOL    C4039860   3.418   2.812   3.672  0.1649  0.1093 -0.4071
  111MOL    C4139861   3.396   2.657   3.683  0.0241  0.8302  0.2565
  111MOL    C4239862   3.274   2.629   3.771 -0.1030  0.0550 -0.4335
  111MOL    C4339863   3.525   2.580   3.731  0.2553 -0.2315 -0.7290
  111MOL    H4439864   3.460   3.026   3.546  0.0540  1.2947 -0.5745
  111MOL    H4539865   3.311   3.078   3.496  0.1513 -0.8786 -0.8933
  111MOL    H4639866   3.239   2.922   3.702 -1.1565  0.7068 -1.1140
  111MOL    H4739867   3.432   2.847   3.774  0.0057  2.3166 -1.1049
  111MOL    H4839868   3.509   2.821   3.613 -0.3170 -1.4112 -1.4225
  111MOL    H4939869   3.357   2.610   3.592  3.3262  0.4663 -1.0478
  111MOL    H5039870   3.288   2.669   3.871 -0.5987 -0.4091 -0.1736
  111MOL    H5139871   3.178   2.651   3.725 -0.4430 -0.4400  0.0248
  111MOL    H5239872   3.267   2.520   3.780 -0.6987  0.1243 -0.0294
  111MOL    H5339873   3.551   2.611   3.832 -0.0644  0.7626 -0.9369
  111MOL    H5439874   3.610   2.586   3.663 -0.5067  3.0983 -1.4854
  111MOL    H5539875   3.511   2.472   3.737 -0.3089 -0.1102  0.1714
  111MOL    C5639876   3.234   2.846   3.488 -0.0098 -0.1646  0.2961
  111MOL    C5739877   3.101   2.912   3.452  0.4744  0.4107  0.1620
  111MOL    C5839878   2.991   2.869   3.557 -0.2620  0.4054  0.0628
  111MOL    C5939879   2.856   2.942   3.538  0.5326  0.0677 -0.6092
  111MOL    C6039880   2.871   3.095   3.579  0.2854 -0.5940  0.4692
  111MOL    C6139881   2.750   2.877   3.627 -0.3027  1.3232 -0.3002
  111MOL    H6239882   3.213   2.740   3.502 -1.4789  0.3226  1.9253
  111MOL    H6339883   3.299   2.857   3.401 -0.6379  0.6968 -0.0679
  111MOL    H6439884   3.107   3.017   3.478 -1.3590 -0.1532  3.1287
  111MOL    H6539885   2.979   2.760   3.556 -0.6071  0.4456 -1.8707
  111MOL    H6639886   3.024   2.879   3.660  2.1755 -2.4018 -0.3638
  111MOL    H6739887   2.833   2.929   3.432 -0.1215  0.8165 -0.5619
  111MOL    H6839888   2.775   3.146   3.569  1.5800  1.3933 -2.6485
  111MOL    H6939889   2.945   3.149   3.520 -0.8572  0.9078  0.3779
  111MOL    H7039890   2.894   3.107   3.685  1.2827  0.6108  0.1256
  111MOL    H7139891   2.725   2.772   3.612  2.3822  0.5582  0.4055
  111MOL    H7239892   2.655   2.919   3.592 -1.6164 -0.8633  0.5726
  111MOL    H7339893   2.765   2.889   3.734 -0.6374 -0.4951 -0.0408
  111MOL    C7439894   3.063   2.889   3.305 -0.8404 -0.7835  0.5112
  111MOL    C7539895   3.052   3.022   3.229 -0.1293 -0.0690 -0.2773
  111MOL    C7639896   2.980   2.999   3.098  0.2396 -0.6629 -0.1789
  111MOL    C7739897   2.827   2.996   3.115 -0.3599  0.3687 -0.6261
  111MOL    C7839898   2.771   2.932   2.989 -0.0154  0.9139  0.5094
  111MOL    C7939899   2.761   3.131   3.142 -0.0470  0.0530 -0.6717
  111MOL    H8039900   2.970   2.833   3.292 -1.7417  0.8900 -0.3537
  111MOL    H8139901   3.143   2.837   3.253 -1.7829 -1.8029  0.0580
  111MOL    H8239902   2.983   3.082   3.289 -1.4181 -2.2364  0.4511
  111MOL    H8339903   2.999   3.077   3.024 -1.8826  0.6072  0.5420
  111MOL    H8439904   3.011   2.907   3.050 -0.5619 -0.3730 -1.2715
  111MOL    H8539905   2.809   2.934   3.203  1.3953  0.0409 -0.4804
  111MOL    H8639906   2.814   2.833   2.981 -0.9050  0.7305 -2.5679
  111MOL    H8739907   2.794   2.984   2.896  0.3614  1.3747  0.8555
  111MOL    H8839908   2.664   2.908   2.996 -0.0689  0.1052 -2.7158
  111MOL    H8939909   2.653   3.119   3.134 -0.0336 -1.6252  1.2882
  111MOL    H9039910   2.771   3.166   3.244 -0.3994  0.1501 -0.6710
  111MOL    H9139911   2.792   3.205   3.068  3.3044 -0.6760 -0.1013
  111MOL    C9239912   3.186   3.095   3.208 -0.0425 -0.8031  0.2686
  111MOL    C9339913   3.167   3.257   3.195  0.5743  0.0280 -0.2943
  111MOL    C9439914   3.154   3.314   3.335 -0.4553 -0.3580 -0.1743
  111MOL    C9539915   3.105   3.466   3.349 -0.0169 -0.2020  0.2590
  111MOL    C9639916   2.957   3.472   3.320 -0.1643  0.0968 -0.0223
  111MOL    C9739917   3.135   3.511   3.496  0.0922 -0.5826  0.2911
  111MOL    H9839918   3.251   3.069   3.292  0.5070  0.8432  0.3748
  111MOL    H9939919   3.238   3.052   3.123 -2.0747 -0.9590 -0.9195
  111MOL   H10039920   3.074   3.272   3.141  1.2919  2.5707 -0.8619
  111MOL   H10139921   3.243   3.291   3.393  0.4660 -0.6464 -1.6629
  111MOL   H10239922   3.068   3.269   3.383  0.8693 -1.6455  1.0446
  111MOL   H10339923   3.166   3.538   3.293 -0.7118 -0.1470 -0.4293
  111MOL   H10439924   2.899   3.393   3.368  0.6802 -0.2806  0.3881
  111MOL   H10539925   2.931   3.471   3.214 -0.6852 -1.0679  0.1147
  111MOL   H10639926   2.900   3.559   3.352 -0.1964  0.9172 -2.2218
  111MOL   H10739927   3.242   3.510   3.514 -0.0613  1.4178  1.5386
  111MOL   H10839928   3.078   3.446   3.563 -0.9611 -0.2257 -0.2418
  111MOL   H10939929   3.102   3.615   3.507  0.4269 -0.4790  0.3285
  111MOL   C11039930   3.285   3.320   3.115  0.3009  0.8446  0.5034
  111MOL   C11139931   3.279   3.297   2.959  0.2602 -0.3805  0.3644
  111MOL   C11239932   3.194   3.409   2.892 -0.3796  0.0500 -0.6879
  111MOL   C11339933   3.155   3.377   2.756 -0.1485 -0.6044 -0.5033
  111MOL   C11439934   3.145   3.507   2.667  0.1906 -0.7268 -0.9835
  111MOL   C11539935   3.030   3.290   2.751 -0.1760  0.3666 -1.1256
  111MOL   H11639936   3.375   3.275   3.157  0.7903 -0.1694 -1.6004
  111MOL   H11739937   3.288   3.428   3.132 -0.5815  0.7243  1.5438
  111MOL   H11839938   3.224   3.205   2.938 -1.1054  0.3897  0.5000
  111MOL   H11939939   3.256   3.498   2.902  0.0044 -0.4579  1.9688
  111MOL   H12039940   3.105   3.425   2.953  0.5073  0.5332  0.4819
  111MOL   H12139941   3.235   3.322   2.706 -1.6345  0.1522 -3.7890
  111MOL   H12239942   3.046   3.550   2.683  0.4280 -0.7471  0.6864
  111MOL   H12339943   3.165   3.486   2.562 -2.0882 -1.1395 -1.3566
  111MOL   H12439944   3.220   3.581   2.694 -1.8277  1.1218 -0.3227
  111MOL   H12539945   3.011   3.272   2.645  0.6361  0.5601 -1.3107
  111MOL   H12639946   2.952   3.344   2.803 -1.4654 -0.9708 -1.6452
  111MOL   H12739947   3.051   3.188   2.785 -0.0405  1.4684  2.2502
  111MOL   C12839948   3.422   3.291   2.900 -0.4507  0.3940  0.1441
  111MOL   C12939949   3.484   3.145   2.910 -0.0317  0.4850 -0.1514
  111MOL   C13039950   3.642   3.141   2.914  0.4364 -0.5219  0.0655
  111MOL   C13139951   3.712   3.191   3.042  0.4844 -0.2781 -0.8183
  111MOL   C13239952   3.721   3.088   3.157 -0.0714  0.2663 -0.0913
  111MOL   C13339953   3.847   3.246   3.007  0.4791  0.1133  0.0091
  111MOL   H13439954   3.489   3.362   2.950  0.1024  0.2690 -0.4106
  111MOL   H13539955   3.425   3.328   2.798 -0.7626 -0.2373 -0.0932
  111MOL   H13639956   3.462   3.101   3.007 -0.8272 -2.1778 -1.4835
  111MOL   H13739957   3.674   3.039   2.895  0.5566 -0.7792  1.5298
  111MOL   H13839958   3.666   3.205   2.830 -0.3306 -0.0390  0.2034
  111MOL   H13939959   3.660   3.279   3.079  1.2862 -0.6435  1.2748
  111MOL   H14039960   3.792   3.113   3.236 -0.0839  0.7203 -0.2228
  111MOL   H14139961   3.766   3.003   3.104 -0.2749  0.5564 -0.7342
  111MOL   H14239962   3.622   3.069   3.198 -0.6242  2.5278 -0.3017
  111MOL   H14339963   3.889   3.312   3.083  0.8042  1.7390 -1.5215
  111MOL   H14439964   3.910   3.165   2.971 -0.4312 -0.4290 -0.3842
  111MOL   H14539965   3.846   3.307   2.916 -0.3542 -0.7831 -0.5926
  111MOL   C14639966   3.422   3.064   2.794 -0.6565  0.2050  0.1198
  111MOL   C14739967   3.434   2.919   2.810 -0.3400 -0.9636 -0.2459
  111MOL   C14839968   3.427   2.859   2.673 -0.6590  0.4536  0.5268
  111MOL   C14939969   3.291   2.854   2.601 -0.4864  0.4811 -0.2139
  111MOL   C15039970   3.285   2.934   2.475  0.0136 -0.1468  0.1694
  111MOL   C15139971   3.265   2.704   2.566  0.3137  0.0851  0.1481
  111MOL   H15239972   3.481   3.095   2.707 -2.0108  2.0750 -0.1710
  111MOL   H15339973   3.321   3.101   2.776 -0.5545  0.5980  0.3316
  111MOL   H15439974   3.524   2.886   2.863 -0.4682  2.2776  2.1504
  111MOL   H15539975   3.495   2.904   2.601 -1.6425 -0.9940 -1.3532
  111MOL   H15639976   3.467   2.758   2.684 -0.2392  0.5115 -0.4437
  111MOL   H15739977   3.211   2.886   2.668  1.0082  0.8541  1.4291
  111MOL   H15839978   3.301   3.040   2.498 -0.4268 -0.2021  0.7169
  111MOL   H15939979   3.187   2.926   2.428  1.0061 -0.2732 -1.9318
  111MOL   H16039980   3.371   2.914   2.410  0.8096 -1.0201  1.4819
  111MOL   H16139981   3.274   2.631   2.648  0.9064 -2.0795 -1.7815
  111MOL   H16239982   3.337   2.675   2.489 -0.1275 -0.4958 -0.0502
  111MOL   H16339983   3.166   2.698   2.521  0.1617 -1.4005  0.6252
  111MOL   C16439984   3.327   2.871   2.913 -0.3726 -0.3098  0.0471
  111MOL   C16539985   3.319   2.720   2.956 -0.2048 -0.3332  0.0417
  111MOL   C16639986   3.381   2.704   3.100 -0.0084  0.5113  0.0890
  111MOL   C16739987   3.529   2.734   3.124 -0.0983 -0.5352 -0.2592
  111MOL   C16839988   3.567   2.706   3.275  0.3989 -0.0608 -0.7554
  111MOL   C16939989   3.626   2.647   3.023 -0.7450 -0.2945  0.2936
  111MOL   H17039990   3.349   2.925   3.005 -0.0846 -0.3247 -0.0134
  111MOL   H17139991   3.231   2.910   2.878  0.2240  0.1337 -1.1448
  111MOL   H17239992   3.370   2.660   2.880 -0.1891 -2.9559  2.0491
  111MOL   H17339993   3.321   2.770   3.163  0.0207  0.0824  0.5743
  111MOL   H17439994   3.360   2.603   3.135  1.5872 -0.1294 -0.7410
  111MOL   H17539995   3.543   2.840   3.099 -0.2617 -0.3175  0.5675
  111MOL   H17639996   3.478   2.713   3.337  2.2410  0.2620  1.9919
  111MOL   H17739997   3.643   2.771   3.320  0.6756  0.9876 -2.6882
  111MOL   H17839998   3.604   2.604   3.289  0.8528  0.2369  0.2959
  111MOL   H17939999   3.632   2.692   2.924  1.2373 -3.9361 -1.3530
  111MOL   H18040000   3.595   2.542   3.018 -0.2962 -0.4715  1.1422
  111MOL   H18140001   3.730   2.632   3.053 -0.7265 -1.8828 -0.4896
  111MOL   C18240002   3.172   2.676   2.936  0.2504 -0.3315 -0.5228
  111MOL   C18340003   3.140   2.526   2.967  0.1130 -0.1036 -0.7369
  111MOL   C18440004   2.985   2.491   2.967 -0.3284  0.4264 -0.0729
  111MOL   C18540005   2.908   2.487   2.830  0.1115 -0.0981  0.3174
  111MOL   C18640006   2.783   2.394   2.853  0.0930  0.8378 -0.7487
  111MOL   C18740007   2.858   2.629   2.792  0.2500  0.2189  0.6577
  111MOL   H18840008   3.154   2.685   2.828  0.4965 -1.6341 -0.6795
  111MOL   H18940009   3.107   2.746   2.988  0.9097 -1.5597  2.0001
  111MOL   H19040010   3.163   2.508   3.072  2.0644  1.6796 -0.8147
  111MOL   H19140011   2.938   2.553   3.043  0.2781  0.0809  0.5879
  111MOL   H19240012   2.982   2.387   3.000  3.0114 -0.2620 -1.7760
  111MOL   H19340013   2.972   2.425   2.766 -0.0766  1.2260 -1.1853
  111MOL   H19440014   2.806   2.296   2.894 -0.2442  1.3157  0.6095
  111MOL   H19540015   2.728   2.379   2.761  0.1055  0.4336 -0.6890
  111MOL   H19640016   2.726   2.453   2.925  0.0720  2.7410 -2.2804
  111MOL   H19740017   2.774   2.656   2.856 -1.1567  0.1569 -1.1447
  111MOL   H19840018   2.828   2.636   2.688 -0.2487 -1.4823  0.6716
  111MOL   H19940019   2.933   2.708   2.800 -2.7551  3.0211  2.2727
  111MOL   C20040020   3.223   2.426   2.892  0.3878 -0.4664  0.5071
  111MOL   C20140021   3.231   2.278   2.945 -0.1454 -0.7634  0.4574
  111MOL   C20240022   3.314   2.284   3.077  0.5747 -0.3273 -0.1548
  111MOL   C20340023   3.282   2.173   3.185 -0.2406  0.1282  0.2941
  111MOL   C20440024   3.383   2.184   3.301  1.1458 -0.1942  0.5909
  111MOL   C20540025   3.134   2.165   3.235  0.5760  0.3665 -0.1435
  111MOL   H20640026   3.324   2.466   2.885 -0.1695  0.6840 -1.5453
  111MOL   H20740027   3.182   2.431   2.791  0.1152 -3.3860  0.4186
  111MOL   H20840028   3.127   2.244   2.946 -0.6855  0.8290 -0.6975
  111MOL   H20940029   3.420   2.276   3.054  0.8387 -0.9741  1.1814
  111MOL   H21040030   3.300   2.380   3.126  0.1834 -0.5154  0.1005
  111MOL   H21140031   3.315   2.079   3.141 -1.3351 -0.0136 -0.2232
  111MOL   H21240032   3.342   2.125   3.382 -1.4626 -1.3532 -1.5013
  111MOL   H21340033   3.387   2.286   3.340  2.3606 -0.4994  1.3119
  111MOL   H21440034   3.479   2.145   3.267 -0.2842 -1.5944 -2.0123
  111MOL   H21540035   3.059   2.161   3.156 -0.4053  2.8502  0.6212
  111MOL   H21640036   3.114   2.256   3.291 -0.8024  0.3461 -0.5714
  111MOL   H21740037   3.129   2.082   3.306 -0.0043 -0.2313 -0.8710
  111MOL   C21840038   3.303   2.175   2.845  0.1405  0.4555  0.1036
  111MOL   C21940039   3.231   2.155   2.715 -0.0077 -0.4567  0.1517
  111MOL   C22040040   3.085   2.103   2.724  0.2857 -0.0470 -0.0054
  111MOL   C22140041   3.055   1.961   2.789 -0.0373 -0.0861  0.0551
  111MOL   C22240042   3.003   1.970   2.936  0.5120  0.3045 -0.0639
  111MOL   C22340043   2.939   1.885   2.725 -0.3219 -0.0564  0.3518
  111MOL   H22440044   3.407   2.201   2.827 -0.3848  1.9560 -0.9174
  111MOL   H22540045   3.313   2.084   2.905 -0.3143  1.3235  1.5268
  111MOL   H22640046   3.224   2.249   2.661 -0.6935 -0.3018  0.5017
  111MOL   H22740047   3.017   2.177   2.767  0.0166 -0.6542  0.6261
  111MOL   H22840048   3.060   2.094   2.618  1.8258 -1.6992 -0.2511
  111MOL   H22940049   3.139   1.893   2.779  0.5537  0.9841 -2.7442
  111MOL   H23040050   2.957   1.884   2.985  0.7954 -0.1724 -0.6163
  111MOL   H23140051   3.088   1.996   2.999 -0.4442  0.5576  1.1354
  111MOL   H23240052   2.923   2.041   2.953  0.4950  0.3722 -0.4183
  111MOL   H23340053   2.953   1.848   2.624  1.6526  0.5366  0.3951
  111MOL   H23440054   2.926   1.793   2.783 -1.5502  0.1183  0.3736
  111MOL   H23540055   2.851   1.948   2.736 -1.7039 -2.0518  1.1759
  111MOL   C23640056   3.313   2.052   2.628  0.5603 -0.1380  0.2639
  111MOL   C23740057   3.439   2.110   2.550  0.8041 -0.0941 -0.0902
  111MOL   C23840058   3.398   2.165   2.416  0.6699 -0.6810  0.2420
  111MOL   C23940059   3.503   2.266   2.359  0.3321 -0.9941 -0.9084
  111MOL   C24040060   3.509   2.264   2.210  0.0761  0.1824  0.4280
  111MOL   C24140061   3.483   2.412   2.416  0.5829  0.6943  0.7103
  111MOL   H24240062   3.249   1.988   2.568 -0.1386  1.7603 -1.0614
  111MOL   H24340063   3.339   1.974   2.700 -0.2026  1.8699  2.7756
  111MOL   H24440064   3.473   2.189   2.617  1.0977 -0.7339  0.5313
  111MOL   H24540065   3.298   2.210   2.416  1.4145  1.0100 -1.2463
  111MOL   H24640066   3.397   2.089   2.338 -0.4488 -0.9441  0.5025
  111MOL   H24740067   3.600   2.238   2.399 -1.7476 -2.7422  3.1877
  111MOL   H24840068   3.414   2.274   2.159 -0.1663 -0.1753  0.8099
  111MOL   H24940069   3.554   2.171   2.174  1.7581  1.2484 -0.3177
  111MOL   H25040070   3.573   2.345   2.173  0.1173  1.0729  2.3521
  111MOL   H25140071   3.566   2.479   2.391  0.0104  1.6869  1.4265
  111MOL   H25240072   3.475   2.403   2.525  2.7732 -0.5181  0.7988
  111MOL   H25340073   3.390   2.448   2.373  1.3319  3.3123  1.2136
  111MOL   C25440074   3.546   1.999   2.532 -0.3693  1.0060 -0.2207
  111MOL   C25540075   3.601   1.939   2.669 -0.9954 -0.7176  0.3755
  111MOL   C25640076   3.555   1.790   2.689 -0.3079 -0.2183  0.1428
  111MOL   C25740077   3.567   1.730   2.833 -0.8747  0.1392  0.2884
  111MOL   C25840078   3.521   1.579   2.832  0.1597 -0.1564  0.2431
  111MOL   C25940079   3.478   1.803   2.932 -1.3667 -0.9702  0.8247
  111MOL   H26040080   3.515   1.914   2.472 -0.3910  1.1318 -0.3895
  111MOL   H26140081   3.636   2.045   2.489 -0.3372  1.6858  0.5515
  111MOL   H26240082   3.567   2.008   2.747 -0.4887  0.2656 -0.2612
  111MOL   H26340083   3.598   1.712   2.626 -2.8574 -1.0717 -0.6060
  111MOL   H26440084   3.450   1.788   2.658 -0.3412 -0.4741  0.2628
  111MOL   H26540085   3.673   1.722   2.859 -0.4472  0.8162 -1.2117
  111MOL   H26640086   3.424   1.568   2.782  0.1071  2.7602 -0.3942
  111MOL   H26740087   3.522   1.543   2.935  0.7123  0.2689  0.3898
  111MOL   H26840088   3.590   1.519   2.773  0.5282 -0.3216  0.8450
  111MOL   H26940089   3.468   1.758   3.030 -0.6109  2.3776  2.5018
  111MOL   H27040090   3.534   1.896   2.941 -1.7913 -0.8270  2.0482
  111MOL   H27140091   3.376   1.811   2.893 -2.0225 -0.6167  2.5682
  111MOL   C27240092   3.756   1.947   2.667  0.1500  0.3133 -0.0834
  111MOL   C27340093   3.820   2.091   2.676  0.0688 -0.1066 -0.4584
  111MOL   C27440094   3.795   2.141   2.826 -0.3977  0.5979  0.0958
  111MOL   C27540095   3.839   2.286   2.854  0.0655 -0.0664  0.2344
  111MOL   C27640096   3.861   2.323   3.003  0.8201  0.3322 -0.6842
  111MOL   C27740097   3.730   2.375   2.785  0.7874 -0.2444 -0.3687
  111MOL   H27840098   3.807   1.895   2.747  0.1523  1.2175  0.5084
  111MOL   H27940099   3.790   1.911   2.570  1.3311  1.6295 -0.1842
  111MOL   H28040100   3.774   2.162   2.608 -0.2197 -0.0223 -0.1744
  111MOL   H28140101   3.858   2.074   2.884 -1.0623 -0.3157 -0.2263
  111MOL   H28240102   3.695   2.122   2.864 -0.4257  2.3874  0.9869
  111MOL   H28340103   3.938   2.302   2.812  0.4558  1.3429  1.6435
  111MOL   H28440104   3.774   2.292   3.060  1.0449 -0.1331 -0.5942
  111MOL   H28540105   3.947   2.268   3.042 -0.0402  0.6451  1.7348
  111MOL   H28640106   3.878   2.430   3.018 -0.4477  0.5009 -0.4143
  111MOL   H28740107   3.630   2.336   2.800 -0.0361  2.1614  0.6192
  111MOL   H28840108   3.737   2.475   2.827 -0.7767  0.8340 -2.5575
  111MOL   H28940109   3.752   2.391   2.679  1.0670  0.7222 -0.1754
  111MOL   C29040110   3.974   2.092   2.637 -0.6039 -0.4741 -0.2003
  111MOL   C29140111   4.029   2.192   2.527  0.0030  0.3749 -0.2357
  111MOL   C29240112   4.181   2.203   2.532  0.8668  0.7519 -0.0434
  111MOL   C29340113   4.229   2.300   2.641  0.2273 -0.0437 -0.1341
  111MOL   C29440114   4.391   2.295   2.641  0.1732  0.4333 -0.2663
  111MOL   C29540115   4.182   2.447   2.637  0.2032  0.3043  0.0939
  111MOL   H29640116   4.022   2.115   2.733 -0.0293  0.2055 -0.6469
  111MOL   H29740117   4.010   1.991   2.615  0.4904  0.5002 -3.1268
  111MOL   H29840118   3.978   2.288   2.541 -1.2580 -0.0992 -1.4940
  111MOL   H29940119   4.225   2.245   2.442 -1.0226  0.3241 -1.2066
  111MOL   H30040120   4.228   2.106   2.544  0.4641  0.1013 -3.2094
  111MOL   H30140121   4.189   2.254   2.731  0.2174  0.7817  0.2827
  111MOL   H30240122   4.449   2.364   2.702  0.3643  0.4691 -0.4891
  111MOL   H30340123   4.432   2.298   2.540 -1.2523  0.0668 -0.8837
  111MOL   H30440124   4.425   2.197   2.674 -0.0837  0.3647 -0.2014
  111MOL   H30540125   4.074   2.454   2.647  0.5769  0.9712  4.6237
  111MOL   H30640126   4.205   2.486   2.538  0.5437 -0.0397  0.0353
  111MOL   H30740127   4.233   2.517   2.703  1.1549  0.3973 -0.7108
  111MOL   C30840128   3.977   2.152   2.393  0.0047  0.1532 -0.6721
  111MOL   C30940129   3.981   2.265   2.281 -0.6119  0.2440 -0.4177
  111MOL   C31040130   3.946   2.198   2.146 -0.0020 -0.2295 -0.6235
  111MOL   C31140131   4.047   2.096   2.081  0.8236 -0.4178 -0.6744
  111MOL   C31240132   3.978   2.025   1.964  0.1204  0.7219 -0.2806
  111MOL   C31340133   4.172   2.160   2.028  0.0695  0.1305  0.2139
  111MOL   H31440134   4.044   2.069   2.369  2.6042  0.9582  3.3540
  111MOL   H31540135   3.874   2.118   2.396 -0.1211  0.4715 -1.2671
  111MOL   H31640136   4.082   2.304   2.268  0.5055 -2.5474 -0.5413
  111MOL   H31740137   3.924   2.280   2.078  0.4837 -1.3152 -2.1052
  111MOL   H31840138   3.851   2.144   2.157  1.0004 -1.5903  1.9682
  111MOL   H31940139   4.066   2.023   2.159 -1.6349 -1.5177 -1.0466
  111MOL   H32040140   4.010   1.922   1.951 -0.2272  0.4659  0.8158
  111MOL   H32140141   3.982   2.081   1.871 -0.5696  0.8494 -0.2325
  111MOL   H32240142   3.878   2.001   1.999  0.6892  0.5297  1.2814
  111MOL   H32340143   4.140   2.237   1.958  2.2123  2.6613  1.8700
  111MOL   H32440144   4.215   2.221   2.108 -0.5546  1.3542 -0.3623
  111MOL   H32540145   4.246   2.094   1.982  0.1210  1.6959 -2.0331
  111MOL   C32640146   3.875   2.375   2.325 -0.6050 -0.5569  0.1731
  111MOL   C32740147   3.923   2.516   2.323 -0.1383 -0.8030 -0.1333
  111MOL   C32840148   3.828   2.611   2.393  0.1010 -0.9165  0.0256
  111MOL   C32940149   3.863   2.757   2.402 -0.3218 -0.7901 -0.8448
  111MOL   C33040150   3.739   2.836   2.461 -0.5057 -0.4491 -1.4073
  111MOL   C33140151   3.981   2.788   2.497 -0.2452 -0.3469 -0.1534
  111MOL   H33240152   3.828   2.365   2.423  0.3164  1.3050  0.8369
  111MOL   H33340153   3.787   2.361   2.262  0.1596 -1.2120 -0.7475
  111MOL   H33440154   4.011   2.500   2.386 -0.0658 -0.7560 -0.2211
  111MOL   H33540155   3.736   2.606   2.336 -0.0505  4.7106 -0.4652
  111MOL   H33640156   3.817   2.582   2.498  2.1729  0.7799  0.7581
  111MOL   H33740157   3.885   2.803   2.305  0.7877 -1.2296 -0.7999
  111MOL   H33840158   3.698   2.775   2.542  1.4849  1.4738  1.1353
  111MOL   H33940159   3.666   2.849   2.381 -0.2462 -0.4119 -1.6389
  111MOL   H34040160   3.769   2.936   2.492 -1.3634 -0.8514  0.7740
  111MOL   H34140161   4.021   2.889   2.497  1.3764 -0.9522 -1.0873
  111MOL   H34240162   3.939   2.775   2.597  0.6288  1.7242  0.4976
  111MOL   H34340163   4.065   2.722   2.474 -0.7502 -0.1600 -2.6735
  111MOL   C34440164   3.957   2.559   2.176  0.1550 -0.6642 -0.3023
  111MOL   C34540165   3.842   2.571   2.080 -0.4244 -0.3867  0.1804
  111MOL   C34640166   3.888   2.643   1.946 -0.1984  0.2881 -0.0050
  111MOL   C34740167   3.772   2.652   1.839  0.8553  0.0121 -0.2194
  111MOL   C34840168   3.736   2.517   1.772 -0.1878  0.0855 -0.0350
  111MOL   C34940169   3.807   2.746   1.724  0.2308 -0.3206 -0.6239
  111MOL   H35040170   4.035   2.491   2.142  1.9883 -0.7938  3.8453
  111MOL   H35140171   4.007   2.655   2.185  0.4025 -0.8764  0.6184
  111MOL   H35240172   3.760   2.629   2.123 -1.5735 -2.2479  0.5828
  111MOL   H35340173   3.907   2.748   1.968  0.1562  0.8057 -2.5978
  111MOL   H35440174   3.973   2.602   1.891 -1.2645  0.7835 -2.0781
  111MOL   H35540175   3.688   2.695   1.894  0.1674 -1.6921  0.0880
  111MOL   H35640176   3.703   2.440   1.842  2.9564  0.2753  1.7486
  111MOL   H35740177   3.647   2.528   1.710  0.0243 -0.0991 -0.3794
  111MOL   H35840178   3.806   2.473   1.700  1.9168  3.1922  0.0374
  111MOL   H35940179   3.896   2.712   1.670  0.7857  1.0711 -0.6092
  111MOL   H36040180   3.826   2.841   1.773  0.5021 -0.7081  0.0316
  111MOL   H36140181   3.720   2.752   1.659 -1.3242 -0.9630  1.3466
  111MOL   H36240182   3.807   2.472   2.049 -0.9816  0.4687 -1.9875
  112MOL     C140183   1.509   1.697   6.466 -0.1937  0.0542  0.4421
  112MOL     C240184   1.579   1.566   6.486 -0.5714 -0.1199 -0.2754
  112MOL     C340185   1.725   1.587   6.513 -0.7703 -0.0716 -0.4726
  112MOL     C440186   1.764   1.692   6.627 -0.5011  0.5101  0.1537
  112MOL     C540187   1.914   1.722   6.649  0.0269  0.3373  0.5818
  112MOL     C640188   1.686   1.680   6.759  0.3517  0.2156  0.3197
  112MOL     H740189   1.405   1.663   6.466  0.3648 -1.7255  1.7998
  112MOL     H840190   1.523   1.783   6.531  1.6068 -0.7664  1.1682
  112MOL     H940191   1.536   1.527   6.579  1.4963  0.6338  1.0379
  112MOL    H1040192   1.763   1.489   6.541  2.5978  1.0862 -0.7967
  112MOL    H1140193   1.772   1.620   6.421 -1.7005 -0.6178 -1.1426
  112MOL    H1240194   1.735   1.788   6.585 -2.6126 -0.2134 -0.1064
  112MOL    H1340195   1.947   1.701   6.751 -1.2758 -0.0724  0.9287
  112MOL    H1440196   1.976   1.679   6.571 -1.1265  0.6189 -0.5148
  112MOL    H1540197   1.940   1.827   6.632  1.8803 -0.3704 -1.1295
  112MOL    H1640198   1.710   1.593   6.820 -3.3610  0.4259  2.2559
  112MOL    H1740199   1.582   1.668   6.728  1.2767  0.1351 -3.0090
  112MOL    H1840200   1.698   1.767   6.822  0.9157  1.0454 -0.9164
  112MOL    H1940201   1.541   1.726   6.366 -1.8523 -2.0442 -0.7432
  112MOL    C2040202   1.542   1.472   6.371  0.2850  0.3495  0.7750
  112MOL    C2140203   1.615   1.332   6.366 -0.3512  0.0254 -0.1070
  112MOL    C2240204   1.515   1.227   6.418 -0.0965 -0.5561 -0.3753
  112MOL    C2340205   1.474   1.244   6.566 -0.5403  0.4712  0.1022
  112MOL    C2440206   1.340   1.169   6.596  0.0477 -0.1265 -0.2745
  112MOL    C2540207   1.593   1.198   6.656  1.0317  0.6811  0.2837
  112MOL    H2640208   1.436   1.450   6.361  0.2936  0.0611  1.2781
  112MOL    H2740209   1.563   1.523   6.277 -2.6518 -1.5401 -0.9990
  112MOL    H2840210   1.693   1.330   6.442 -1.1183  2.8455  0.8204
  112MOL    H2940211   1.547   1.124   6.402  0.2657 -0.4839 -0.1290
  112MOL    H3040212   1.428   1.228   6.353 -1.3296 -0.4272  1.2469
  112MOL    H3140213   1.450   1.348   6.586  0.4117  0.1184  3.3158
  112MOL    H3240214   1.260   1.207   6.533 -0.2080 -1.4674 -0.7788
  112MOL    H3340215   1.317   1.174   6.702 -1.8730 -1.0486 -0.6293
  112MOL    H3440216   1.350   1.065   6.564 -0.3460 -0.8532  1.8765
  112MOL    H3540217   1.582   1.230   6.760 -0.1618  1.0875  0.0411
  112MOL    H3640218   1.611   1.091   6.664 -0.2694  0.4730  0.6785
  112MOL    H3740219   1.687   1.237   6.617  0.6312  0.0108 -1.3871
  112MOL    C3840220   1.672   1.298   6.228 -0.2463  0.2818 -0.0862
  112MOL    C3940221   1.761   1.176   6.216 -0.0985 -0.2448 -0.2926
  112MOL    C4040222   1.910   1.195   6.263 -0.5313 -0.1813 -0.1915
  112MOL    C4140223   1.958   1.090   6.355 -0.3542  0.2309 -0.6330
  112MOL    C4240224   1.916   1.106   6.499 -0.5248  0.0520 -0.0836
  112MOL    C4340225   2.107   1.089   6.359 -0.0417  0.0522  0.4660
  112MOL    H4440226   1.726   1.383   6.185  1.1987 -1.5007 -1.9193
  112MOL    H4540227   1.580   1.292   6.170  0.8733  0.5892 -1.9320
  112MOL    H4640228   1.733   1.091   6.279 -0.8279  1.0942  1.2256
  112MOL    H4740229   1.917   1.293   6.310 -0.7275  0.6773 -1.9166
  112MOL    H4840230   1.973   1.201   6.175  0.3710  0.7283  0.5011
  112MOL    H4940231   1.913   0.992   6.341 -0.4029 -0.0745  1.4190
  112MOL    H5040232   1.960   1.191   6.550  0.9957 -0.6223 -0.2644
  112MOL    H5140233   1.807   1.106   6.498 -0.6062 -3.2678  2.2750
  112MOL    H5240234   1.936   1.008   6.541 -0.1982  0.4782  0.7561
  112MOL    H5340235   2.131   1.182   6.412 -0.2827  0.5921 -0.3585
  112MOL    H5440236   2.150   1.100   6.259 -0.3848 -0.0402  0.3107
  112MOL    H5540237   2.149   1.005   6.414  0.8514 -0.9812 -1.6904
  112MOL    C5640238   1.760   1.128   6.074 -0.2055  0.3808  0.4292
  112MOL    C5740239   1.852   1.003   6.046  0.1338  0.8388  0.2141
  112MOL    C5840240   1.918   1.010   5.913 -0.0869 -0.2767 -0.1243
  112MOL    C5940241   2.067   1.049   5.916 -0.9307 -0.7137 -0.3789
  112MOL    C6040242   2.108   1.105   5.775 -0.0505  0.3054  0.7699
  112MOL    C6140243   2.156   0.940   5.966 -0.7656 -0.1403 -0.4401
  112MOL    H6240244   1.789   1.208   6.005  2.4644  0.8000  1.9801
  112MOL    H6340245   1.655   1.104   6.053  0.3909 -1.6178 -0.4718
  112MOL    H6440246   1.927   0.978   6.121 -1.5426 -0.7960  1.3825
  112MOL    H6540247   1.926   0.916   5.857  3.9393  0.3502 -0.7592
  112MOL    H6640248   1.874   1.087   5.850  1.0551  1.3929  1.0872
  112MOL    H6740249   2.072   1.137   5.981  0.8799 -0.0649 -1.3516
  112MOL    H6840250   2.088   1.027   5.702  1.4288 -0.3012  0.9912
  112MOL    H6940251   2.209   1.144   5.757 -0.0484 -1.5812 -3.9478
  112MOL    H7040252   2.043   1.190   5.755 -1.8960 -0.9989  1.0996
  112MOL    H7140253   2.141   0.920   6.072 -1.2595 -0.3970 -0.5554
  112MOL    H7240254   2.261   0.969   5.958 -0.8341  0.9172  1.9975
  112MOL    H7340255   2.153   0.846   5.911 -0.7593  0.2444 -1.1034
  112MOL    C7440256   1.749   0.887   6.041 -0.1512 -0.1574  0.0390
  112MOL    C7540257   1.807   0.749   6.071 -0.7235  0.5924  0.6502
  112MOL    C7640258   1.721   0.641   5.998 -0.3441 -0.2464 -0.0757
  112MOL    C7740259   1.734   0.623   5.843  0.2118  0.8306 -0.6371
  112MOL    C7840260   1.620   0.540   5.795  0.3914  0.3415 -0.8194
  112MOL    C7940261   1.877   0.560   5.817  0.7170  0.7321  0.0850
  112MOL    H8040262   1.693   0.889   5.948 -0.1635 -1.6016  0.0128
  112MOL    H8140263   1.668   0.901   6.112  0.7525 -1.2799  1.3192
  112MOL    H8240264   1.906   0.745   6.025 -0.9671 -1.0361  0.2353
  112MOL    H8340265   1.726   0.547   6.051 -0.8778  0.2477  0.8549
  112MOL    H8440266   1.617   0.670   6.013 -0.5209 -1.0016  0.1523
  112MOL    H8540267   1.723   0.717   5.791 -1.1050  1.3875  0.6174
  112MOL    H8640268   1.599   0.453   5.857  0.1617  0.9274 -0.0814
  112MOL    H8740269   1.642   0.487   5.701  2.2690  1.3405 -0.9728
  112MOL    H8840270   1.531   0.597   5.770  0.5598  2.0636  2.3548
  112MOL    H8940271   1.891   0.483   5.892 -0.4918  1.4475  1.0785
  112MOL    H9040272   1.875   0.513   5.719 -1.6651  1.3918 -0.2218
  112MOL    H9140273   1.953   0.638   5.822  1.4209  0.4613 -4.4384
  112MOL    C9240274   1.804   0.725   6.224  0.4251 -0.5570 -0.2042
  112MOL    C9340275   1.917   0.633   6.276  0.3420 -0.6953  0.6875
  112MOL    C9440276   2.056   0.689   6.253  0.1673 -0.2588 -0.8117
  112MOL    C9540277   2.180   0.606   6.303 -0.4673 -0.0004 -0.0886
  112MOL    C9640278   2.299   0.636   6.215 -1.1237  0.7386  0.4387
  112MOL    C9740279   2.215   0.655   6.439  0.2451  0.9218 -0.6051
  112MOL    H9840280   1.799   0.815   6.287  4.0854 -1.6833  1.8196
  112MOL    H9940281   1.709   0.676   6.246  0.0104  0.2865 -0.0831
  112MOL   H10040282   1.904   0.545   6.213  1.5849  1.1942 -2.2823
  112MOL   H10140283   2.072   0.793   6.280  0.3321 -0.5857  0.4002
  112MOL   H10240284   2.071   0.698   6.146  1.6593 -0.4654 -0.6339
  112MOL   H10340285   2.153   0.501   6.299  1.9622 -0.6349 -0.1241
  112MOL   H10440286   2.392   0.607   6.265 -1.3961 -1.0141 -0.0303
  112MOL   H10540287   2.297   0.739   6.181  1.7849  0.2425 -1.4281
  112MOL   H10640288   2.309   0.586   6.118 -2.1176  1.2108  0.0844
  112MOL   H10740289   2.289   0.592   6.487 -1.2356  0.0839  0.6395
  112MOL   H10840290   2.133   0.662   6.510  0.7687 -1.2346  0.2410
  112MOL   H10940291   2.262   0.752   6.428  2.4448  0.3997  3.4969
  112MOL   C11040292   1.887   0.602   6.427 -0.1641 -0.5730 -0.1015
  112MOL   C11140293   1.757   0.529   6.475  0.4714 -0.0404 -0.4149
  112MOL   C11240294   1.769   0.383   6.432  0.4031 -0.4595 -0.3191
  112MOL   C11340295   1.632   0.320   6.395  0.1727 -1.0644 -0.2350
  112MOL   C11440296   1.640   0.169   6.383  0.6477  0.2086  0.0747
  112MOL   C11540297   1.590   0.373   6.252 -0.4415  0.2042  0.0178
  112MOL   H11640298   1.907   0.692   6.485  3.2384 -2.0434  1.0795
  112MOL   H11740299   1.959   0.532   6.468  0.0572 -0.0543  0.4104
  112MOL   H11840300   1.663   0.567   6.434  0.6884 -0.2939 -1.1488
  112MOL   H11940301   1.820   0.328   6.511  2.3338 -0.6047 -1.6206
  112MOL   H12040302   1.840   0.367   6.351  0.0644  2.4371 -1.2409
  112MOL   H12140303   1.563   0.357   6.471 -0.3028 -0.4832 -0.9490
  112MOL   H12240304   1.557   0.128   6.326  1.5130 -0.3173 -0.8160
  112MOL   H12340305   1.630   0.119   6.480  0.5335  0.2147  0.0645
  112MOL   H12440306   1.734   0.138   6.338  0.5829 -0.1615  0.1972
  112MOL   H12540307   1.657   0.342   6.171  2.2374  0.4369  2.0542
  112MOL   H12640308   1.588   0.481   6.245  0.1500  0.3275  1.5568
  112MOL   H12740309   1.493   0.327   6.235 -0.2912 -0.7142  1.5593
  112MOL   C12840310   1.740   0.528   6.628 -0.1606  0.8655 -0.2034
  112MOL   C12940311   1.707   0.658   6.697  0.0818 -1.1106  0.0903
  112MOL   C13040312   1.702   0.628   6.850 -0.6972  0.7277  0.8121
  112MOL   C13140313   1.677   0.735   6.957 -0.2157  0.2603 -0.0588
  112MOL   C13240314   1.676   0.679   7.099 -0.3966 -0.9353  0.5958
  112MOL   C13340315   1.755   0.871   6.937 -0.0265 -0.5162  0.0890
  112MOL   H13440316   1.826   0.484   6.678  1.3151  2.4777 -1.2530
  112MOL   H13540317   1.662   0.454   6.647  1.6833 -0.9876  0.2765
  112MOL   H13640318   1.788   0.727   6.674 -1.1505  0.7439  1.1978
  112MOL   H13740319   1.631   0.545   6.854  1.5439 -1.3688 -0.8161
  112MOL   H13840320   1.799   0.584   6.872 -0.8978 -0.5994 -0.7853
  112MOL   H13940321   1.576   0.764   6.930 -0.1474  0.2037 -0.3868
  112MOL   H14040322   1.673   0.756   7.176 -0.2779 -2.3251  2.0164
  112MOL   H14140323   1.774   0.634   7.118  0.1168  0.4238  1.2826
  112MOL   H14240324   1.595   0.608   7.117 -1.1496 -0.8425 -2.2612
  112MOL   H14340325   1.754   0.937   7.024  0.9817 -0.6520  0.2132
  112MOL   H14440326   1.861   0.846   6.928  0.3034  0.2606  1.5193
  112MOL   H14540327   1.720   0.918   6.846  0.8162 -0.8994 -0.4397
  112MOL   C14640328   1.582   0.733   6.633 -0.3883 -0.7434  0.1187
  112MOL   C14740329   1.450   0.656   6.591 -0.7374 -0.1944 -0.4642
  112MOL   C14840330   1.371   0.745   6.489  0.1662  0.7566 -0.1186
  112MOL   C14940331   1.416   0.752   6.341 -0.5385 -0.3991  0.2282
  112MOL   C15040332   1.358   0.642   6.255  0.6478 -0.2849  0.1997
  112MOL   C15140333   1.385   0.884   6.285 -0.1425 -0.2391  0.2599
  112MOL   H15240334   1.629   0.780   6.547 -0.5067 -0.4273  0.2239
  112MOL   H15340335   1.549   0.816   6.696  0.2801  1.2515 -2.1152
  112MOL   H15440336   1.487   0.563   6.548 -1.2256 -0.8803  0.5901
  112MOL   H15540337   1.270   0.706   6.474  0.8486 -0.8890 -0.5517
  112MOL   H15640338   1.347   0.840   6.536 -0.8223 -0.3402  1.6393
  112MOL   H15740339   1.524   0.745   6.351  0.1587  3.2608 -3.1283
  112MOL   H15840340   1.377   0.539   6.286  0.9476 -0.1588  0.4343
  112MOL   H15940341   1.400   0.662   6.157 -0.8707 -0.4889 -0.5180
  112MOL   H16040342   1.251   0.664   6.248  0.4519 -0.7844  1.5087
  112MOL   H16140343   1.277   0.890   6.273  0.0695  2.6654 -0.5626
  112MOL   H16240344   1.434   0.895   6.188  0.4693  1.3099  0.7268
  112MOL   H16340345   1.404   0.966   6.355  0.6031 -0.8460  0.7853
  112MOL   C16440346   1.359   0.614   6.708 -0.2892 -0.0279  0.3013
  112MOL   C16540347   1.244   0.510   6.689  0.6902 -0.3029 -0.3414
  112MOL   C16640348   1.298   0.371   6.731 -0.1773  0.3371  0.2761
  112MOL   C16740349   1.229   0.258   6.657  0.6595 -0.1239  0.0210
  112MOL   C16840350   1.267   0.241   6.509  0.2607  0.3376 -1.0974
  112MOL   C16940351   1.236   0.129   6.739 -0.0678  0.1258  0.4209
  112MOL   H17040352   1.425   0.576   6.786 -0.9927  1.3391  1.6057
  112MOL   H17140353   1.312   0.707   6.742  0.1360  1.2165 -2.4080
  112MOL   H17240354   1.212   0.515   6.585 -1.1134 -0.5174  0.1863
  112MOL   H17340355   1.400   0.344   6.701 -0.4820 -1.1863  0.5923
  112MOL   H17440356   1.302   0.353   6.838 -0.1594  2.1677  0.6040
  112MOL   H17540357   1.131   0.308   6.661  1.6172  2.1705 -3.0651
  112MOL   H17640358   1.224   0.316   6.442 -2.4185 -1.7483 -1.7728
  112MOL   H17740359   1.237   0.146   6.465 -0.0227 -0.0668 -0.0335
  112MOL   H17840360   1.372   0.242   6.479  0.1301 -0.3020 -1.5913
  112MOL   H17940361   1.198   0.039   6.692 -0.1371 -0.0209  0.7519
  112MOL   H18040362   1.206   0.152   6.841 -0.2262  2.5061 -0.1367
  112MOL   H18140363   1.343   0.108   6.741  0.2886  1.9027  1.3866
  112MOL   C18240364   1.123   0.544   6.777 -0.4357  0.2320  0.1970
  112MOL   C18340365   1.016   0.644   6.724  0.1706 -0.2311 -0.0188
  112MOL   C18440366   0.875   0.578   6.708 -0.0300 -0.1877 -1.0987
  112MOL   C18540367   0.861   0.484   6.592 -0.1401 -0.2469  0.3162
  112MOL   C18640368   0.748   0.385   6.602  0.0994 -0.0699 -0.0016
  112MOL   C18740369   0.848   0.552   6.454 -0.6460  0.3489 -0.2555
  112MOL   H18840370   1.160   0.579   6.873  1.2705  1.2078 -0.7866
  112MOL   H18940371   1.088   0.448   6.814 -1.4370  0.4246 -0.2295
  112MOL   H19040372   1.058   0.662   6.625 -0.6585 -0.1316 -0.3616
  112MOL   H19140373   0.809   0.662   6.687  0.8943  1.0053  0.6672
  112MOL   H19240374   0.840   0.543   6.806  0.3160  0.6456 -0.6735
  112MOL   H19340375   0.955   0.429   6.588 -0.2824 -0.4843  0.1531
  112MOL   H19440376   0.753   0.328   6.695  1.3043  0.9188  0.5591
  112MOL   H19540377   0.747   0.313   6.520  0.4749 -0.2533  0.1550
  112MOL   H19640378   0.649   0.431   6.598 -1.6312 -3.7389 -2.4320
  112MOL   H19740379   0.761   0.618   6.453 -1.2217 -0.3079  2.6788
  112MOL   H19840380   0.849   0.471   6.382  0.9884 -0.6841  0.9180
  112MOL   H19940381   0.939   0.611   6.439 -0.2985 -0.3453 -0.8907
  112MOL   C20040382   1.008   0.776   6.810 -0.7603  0.1681 -0.4239
  112MOL   C20140383   0.920   0.896   6.768  0.3399  0.8128 -0.2050
  112MOL   C20240384   0.942   0.938   6.626  0.5590 -0.4764  0.0963
  112MOL   C20340385   0.842   1.033   6.567  0.3290  0.7665  0.1680
  112MOL   C20440386   0.908   1.115   6.458  0.5400  0.3007 -0.7374
  112MOL   C20540387   0.729   0.950   6.497 -0.9691 -0.0536  0.0963
  112MOL   H20640388   1.110   0.814   6.809  0.0530 -1.9166 -2.7219
  112MOL   H20740389   0.982   0.731   6.905  0.5006  2.2712  0.9603
  112MOL   H20840390   0.819   0.859   6.784  0.7623  0.3496  1.5509
  112MOL   H20940391   1.042   0.982   6.628  0.2301  0.2162  1.5198
  112MOL   H21040392   0.954   0.851   6.561 -0.4047  0.7980 -1.8477
  112MOL   H21140393   0.794   1.095   6.642 -3.1549 -2.5408  0.8682
  112MOL   H21240394   0.842   1.198   6.432  1.1670  1.3265  0.8832
  112MOL   H21340395   0.928   1.059   6.367 -0.4049  0.7596 -1.2298
  112MOL   H21440396   1.007   1.149   6.489 -0.3621  0.9672  1.5174
  112MOL   H21540397   0.662   1.019   6.447  1.3258  2.2399  0.0921
  112MOL   H21640398   0.678   0.875   6.558 -0.4130  0.0539  0.7020
  112MOL   H21740399   0.774   0.904   6.409 -0.3987 -0.2434  0.4833
  112MOL   C21840400   0.947   1.011   6.868 -0.5406 -0.0461  0.3002
  112MOL   C21940401   0.880   0.985   7.013 -0.0573  0.3348  0.1973
  112MOL   C22040402   0.730   0.962   7.018  0.1904 -0.3161  0.6927
  112MOL   C22140403   0.683   0.818   7.037 -0.1397  0.0225 -0.0544
  112MOL   C22240404   0.705   0.759   7.184 -0.0871  0.9319 -0.0121
  112MOL   C22340405   0.539   0.785   6.987 -0.0133 -0.4528  0.1034
  112MOL   H22440406   1.054   1.025   6.881 -0.5267  1.5158 -1.4109
  112MOL   H22540407   0.907   1.105   6.831  1.0232  1.4691  2.3085
  112MOL   H22640408   0.936   0.897   7.045  0.0799 -0.7975 -2.9902
  112MOL   H22740409   0.693   1.012   7.108 -0.0298 -1.2715  1.1454
  112MOL   H22840410   0.672   1.012   6.941  2.1168  0.3567 -0.3400
  112MOL   H22940411   0.752   0.760   6.976 -0.6549  0.0838 -0.6990
  112MOL   H23040412   0.795   0.792   7.235  0.0009  1.2085 -0.3420
  112MOL   H23140413   0.625   0.778   7.255 -2.0792  1.4342 -2.2925
  112MOL   H23240414   0.722   0.651   7.181 -0.8514  0.8381 -2.6899
  112MOL   H23340415   0.531   0.676   6.990 -1.8872 -0.4311 -2.5413
  112MOL   H23440416   0.461   0.833   7.046  0.8545  1.2319 -0.0784
  112MOL   H23540417   0.529   0.815   6.882 -1.6612  1.9429  0.9261
  112MOL   C23640418   0.925   1.091   7.115  0.3536 -0.6046  0.0096
  112MOL   C23740419   1.076   1.108   7.144  0.7433 -0.1800  0.4651
  112MOL   C23840420   1.135   0.984   7.223 -0.2334 -0.0642  0.1061
  112MOL   C23940421   1.226   0.887   7.149 -0.1895 -0.5683  0.4537
  112MOL   C24040422   1.374   0.942   7.116  0.5455  0.0966 -0.2728
  112MOL   C24140423   1.230   0.747   7.213  0.1869  0.3773  0.1092
  112MOL   H24240424   0.873   1.069   7.208 -1.3509 -2.1323 -1.2739
  112MOL   H24340425   0.884   1.186   7.080  0.9065 -0.1353  0.6329
  112MOL   H24440426   1.122   1.129   7.048 -0.0145 -1.3865 -0.1706
  112MOL   H24540427   1.046   0.930   7.256 -0.5188  1.3199  1.7250
  112MOL   H24640428   1.177   1.022   7.316  2.5566  1.2456 -1.6369
  112MOL   H24740429   1.181   0.876   7.051 -1.4617 -0.0768  0.9700
  112MOL   H24840430   1.372   1.021   7.041  0.6915  1.2402  0.9134
  112MOL   H24940431   1.431   0.859   7.074  0.0377 -0.6718  0.5283
  112MOL   H25040432   1.417   0.969   7.212 -2.4984 -1.9975  1.7648
  112MOL   H25140433   1.133   0.709   7.245 -0.5192  1.3646 -0.8336
  112MOL   H25240434   1.280   0.739   7.310  0.2636  2.5201  0.2717
  112MOL   H25340435   1.283   0.681   7.145  0.2550 -0.4760  0.9870
  112MOL   C25440436   1.098   1.234   7.223  0.0405 -0.2146 -0.4131
  112MOL   C25540437   1.244   1.288   7.240  0.3123 -0.2765 -0.3593
  112MOL   C25640438   1.299   1.359   7.112  0.6857  0.1047 -0.5825
  112MOL   C25740439   1.449   1.383   7.107 -0.2103 -0.1017 -0.6070
  112MOL   C25840440   1.489   1.494   7.003 -0.1118 -0.6712 -0.0709
  112MOL   C25940441   1.544   1.256   7.083  0.3940 -0.4372 -0.4579
  112MOL   H26040442   1.045   1.307   7.162 -0.7275 -0.5396 -0.1401
  112MOL   H26140443   1.040   1.222   7.315  0.4527 -0.9187 -0.2421
  112MOL   H26240444   1.306   1.199   7.259 -0.4914 -0.4867  1.4272
  112MOL   H26340445   1.245   1.452   7.092  1.3374  0.3270 -1.3480
  112MOL   H26440446   1.276   1.291   7.029 -0.5217  0.3211 -0.4318
  112MOL   H26540447   1.484   1.423   7.202  1.5948  0.5984 -1.5405
  112MOL   H26640448   1.500   1.590   7.053 -2.0694 -0.0033 -0.8697
  112MOL   H26740449   1.423   1.503   6.917  1.5085  1.2640 -1.1596
  112MOL   H26840450   1.583   1.471   6.952 -0.1130 -1.9040  0.4578
  112MOL   H26940451   1.650   1.281   7.076 -0.1021  2.1516  0.5764
  112MOL   H27040452   1.538   1.193   7.172  3.6309  2.2606  1.8341
  112MOL   H27140453   1.508   1.203   6.996 -0.8961  0.0658 -0.2390
  112MOL   C27240454   1.266   1.369   7.370 -0.6092 -0.7529 -0.0948
  112MOL   C27340455   1.269   1.521   7.375  0.3383  0.4398  0.0934
  112MOL   C27440456   1.129   1.567   7.334 -0.5356 -0.5606  0.1786
  112MOL   C27540457   1.132   1.710   7.287  0.2409  0.4155 -0.1426
  112MOL   C27640458   0.988   1.776   7.300 -0.3111  0.2446  0.3344
  112MOL   C27740459   1.185   1.722   7.148  0.7896 -0.4757  0.3463
  112MOL   H27840460   1.202   1.339   7.452 -0.8904 -1.4888 -0.5707
  112MOL   H27940461   1.367   1.345   7.405 -0.4832 -3.1799 -1.9188
  112MOL   H28040462   1.346   1.543   7.301  0.5742 -0.6367  0.0036
  112MOL   H28140463   1.047   1.545   7.404 -1.9868 -0.0788 -1.3363
  112MOL   H28240464   1.108   1.502   7.249  0.2074  1.5338 -1.6349
  112MOL   H28340465   1.203   1.767   7.347  2.0057 -2.9214  1.0926
  112MOL   H28440466   0.934   1.745   7.211  1.8140  1.1084 -1.3109
  112MOL   H28540467   0.928   1.751   7.388 -1.5309  1.5347 -0.1066
  112MOL   H28640468   1.002   1.885   7.302  1.4352  0.0410  0.3552
  112MOL   H28740469   1.200   1.822   7.109  1.8005 -0.7761 -0.0649
  112MOL   H28840470   1.287   1.683   7.141  1.6597  1.5361  1.3554
  112MOL   H28940471   1.117   1.680   7.073 -2.0342  0.7170  2.1617
  112MOL   C29040472   1.315   1.585   7.511  0.6741 -0.1284 -0.1093
  112MOL   C29140473   1.461   1.571   7.555 -0.2826  0.5060 -0.7083
  112MOL   C29240474   1.553   1.652   7.454  0.5767 -0.2552  0.1806
  112MOL   C29340475   1.701   1.621   7.434 -1.1390 -0.3949 -0.5302
  112MOL   C29440476   1.731   1.468   7.431 -0.3722  0.3067  0.2421
  112MOL   C29540477   1.763   1.694   7.312 -0.6030  0.3397  0.6624
  112MOL   H29640478   1.286   1.690   7.518  0.6108 -0.0629 -1.3356
  112MOL   H29740479   1.249   1.545   7.588  0.9262  1.3351  0.8992
  112MOL   H29840480   1.480   1.464   7.562 -1.1930  0.4585  1.2539
  112MOL   H29940481   1.529   1.759   7.457  2.2922  0.2029 -1.0756
  112MOL   H30040482   1.531   1.638   7.349  0.4646  1.3301 -0.0255
  112MOL   H30140483   1.750   1.662   7.523 -1.7261  0.9051 -0.7928
  112MOL   H30240484   1.710   1.419   7.527  0.4525 -1.1408 -0.2949
  112MOL   H30340485   1.836   1.445   7.416 -0.4136 -0.2328  0.7540
  112MOL   H30440486   1.674   1.408   7.360 -1.6890 -0.4469  1.8906
  112MOL   H30540487   1.741   1.801   7.306 -0.1000  0.3127 -2.4539
  112MOL   H30640488   1.720   1.647   7.224  3.0578 -1.5711 -0.2282
  112MOL   H30740489   1.872   1.691   7.312 -0.6479 -2.9637  1.1286
  112MOL   C30840490   1.494   1.631   7.694  0.3051 -0.5349 -0.0819
  112MOL   C30940491   1.421   1.571   0.066  0.0068  0.2731  0.7622
  112MOL   C31040492   1.469   1.424   0.097  0.5698  0.1002  0.1565
  112MOL   C31140493   1.380   1.351   0.198  0.5411 -1.0670 -0.0852
  112MOL   C31240494   1.256   1.288   0.125 -0.2028  0.2000  0.0490
  112MOL   C31340495   1.458   1.255   0.290  0.4102  0.6196  0.3839
  112MOL   H31440496   1.601   1.623   7.716 -0.0658 -0.1867  1.9056
  112MOL   H31540497   1.484   1.740   7.686 -0.6843 -0.3947  2.5140
  112MOL   H31640498   1.315   1.572   0.040 -0.5843 -0.9209  3.0012
  112MOL   H31740499   1.574   1.419   0.126  0.8940 -2.1132 -1.2666
  112MOL   H31840500   1.464   1.370   0.002  1.3202  0.9775 -0.3873
  112MOL   H31940501   1.334   1.412   0.276  1.0705  0.1882 -0.7346
  112MOL   H32040502   1.168   1.277   0.188  0.0730  0.0846  0.4216
  112MOL   H32140503   1.287   1.186   0.101 -0.0259  0.5152 -1.0784
  112MOL   H32240504   1.229   1.338   0.032  3.3359  3.1523  0.4778
  112MOL   H32340505   1.499   1.175   0.229  1.1440 -0.5954  2.4533
  112MOL   H32440506   1.537   1.304   0.346  1.9309 -2.5353  1.0685
  112MOL   H32540507   1.399   1.210   0.370  0.3770 -0.5760 -0.2997
  112MOL   C32640508   1.437   1.661   0.185 -0.4698  0.6688  0.0519
  112MOL   C32740509   1.351   1.793   0.182 -0.5916 -0.7357 -0.4727
  112MOL   C32840510   1.389   1.898   0.295 -0.2915  0.7262  0.0182
  112MOL   C32940511   1.505   1.987   0.266 -0.6829  1.0450  0.2259
  112MOL   C33040512   1.514   2.099   0.371 -0.8079  0.4853 -0.2402
  112MOL   C33140513   1.647   1.927   0.246 -1.0310 -0.4622 -0.4484
  112MOL   H33240514   1.543   1.682   0.196 -0.1252  1.2204 -3.8017
  112MOL   H33340515   1.398   1.612   0.275 -1.2755 -0.2630 -0.8016
  112MOL   H33440516   1.384   1.845   0.092 -0.5323  0.3296  0.1491
  112MOL   H33540517   1.304   1.960   0.324 -1.2901  0.5999 -2.4862
  112MOL   H33640518   1.410   1.835   0.381 -0.4000 -0.9500 -1.1700
  112MOL   H33740519   1.484   2.031   0.168 -1.1608 -0.3665 -0.3123
  112MOL   H33840520   1.441   2.180   0.368  0.4533  1.6558  0.3460
  112MOL   H33940521   1.610   2.145   0.394 -0.2838  0.4434 -2.2496
  112MOL   H34040522   1.511   2.051   0.469  1.9007  0.2249 -0.2360
  112MOL   H34140523   1.722   2.007   0.243 -2.0155  0.4868 -0.0790
  112MOL   H34240524   1.670   1.871   0.337 -1.1198 -0.3062 -0.3291
  112MOL   H34340525   1.666   1.857   0.165 -0.1626 -0.4070 -0.2994
  112MOL   C34440526   1.197   1.764   0.173 -0.1990  0.7893  0.1152
  112MOL   C34540527   1.135   1.853   0.065  0.2504 -0.2075  0.5116
  112MOL   C34640528   0.985   1.828   0.047 -0.6562  0.0987 -0.3557
  112MOL   C34740529   0.930   1.886   7.668 -0.4823  0.4247 -0.3459
  112MOL   C34840530   0.961   2.031   7.652 -0.2680 -0.6989 -0.0100
  112MOL   C34940531   0.776   1.866   7.659  0.6828 -0.3946  0.0221
  112MOL   H35040532   1.145   1.791   0.265 -0.5917  2.1824 -0.5161
  112MOL   H35140533   1.173   1.658   0.160 -1.3252  0.6781  2.8135
  112MOL   H35240534   1.190   1.832   7.726  1.9376  0.4579  1.3564
  112MOL   H35340535   0.954   1.724   0.059 -1.8893  0.4145 -0.6773
  112MOL   H35440536   0.932   1.873   0.131  0.4486  0.6107  0.0819
  112MOL   H35540537   0.976   1.834   7.584 -0.2890 -0.9477  0.5855
  112MOL   H35640538   0.900   2.064   7.568  1.0872  0.3761 -0.5930
  112MOL   H35740539   0.949   2.092   7.741 -2.2154 -0.2937 -0.5260
  112MOL   H35840540   1.066   2.054   7.633 -0.3298 -1.3259 -1.2192
  112MOL   H35940541   0.730   1.906   7.569  1.3480  2.5975  0.9512
  112MOL   H36040542   0.724   1.904   7.747  1.5584 -1.3426  0.9748
  112MOL   H36140543   0.746   1.762   7.647 -4.9842  1.0663  0.2277
  112MOL   H36240544   1.146   1.958   0.092  0.1485  0.5575 -2.3229
  113MOL     C140545   2.255   0.601   5.614 -0.3063  0.0464  0.2261
  113MOL     C240546   2.329   0.491   5.683 -0.5605  0.2524  0.7136
  113MOL     C340547   2.234   0.401   5.758  0.3134 -0.2660  0.3304
  113MOL     C440548   2.214   0.275   5.676 -0.1543  0.1991  0.3381
  113MOL     C540549   2.090   0.199   5.726 -0.0439  1.1365  0.5886
  113MOL     C640550   2.331   0.172   5.708  0.4093  0.1264 -0.3661
  113MOL     H740551   2.205   0.655   5.694  0.6048 -0.9042  1.4475
  113MOL     H840552   2.315   0.678   5.566 -1.8632  1.9672  1.2769
  113MOL     H940553   2.379   0.447   5.596 -1.2867  1.7996 -0.5056
  113MOL    H1040554   2.282   0.358   5.847  1.2059  0.9382  0.4522
  113MOL    H1140555   2.143   0.453   5.789  0.7639 -0.1194  1.4455
  113MOL    H1240556   2.215   0.291   5.568  2.6443 -0.3955  0.2532
  113MOL    H1340557   1.997   0.254   5.712 -0.2991  0.2543 -1.2881
  113MOL    H1440558   2.080   0.101   5.681  0.1132  1.3600  0.0660
  113MOL    H1540559   2.096   0.191   5.835  1.6664 -0.2384  0.4052
  113MOL    H1640560   2.432   0.211   5.698  0.4752  0.7364  2.2253
  113MOL    H1740561   2.320   0.086   5.642 -1.5326  1.3937 -1.7383
  113MOL    H1840562   2.317   0.144   5.813  0.0840  1.1832 -0.1246
  113MOL    H1940563   2.186   0.560   5.540 -0.9446  1.2111  0.1599
  113MOL    C2040564   2.435   0.545   5.792  0.1051 -0.2784 -0.0649
  113MOL    C2140565   2.535   0.655   5.745  0.7293  0.4559  0.1439
  113MOL    C2240566   2.602   0.712   5.872  0.2476 -0.0886 -1.2380
  113MOL    C2340567   2.536   0.835   5.941 -0.6103  1.0961  0.3423
  113MOL    C2440568   2.595   0.863   6.079  0.2735 -1.1873  0.0001
  113MOL    C2540569   2.536   0.955   5.854  0.6543 -0.1674  0.1402
  113MOL    H2640570   2.383   0.589   5.877  1.8098  1.8761 -0.0749
  113MOL    H2740571   2.488   0.461   5.838 -0.4874  0.1185  1.3652
  113MOL    H2840572   2.485   0.745   5.709  2.9078  1.0360 -1.5478
  113MOL    H2940573   2.700   0.752   5.843 -0.0551  1.7417  0.2022
  113MOL    H3040574   2.630   0.624   5.930  1.5675 -1.2589 -3.5793
  113MOL    H3140575   2.433   0.810   5.964 -0.1242 -0.0381  1.3296
  113MOL    H3240576   2.691   0.912   6.059 -0.7281  0.9250  0.2305
  113MOL    H3340577   2.621   0.765   6.120  0.2384 -1.9819 -1.8229
  113MOL    H3440578   2.539   0.913   6.158  0.8656 -1.7300  0.7724
  113MOL    H3540579   2.512   1.044   5.911 -1.4885 -0.3932 -0.3606
  113MOL    H3640580   2.640   0.970   5.821  0.2597  1.1034 -0.5770
  113MOL    H3740581   2.465   0.955   5.771  1.2189  0.4411 -0.3556
  113MOL    C3840582   2.626   0.591   5.641 -0.9879 -0.9450  0.6418
  113MOL    C3940583   2.722   0.688   5.570  0.5232  0.4514  0.1738
  113MOL    C4040584   2.648   0.770   5.465  0.2650  0.2406  0.3461
  113MOL    C4140585   2.720   0.899   5.432  0.3540 -0.5070  0.0149
  113MOL    C4240586   2.714   1.012   5.539 -0.2670  0.3319  0.0053
  113MOL    C4340587   2.662   0.958   5.294  0.6560  0.1675 -0.1864
  113MOL    H4440588   2.563   0.540   5.568 -0.0553 -0.6924 -0.3442
  113MOL    H4540589   2.682   0.519   5.701  0.6605 -0.2214 -0.0033
  113MOL    H4640590   2.767   0.759   5.639  0.6581 -0.4867  1.0789
  113MOL    H4740591   2.553   0.805   5.506  1.1568  2.3628  0.6596
  113MOL    H4840592   2.629   0.700   5.383 -0.3201 -0.7874  1.3306
  113MOL    H4940593   2.824   0.875   5.409  0.9036  0.5056  1.3081
  113MOL    H5040594   2.610   1.043   5.553 -0.3019  0.0973  0.2580
  113MOL    H5140595   2.749   0.981   5.637 -0.6508  2.7829  0.9595
  113MOL    H5240596   2.780   1.091   5.502  1.4668 -1.2645 -0.3687
  113MOL    H5340597   2.738   1.001   5.229 -0.4249 -0.5319 -1.9419
  113MOL    H5440598   2.592   1.036   5.323  1.0873  0.7302 -0.6481
  113MOL    H5540599   2.616   0.881   5.232 -0.8165 -0.1308  1.2399
  113MOL    C5640600   2.830   0.603   5.498  0.3193  0.5699  0.2208
  113MOL    C5740601   2.934   0.541   5.588 -0.3781  0.8486  0.0567
  113MOL    C5840602   3.038   0.644   5.615  0.2503 -0.5536 -0.1359
  113MOL    C5940603   3.106   0.629   5.759 -0.4946  0.2462  0.2256
  113MOL    C6040604   3.008   0.688   5.865  0.8214  0.0999 -0.3554
  113MOL    C6140605   3.239   0.698   5.766 -0.1341 -0.2547 -0.3379
  113MOL    H6240606   2.884   0.657   5.420 -2.7891  0.3507 -2.1830
  113MOL    H6340607   2.776   0.520   5.452 -0.3780 -0.1501  2.2613
  113MOL    H6440608   2.893   0.514   5.686 -2.9319  0.1184 -1.1553
  113MOL    H6540609   3.121   0.633   5.545  1.9175  1.6467  1.4434
  113MOL    H6640610   3.004   0.747   5.609 -2.2929 -1.2859  1.3976
  113MOL    H6740611   3.129   0.524   5.778 -1.3799 -0.1561 -0.8941
  113MOL    H6840612   2.942   0.606   5.893  0.7677  0.0923 -0.5035
  113MOL    H6940613   2.940   0.768   5.837  1.4503  0.5736 -0.5518
  113MOL    H7040614   3.064   0.716   5.954  2.1386 -1.6022 -0.6129
  113MOL    H7140615   3.236   0.800   5.728 -0.0881  0.4491  1.4964
  113MOL    H7240616   3.307   0.633   5.711 -0.8870 -1.0986 -0.3024
  113MOL    H7340617   3.276   0.703   5.868  0.2541  1.1297 -0.5394
  113MOL    C7440618   2.990   0.413   5.530  0.3747 -0.6938 -0.2224
  113MOL    C7540619   2.897   0.291   5.560  0.4606 -0.2949 -0.4422
  113MOL    C7640620   2.927   0.239   5.702 -0.3598 -0.0679 -0.4896
  113MOL    C7740621   2.819   0.150   5.776  0.2320 -0.1811  0.0453
  113MOL    C7840622   2.695   0.233   5.817 -0.8489 -0.0292 -0.7922
  113MOL    C7940623   2.873   0.074   5.896  0.7760  0.2129 -0.0195
  113MOL    H8040624   3.095   0.395   5.556  0.4139  0.0181  0.1317
  113MOL    H8140625   2.991   0.419   5.422 -1.5105 -0.4496 -0.2350
  113MOL    H8240626   2.795   0.329   5.562  0.5698 -0.0254 -0.0415
  113MOL    H8340627   3.026   0.196   5.722  0.0636  0.0085 -2.3159
  113MOL    H8440628   2.924   0.327   5.766  0.1651 -1.3467  1.3149
  113MOL    H8540629   2.772   0.079   5.709  0.5902 -0.2721 -0.1072
  113MOL    H8640630   2.648   0.294   5.740  0.8790  1.0506 -1.0091
  113MOL    H8740631   2.719   0.309   5.892  0.8548 -0.1885 -1.1637
  113MOL    H8840632   2.616   0.178   5.868 -1.7819  3.4928  1.7695
  113MOL    H8940633   2.789   0.015   5.933  0.9485 -0.3729 -0.5440
  113MOL    H9040634   2.959   0.020   5.857  0.7957 -0.9944  1.6274
  113MOL    H9140635   2.906   0.129   5.984 -0.2694  2.6934 -1.1419
  113MOL    C9240636   2.903   0.169   5.458  0.0479  0.2958  0.5972
  113MOL    C9340637   2.777   0.147   5.361 -0.7930 -0.1569 -0.0026
  113MOL    C9440638   2.652   0.093   5.439 -0.1566 -0.2471  0.1154
  113MOL    C9540639   2.660   7.697   5.462 -0.3787  0.1791  0.4071
  113MOL    C9640640   2.540   7.644   5.538 -0.5526  0.8754  0.1017
  113MOL    C9740641   2.692   7.612   5.333 -0.9385 -0.6815  0.0623
  113MOL    H9840642   2.999   0.174   5.407  0.6069 -0.1824  1.5915
  113MOL    H9940643   2.916   0.077   5.514 -1.5015 -0.8955 -0.9402
  113MOL   H10040644   2.812   0.081   5.281  0.5148 -2.1867  2.1871
  113MOL   H10140645   2.557   0.110   5.389  0.3332 -0.0774 -0.7554
  113MOL   H10240646   2.646   0.144   5.535 -1.9545 -0.8153  0.3267
  113MOL   H10340647   2.739   7.678   5.535  1.6194  0.5197 -1.6149
  113MOL   H10440648   2.455   7.656   5.471 -1.5234 -1.3769  0.8758
  113MOL   H10540649   2.519   7.708   5.624  0.9880  2.0021 -0.3323
  113MOL   H10640650   2.550   7.537   5.560 -1.9850  0.9382  1.1590
  113MOL   H10740651   2.651   7.512   5.344 -0.6304 -0.7536  0.5644
  113MOL   H10840652   2.796   7.584   5.342 -0.6356  0.2139 -0.5668
  113MOL   H10940653   2.678   7.654   5.233 -0.1872 -2.1324 -0.6705
  113MOL   C11040654   2.747   0.277   5.288  0.3686  0.2780 -0.0014
  113MOL   C11140655   2.653   0.247   5.162 -0.7879  0.6099 -0.1728
  113MOL   C11240656   2.576   0.374   5.118 -0.5341 -0.0606 -0.1051
  113MOL   C11340657   2.483   0.449   5.220 -0.1885 -0.5227 -0.6257
  113MOL   C11440658   2.363   0.361   5.251  0.4200  0.3004  0.5763
  113MOL   C11540659   2.442   0.589   5.162 -0.1315 -0.0051  0.5164
  113MOL   H11640660   2.844   0.316   5.256 -0.1893  0.6803 -1.2242
  113MOL   H11740661   2.705   0.350   5.356  0.5473  0.8070 -0.4558
  113MOL   H11840662   2.571   0.182   5.191 -0.9192  0.2555 -1.3154
  113MOL   H11940663   2.506   0.341   5.040  0.1600 -1.5180 -0.1241
  113MOL   H12040664   2.651   0.442   5.080  1.1480 -0.0548  3.1179
  113MOL   H12140665   2.538   0.481   5.308 -1.9122  1.0317 -0.0727
  113MOL   H12240666   2.317   0.335   5.155 -1.3762 -0.3746  1.5944
  113MOL   H12340667   2.293   0.424   5.306  0.2886 -1.0517  1.9570
  113MOL   H12440668   2.382   0.273   5.312 -1.1930  0.2080  0.9693
  113MOL   H12540669   2.354   0.633   5.209 -1.2666 -2.2491  0.5970
  113MOL   H12640670   2.421   0.584   5.055 -0.5037  1.2395  0.5290
  113MOL   H12740671   2.525   0.659   5.159  0.8899 -1.2299 -3.6097
  113MOL   C12840672   2.729   0.180   5.047 -0.1577 -0.2162 -0.0271
  113MOL   C12940673   2.848   0.249   4.980  0.4039  0.3512  0.1746
  113MOL   C13040674   2.844   0.221   4.824  0.5418  0.4799 -0.2235
  113MOL   C13140675   2.740   0.304   4.749 -0.1658  0.0305 -0.6316
  113MOL   C13240676   2.744   0.456   4.772 -0.2152 -0.5989 -0.0213
  113MOL   C13340677   2.763   0.286   4.604 -0.4429 -0.9025  0.2127
  113MOL   H13440678   2.655   0.167   4.967 -0.4694  0.0067  0.2251
  113MOL   H13540679   2.755   0.077   5.069 -1.2431 -0.3494  0.6924
  113MOL   H13640680   2.836   0.356   4.997  1.3325  0.4146  0.4779
  113MOL   H13740681   2.942   0.240   4.782 -0.2817  2.4768 -1.3381
  113MOL   H13840682   2.817   0.119   4.798 -0.3959  0.6640  0.0019
  113MOL   H13940683   2.638   0.266   4.757  0.1817 -0.9953 -1.0836
  113MOL   H14040684   2.845   0.495   4.778  0.5802 -2.2627 -2.1018
  113MOL   H14140685   2.689   0.496   4.858 -0.2962  1.1190 -0.8641
  113MOL   H14240686   2.699   0.509   4.688  1.6308  1.8537  0.5092
  113MOL   H14340687   2.855   0.335   4.571 -2.0810  1.7601 -0.5364
  113MOL   H14440688   2.773   0.180   4.581 -2.9712 -1.0621 -0.3137
  113MOL   H14540689   2.678   0.330   4.552  0.1645  1.5598  1.2322
  113MOL   C14640690   2.981   0.200   5.038 -0.0940 -0.5953  0.0906
  113MOL   C14740691   3.097   0.308   5.017  0.6509 -0.0605  0.1714
  113MOL   C14840692   3.234   0.243   5.029 -0.3943  0.2640  0.3505
  113MOL   C14940693   3.264   0.123   4.939 -0.2159 -0.1113 -0.6900
  113MOL   C15040694   3.251   0.152   4.790 -1.1215 -0.2391 -0.1828
  113MOL   C15140695   3.407   0.078   4.971  0.3057  0.2880  0.4923
  113MOL   H15240696   3.017   0.105   4.999  0.5607  0.2672 -1.4249
  113MOL   H15340697   2.974   0.178   5.145 -1.5258  2.2141  0.6258
  113MOL   H15440698   3.089   0.350   4.917  0.6284  0.2130  0.2897
  113MOL   H15540699   3.315   0.313   5.009  0.1740 -0.7723 -0.9848
  113MOL   H15640700   3.254   0.214   5.132 -0.5884 -3.0412 -0.4812
  113MOL   H15740701   3.201   0.034   4.951  2.0939 -1.5425  1.1322
  113MOL   H15840702   3.148   0.180   4.765  0.0377  2.0105 -2.6100
  113MOL   H15940703   3.280   0.059   4.741  1.1497 -0.0847  0.8191
  113MOL   H16040704   3.318   0.224   4.744 -1.6236  0.3153 -0.0449
  113MOL   H16140705   3.449   7.748   4.914 -0.8264  0.9226 -1.2897
  113MOL   H16240706   3.416   0.064   5.079 -0.4624  1.8303  0.7744
  113MOL   H16340707   3.479   0.159   4.962  0.7912 -0.1765  0.2323
  113MOL   C16440708   3.088   0.438   5.101  0.1943  0.5525 -0.1733
  113MOL   C16540709   3.096   0.570   5.026  0.6847  0.4477 -0.5900
  113MOL   C16640710   3.052   0.688   5.124 -0.1467  0.8402 -0.2934
  113MOL   C16740711   3.001   0.816   5.047 -0.6103 -0.1017 -0.0268
  113MOL   C16840712   2.862   0.799   4.977 -0.0907 -0.3816 -0.5134
  113MOL   C16940713   3.007   0.945   5.132 -0.1049  0.6856 -0.1880
  113MOL   H17040714   2.986   0.441   5.140  0.4657  0.5416  0.5296
  113MOL   H17140715   3.146   0.432   5.192  0.7306 -1.2727 -0.6140
  113MOL   H17240716   3.021   0.549   4.950  0.4450 -0.5758 -0.0761
  113MOL   H17340717   2.972   0.660   5.193 -0.0217  1.6841  0.2029
  113MOL   H17440718   3.138   0.706   5.188  0.8952 -1.2786 -1.0412
  113MOL   H17540719   3.063   0.845   4.962 -0.4663  2.2652  0.8407
  113MOL   H17640720   2.871   0.747   4.882 -1.0585 -0.6201 -0.4819
  113MOL   H17740721   2.827   0.900   4.958 -1.0561 -0.4966  0.6072
  113MOL   H17840722   2.791   0.731   5.025 -0.0655  0.0968  0.2070
  113MOL   H17940723   2.975   0.945   5.236  2.3939  0.7881  0.6084
  113MOL   H18040724   2.952   1.032   5.096  0.2870  0.8925 -0.2979
  113MOL   H18140725   3.108   0.985   5.146 -0.3508  1.7716 -1.5006
  113MOL   C18240726   3.232   0.597   4.964 -0.0135  0.3065  0.6041
  113MOL   C18340727   3.260   0.564   4.813  0.0104  0.6671  0.3517
  113MOL   C18440728   3.173   0.648   4.711 -0.7230  0.2931 -0.1016
  113MOL   C18540729   3.164   0.610   4.567  0.0040  1.0272  0.3583
  113MOL   C18640730   3.148   0.460   4.538 -0.1149  0.1029 -0.5010
  113MOL   C18740731   3.043   0.685   4.506  0.3770 -0.2293  0.4866
  113MOL   H18840732   3.308   0.542   5.020  0.2878 -1.0656 -1.1199
  113MOL   H18940733   3.267   0.698   4.990  3.6765 -0.1049 -2.2665
  113MOL   H19040734   3.239   0.458   4.797 -3.0276  1.2110  0.6133
  113MOL   H19140735   3.203   0.752   4.721 -0.1264  0.1548 -0.4472
  113MOL   H19240736   3.080   0.654   4.766  0.6389  1.1633  2.1835
  113MOL   H19340737   3.256   0.636   4.514  0.3360  1.4701  1.1457
  113MOL   H19440738   3.127   0.458   4.431 -3.6300 -0.2219  0.1272
  113MOL   H19540739   3.067   0.413   4.593 -0.9334  3.0876  0.9374
  113MOL   H19640740   3.242   0.411   4.563 -0.7528  0.1693  2.1297
  113MOL   H19740741   3.034   0.686   4.397 -0.3523 -1.6790  0.5320
  113MOL   H19840742   3.059   0.792   4.522 -3.2564  0.6529 -1.3679
  113MOL   H19940743   2.945   0.666   4.549 -0.3779 -0.1042 -1.1294
  113MOL   C20040744   3.410   0.562   4.777 -0.5623 -0.0723 -0.4520
  113MOL   C20140745   3.498   0.683   4.820  0.0381 -0.5676  0.5348
  113MOL   C20240746   3.487   0.795   4.716 -0.1258  0.0374 -0.0965
  113MOL   C20340747   3.547   0.926   4.755  0.1763  0.0318  0.6035
  113MOL   C20440748   3.544   1.031   4.639 -0.2082 -0.3950 -0.6860
  113MOL   C20540749   3.499   0.986   4.884 -0.5517  0.2736  0.9628
  113MOL   H20640750   3.425   0.544   4.670  0.8654  0.0858 -0.2927
  113MOL   H20740751   3.449   0.468   4.815 -1.9416 -0.1955  0.6698
  113MOL   H20840752   3.446   0.709   4.912 -0.5329 -0.9408  0.3210
  113MOL   H20940753   3.533   0.757   4.625 -0.1434 -0.3148  0.0407
  113MOL   H21040754   3.384   0.819   4.689 -0.3920  1.0199  1.7090
  113MOL   H21140755   3.653   0.901   4.759  0.2729  0.0784 -1.1870
  113MOL   H21240756   3.613   1.112   4.664 -2.7169  1.2570  1.2476
  113MOL   H21340757   3.443   1.069   4.624 -0.5382 -1.2406 -0.6098
  113MOL   H21440758   3.584   0.988   4.548  1.8563  1.8257 -0.8835
  113MOL   H21540759   3.551   1.080   4.900 -1.8770  0.9703  1.2742
  113MOL   H21640760   3.496   0.930   4.977 -2.0974  1.2584  1.5314
  113MOL   H21740761   3.400   1.030   4.870 -0.0617  1.2147  0.4088
  113MOL   C21840762   3.649   0.646   4.868 -0.0597  0.0685  0.4574
  113MOL   C21940763   3.737   0.562   4.769 -0.4259  0.1075 -0.5229
  113MOL   C22040764   3.832   0.464   4.850 -0.2624 -0.4773 -0.0219
  113MOL   C22140765   3.749   0.338   4.899  0.0839 -0.3135 -0.2795
  113MOL   C22240766   3.726   0.241   4.784 -0.4527 -0.1105 -0.2061
  113MOL   C22340767   3.817   0.268   5.022  0.1565 -0.4583 -0.3924
  113MOL   H22440768   3.699   0.743   4.878 -1.0977  0.5618  0.9417
  113MOL   H22540769   3.639   0.612   4.971 -0.3993  0.2415  0.4846
  113MOL   H22640770   3.675   0.509   4.696 -2.7193  1.5404  0.3720
  113MOL   H22740771   3.921   0.426   4.799  0.5127  0.5506  0.5358
  113MOL   H22840772   3.884   0.524   4.924  0.5136  0.6676 -1.4592
  113MOL   H22940773   3.650   0.371   4.931 -0.5704 -2.9298  0.5706
  113MOL   H23040774   3.655   0.162   4.810  2.0580 -3.2058 -2.2642
  113MOL   H23140775   3.675   0.284   4.698  0.9962  1.0351 -0.5101
  113MOL   H23240776   3.815   0.195   4.741  0.6189  0.8591  0.9310
  113MOL   H23340777   3.916   0.234   4.993  1.0125  1.4549  0.2698
  113MOL   H23440778   3.826   0.348   5.095 -0.9091 -0.8469  0.1817
  113MOL   H23540779   3.755   0.195   5.074  1.1598 -0.0839  1.3593
  113MOL   C23640780   3.820   0.663   4.685  0.3834  0.6023 -0.3696
  113MOL   C23740781   3.904   0.609   4.566  0.3396 -0.4511  0.1068
  113MOL   C23840782   3.936   0.722   4.464 -0.6924 -0.1526 -0.2620
  113MOL   C23940783   4.001   0.848   4.527 -0.0736  0.2107  0.2349
  113MOL   C24040784   4.159   0.846   4.535 -0.2557 -0.5487 -0.0124
  113MOL   C24140785   3.952   0.974   4.445 -0.8156  0.9347 -0.3116
  113MOL   H24240786   3.878   0.719   4.758  0.8751 -1.3939  0.7921
  113MOL   H24340787   3.751   0.740   4.650 -0.1184 -0.2453 -1.2840
  113MOL   H24440788   4.002   0.574   4.599  1.3606  2.3310  0.1947
  113MOL   H24540789   3.841   0.743   4.414 -0.6643 -2.6929 -1.4970
  113MOL   H24640790   4.004   0.687   4.386 -0.0322  1.9169 -0.6490
  113MOL   H24740791   3.963   0.866   4.628  0.7596  2.3026  0.1947
  113MOL   H24840792   4.210   0.831   4.440  2.2896  0.5028  1.1386
  113MOL   H24940793   4.190   0.785   4.619 -0.6680  2.4845  2.4585
  113MOL   H25040794   4.200   0.940   4.572  1.1537 -0.4749 -1.6901
  113MOL   H25140795   4.003   0.986   4.350  2.4650 -3.4649  0.7509
  113MOL   H25240796   3.963   1.063   4.507 -2.2527  0.3203  0.8468
  113MOL   H25340797   3.846   0.958   4.424 -0.5115 -0.9121 -0.5013
  113MOL   C25440798   3.838   0.482   4.497 -0.6073  0.0783  0.1831
  113MOL   C25540799   3.923   0.398   4.415 -0.3892 -0.1772 -0.3834
  113MOL   C25640800   4.009   0.313   4.514 -1.2883  0.5380  0.7454
  113MOL   C25740801   4.138   0.267   4.435  0.0484 -0.1201 -1.0254
  113MOL   C25840802   4.197   0.152   4.510  0.1989  0.2154  0.0205
  113MOL   C25940803   4.234   0.390   4.426  0.2968 -0.1985  0.3285
  113MOL   H26040804   3.798   0.410   4.569 -2.1168 -1.5271 -2.1739
  113MOL   H26140805   3.745   0.520   4.454 -0.8696  0.0667  0.7305
  113MOL   H26240806   3.980   0.466   4.352 -2.3341  0.8846 -1.0186
  113MOL   H26340807   3.945   0.226   4.532  0.0431 -0.4647  0.6487
  113MOL   H26440808   4.043   0.357   4.607 -1.1770 -0.6318  1.2694
  113MOL   H26540809   4.113   0.235   4.333  0.1890 -1.0266 -0.7817
  113MOL   H26640810   4.198   0.167   4.618  0.4512 -1.3099  0.2428
  113MOL   H26740811   4.292   0.137   4.460 -0.7740  0.6342 -2.0200
  113MOL   H26840812   4.133   0.064   4.500 -0.5887  0.7820  0.0081
  113MOL   H26940813   4.239   0.447   4.519 -1.5433  1.4410 -0.5401
  113MOL   H27040814   4.337   0.364   4.402  0.4156  0.7388 -0.2151
  113MOL   H27140815   4.200   0.454   4.344  0.7380 -1.9684 -1.2797
  113MOL   C27240816   3.831   0.310   4.328  0.2727 -0.2623  0.2576
  113MOL   C27340817   3.769   0.393   4.208  0.0956  0.0074 -0.9407
  113MOL   C27440818   3.813   0.334   4.075  0.5993 -0.1472  0.0636
  113MOL   C27540819   3.951   0.367   4.027  0.1204  0.1002 -0.7360
  113MOL   C27640820   3.975   0.512   4.013  1.1353  0.4669  0.6746
  113MOL   C27740821   3.996   0.296   3.891 -0.6017 -0.2892 -0.0532
  113MOL   H27840822   3.887   0.224   4.293 -3.8207 -2.4936 -1.1244
  113MOL   H27940823   3.757   0.275   4.400  0.9436 -0.7117  0.7365
  113MOL   H28040824   3.813   0.492   4.215  2.9465 -1.3264  1.0747
  113MOL   H28140825   3.753   0.363   3.989  1.0831  0.5618 -0.0309
  113MOL   H28240826   3.798   0.226   4.075 -1.6728  0.1415 -0.8493
  113MOL   H28340827   4.024   0.330   4.099 -0.1290  1.1741  0.0758
  113MOL   H28440828   3.924   0.553   3.926  0.4213 -1.1435  0.3058
  113MOL   H28540829   3.933   0.570   4.095 -4.2958 -1.8604 -0.2413
  113MOL   H28640830   4.081   0.538   4.011  1.4291 -0.6727  1.0692
  113MOL   H28740831   4.103   0.281   3.882 -0.3203  1.7449 -0.4909
  113MOL   H28840832   3.963   0.192   3.889  0.2258 -0.5572  0.2158
  113MOL   H28940833   3.960   0.350   3.804 -1.4837  2.2643  1.8100
  113MOL   C29040834   3.614   0.390   4.216 -0.1443 -0.1252  0.2195
  113MOL   C29140835   3.545   0.504   4.139 -0.2727 -1.0137 -0.1084
  113MOL   C29240836   3.396   0.474   4.107  0.2385  0.0088  0.2568
  113MOL   C29340837   3.373   0.373   3.993 -0.4096  0.5415 -0.2431
  113MOL   C29440838   3.229   0.326   3.992 -0.3267  0.2102 -0.0679
  113MOL   C29540839   3.426   0.417   3.854 -0.0073  0.0004 -0.0661
  113MOL   H29640840   3.572   0.294   4.188 -0.2080  0.1178 -0.5206
  113MOL   H29740841   3.576   0.407   4.317  0.8243  2.2926  0.1981
  113MOL   H29840842   3.600   0.531   4.050 -0.1667  1.5669  0.6984
  113MOL   H29940843   3.340   0.565   4.083  0.3420  0.7193  2.6288
  113MOL   H30040844   3.359   0.433   4.201  1.8881  0.4513  1.1097
  113MOL   H30140845   3.432   0.282   4.009 -2.0477 -0.6939 -1.0305
  113MOL   H30240846   3.198   0.305   4.094 -1.0101  2.8429  0.3051
  113MOL   H30340847   3.227   0.240   3.925  1.8726  0.8041 -0.9304
  113MOL   H30440848   3.162   0.402   3.951  0.8495  1.3138  0.0509
  113MOL   H30540849   3.401   0.346   3.775  0.2933 -0.8734  0.6203
  113MOL   H30640850   3.533   0.434   3.846  0.1544 -0.9925 -0.0800
  113MOL   H30740851   3.372   0.511   3.840 -2.5805 -1.0925  1.9887
  113MOL   C30840852   3.547   0.633   4.224  0.3438  0.4000 -0.2836
  113MOL   C30940853   3.542   0.764   4.152 -0.8174 -0.1920 -0.2383
  113MOL   C31040854   3.484   0.880   4.242 -0.2029  0.3917  0.2010
  113MOL   C31140855   3.325   0.894   4.260 -0.3616 -0.2142 -0.1140
  113MOL   C31240856   3.281   1.014   4.335 -0.5927  0.1721 -0.1927
  113MOL   C31340857   3.237   0.875   4.133 -0.4267 -0.1417 -0.0010
  113MOL   H31440858   3.480   0.618   4.309  1.9276  0.5320  1.0188
  113MOL   H31540859   3.634   0.637   4.289  0.8545 -0.0770 -0.9271
  113MOL   H31640860   3.476   0.758   4.066  0.0761  0.4632 -0.9836
  113MOL   H31740861   3.530   0.972   4.205 -0.8885 -0.0768 -1.8410
  113MOL   H31840862   3.522   0.865   4.344 -1.1262 -2.7140  0.1301
  113MOL   H31940863   3.301   0.803   4.315 -2.9719  0.1548 -0.5729
  113MOL   H32040864   3.180   0.999   4.373 -0.1566  0.7129  1.2070
  113MOL   H32140865   3.297   1.098   4.268  0.3203 -0.5024 -0.8398
  113MOL   H32240866   3.346   1.016   4.423 -0.1189  0.0105 -0.5385
  113MOL   H32340867   3.243   0.951   4.055  2.0952 -0.3266 -0.0546
  113MOL   H32440868   3.262   0.787   4.074  0.2189  0.8992 -1.3109
  113MOL   H32540869   3.133   0.859   4.158 -0.0887  0.2636  1.7617
  113MOL   C32640870   3.687   0.793   4.098  0.5900 -0.1789  0.1230
  113MOL   C32740871   3.710   0.918   4.006 -1.3070  0.4438 -0.2457
  113MOL   C32840872   3.637   0.900   3.869  0.3283 -0.5173 -0.1740
  113MOL   C32940873   3.488   0.953   3.873 -1.3764 -0.6390 -0.3243
  113MOL   C33040874   3.479   1.107   3.838  0.3421 -0.0232 -0.1716
  113MOL   C33140875   3.396   0.877   3.773  0.1519  0.1851  0.4580
  113MOL   H33240876   3.735   0.709   4.047  1.2990 -0.0266  0.5226
  113MOL   H33340877   3.749   0.804   4.187 -0.3763 -0.7817  0.8861
  113MOL   H33440878   3.683   1.012   4.053  0.8952  1.1107 -0.2382
  113MOL   H33540879   3.690   0.948   3.786 -1.4583  1.2869 -0.2909
  113MOL   H33640880   3.641   0.793   3.848 -0.5918 -0.6529  0.3343
  113MOL   H33740881   3.436   0.950   3.968  0.6368 -0.1332  0.8241
  113MOL   H33840882   3.497   1.164   3.929 -1.3347  0.4111 -0.1029
  113MOL   H33940883   3.382   1.149   3.811 -0.4445 -1.4494  0.4092
  113MOL   H34040884   3.550   1.116   3.756  1.4595 -0.1225  0.7660
  113MOL   H34140885   3.297   0.914   3.746 -0.7396 -1.5735  1.2405
  113MOL   H34240886   3.450   0.872   3.678  1.1472  0.0490  1.0221
  113MOL   H34340887   3.387   0.772   3.801 -0.5499  0.5302  1.5235
  113MOL   C34440888   3.864   0.928   3.984 -0.4872  0.2144 -0.5094
  113MOL   C34540889   3.902   1.061   3.922 -0.2404  0.0699  0.8364
  113MOL   C34640890   4.058   1.081   3.912 -0.4454  0.4145 -0.0989
  113MOL   C34740891   4.088   1.207   3.829 -0.8078 -0.3310 -0.1605
  113MOL   C34840892   4.246   1.223   3.814  0.0013  1.1224  0.1069
  113MOL   C34940893   4.035   1.340   3.889  0.1536  0.2615  0.4081
  113MOL   H35040894   3.897   0.848   3.918  0.5059  0.2189 -0.0401
  113MOL   H35140895   3.925   0.923   4.075  1.6182  1.8371 -1.7909
  113MOL   H35240896   3.868   1.146   3.981 -1.2271  0.8340 -0.7967
  113MOL   H35340897   4.098   1.096   4.012 -0.1408  0.8567 -0.2853
  113MOL   H35440898   4.109   0.990   3.881 -1.1967 -0.3053  0.7239
  113MOL   H35540899   4.059   1.187   3.726  1.3887 -2.0430 -0.4732
  113MOL   H35640900   4.295   1.136   3.770 -0.6442 -0.0223  1.6050
  113MOL   H35740901   4.262   1.304   3.743 -0.0104  0.1050 -1.0688
  113MOL   H35840902   4.290   1.245   3.911 -1.5905 -0.8353  1.3395
  113MOL   H35940903   4.052   1.342   3.997 -0.1929  1.9318  0.4546
  113MOL   H36040904   3.927   1.347   3.884  0.0408 -2.0551 -0.7977
  113MOL   H36140905   4.079   1.433   3.851 -0.4909 -0.6720 -2.7677
  113MOL   H36240906   3.862   1.077   3.821 -0.9245  1.6090  1.3295
  114MOL     C140907   2.647   7.118   3.751 -0.4079 -0.2629 -0.2746
  114MOL     C240908   2.502   7.102   3.818 -0.3290 -0.9032 -0.8813
  114MOL     C340909   2.402   7.195   3.746 -0.0786 -0.4699 -0.2441
  114MOL     C440910   2.250   7.176   3.774  0.1454  0.3705  0.7275
  114MOL     C540911   2.193   7.049   3.713  0.3312 -0.0406 -0.4470
  114MOL     C640912   2.180   7.298   3.721 -0.8768 -0.4063  0.0623
  114MOL     H740913   2.640   7.115   3.642 -0.5201  0.1190 -0.2776
  114MOL     H840914   2.688   7.215   3.777 -3.6084  1.1118 -0.0716
  114MOL     H940915   2.471   7.001   3.793 -0.2185 -1.0368 -0.4847
  114MOL    H1040916   2.428   7.297   3.777 -1.4898 -0.3268  0.5224
  114MOL    H1140917   2.417   7.179   3.640  1.2053 -1.7812  0.1239
  114MOL    H1240918   2.230   7.167   3.881 -2.4027 -1.9053  0.1257
  114MOL    H1340919   2.176   7.060   3.606  0.1162  0.1707 -0.3904
  114MOL    H1440920   2.265   6.968   3.725  0.0914 -0.1856  0.0247
  114MOL    H1540921   2.100   7.028   3.765  0.3777  1.0604  0.0975
  114MOL    H1640922   2.072   7.285   3.729 -0.7841 -1.0418  0.3154
  114MOL    H1740923   2.205   7.314   3.616  0.5953 -0.1937  0.4299
  114MOL    H1840924   2.201   7.385   3.782 -0.8272  0.4540 -1.1661
  114MOL    H1940925   2.717   7.039   3.779 -1.0295 -1.2346 -1.3721
  114MOL    C2040926   2.505   7.122   3.974  0.6186 -0.4431 -0.4565
  114MOL    C2140927   2.597   7.034   4.068 -0.3721 -0.0612 -0.3501
  114MOL    C2240928   2.670   7.120   4.180 -0.7303 -0.2014 -0.1899
  114MOL    C2340929   2.770   7.229   4.132 -0.5161 -0.4397  0.1354
  114MOL    C2440930   2.793   7.328   4.251  0.2730 -0.3909  0.0792
  114MOL    C2540931   2.898   7.179   4.068  0.1355 -0.5634 -0.2327
  114MOL    H2640932   2.523   7.229   3.985  0.0212  0.0086 -3.4429
  114MOL    H2740933   2.405   7.115   4.018  0.2617 -0.6634 -1.2959
  114MOL    H2840934   2.684   7.000   4.011 -0.5693 -0.5966 -0.3381
  114MOL    H2940935   2.722   7.046   4.240 -1.4669 -1.3035 -0.8895
  114MOL    H3040936   2.594   7.174   4.236  0.5373  1.2111  0.1933
  114MOL    H3140937   2.728   7.287   4.050 -1.2686 -1.8683 -0.5113
  114MOL    H3240938   2.699   7.362   4.294  1.7511  0.6745  2.5542
  114MOL    H3340939   2.843   7.416   4.211  0.7477  1.5072  4.5553
  114MOL    H3440940   2.841   7.273   4.331  1.3234  0.0945 -0.2018
  114MOL    H3540941   2.969   7.259   4.052 -0.6299 -0.2038 -1.8907
  114MOL    H3640942   2.953   7.113   4.136 -0.0017 -0.0292  0.4063
  114MOL    H3740943   2.894   7.127   3.973 -1.3570  1.5916 -1.3770
  114MOL    C3840944   2.539   6.903   4.113 -0.6803  0.4950  0.2135
  114MOL    C3940945   2.643   6.790   4.125 -0.3448  0.1954 -0.4032
  114MOL    C4040946   2.686   6.728   3.981  0.0076  0.1818 -0.3736
  114MOL    C4140947   2.842   6.723   3.957  0.3038 -0.1488  0.1428
  114MOL    C4240948   2.889   6.710   3.809  0.0804 -0.2278  0.1074
  114MOL    C4340949   2.897   6.611   4.045  0.7216 -0.2503 -0.6308
  114MOL    H4440950   2.457   6.865   4.051 -0.6857  0.6148  0.1485
  114MOL    H4540951   2.498   6.922   4.212 -0.8732 -0.7124  0.3801
  114MOL    H4640952   2.729   6.844   4.166 -1.8117  2.9928 -0.9579
  114MOL    H4740953   2.649   6.786   3.897  0.3339  0.5038 -0.2994
  114MOL    H4840954   2.633   6.633   3.972 -1.1978  0.9558 -1.5700
  114MOL    H4940955   2.883   6.820   3.987 -3.0822  1.8335 -1.3660
  114MOL    H5040956   2.883   6.808   3.762  1.6431 -0.0086  0.3316
  114MOL    H5140957   2.986   6.665   3.788  0.7227  1.7534 -1.3645
  114MOL    H5240958   2.828   6.634   3.762 -1.3162 -0.1142  1.6736
  114MOL    H5340959   2.995   6.577   4.013  0.1640 -3.9765  1.3378
  114MOL    H5440960   2.837   6.520   4.041 -0.3823  0.4827 -1.1353
  114MOL    H5540961   2.891   6.650   4.147 -2.0462  1.5920 -1.4560
  114MOL    C5640962   2.600   6.672   4.210 -0.3911 -0.0139 -0.6497
  114MOL    C5740963   2.558   6.687   4.361  0.8047  0.3821  0.8699
  114MOL    C5840964   2.674   6.758   4.440 -0.3829  0.3336 -0.5260
  114MOL    C5940965   2.651   6.781   4.592  0.0527  1.1739  0.6258
  114MOL    C6040966   2.539   6.890   4.610 -0.5722 -0.5250  0.6212
  114MOL    C6140967   2.774   6.832   4.666 -0.2140 -0.0056  0.3862
  114MOL    H6240968   2.676   6.595   4.200  0.5490  0.5699  1.7429
  114MOL    H6340969   2.511   6.638   4.155 -0.4498 -1.5748  0.3646
  114MOL    H6440970   2.474   6.757   4.355 -0.4848 -1.3275 -3.3998
  114MOL    H6540971   2.773   6.717   4.418 -1.0685 -1.2328 -0.7107
  114MOL    H6640972   2.683   6.855   4.390 -1.1527  1.2824  1.1284
  114MOL    H6740973   2.618   6.686   4.634  2.4990 -0.4941 -1.0995
  114MOL    H6840974   2.570   6.976   4.551  0.7493 -1.1999  0.3222
  114MOL    H6940975   2.525   6.928   4.712  0.7233 -0.1801  0.6795
  114MOL    H7040976   2.441   6.861   4.573 -0.5311  2.4833 -2.0202
  114MOL    H7140977   2.760   6.826   4.774 -1.0306 -1.0525  0.2300
  114MOL    H7240978   2.803   6.934   4.642 -3.1779  0.3055 -2.1483
  114MOL    H7340979   2.853   6.757   4.661 -2.4281 -2.3428 -0.3284
  114MOL    C7440980   2.523   6.550   4.422  0.0560 -0.3899 -0.3937
  114MOL    C7540981   2.369   6.530   4.417 -0.4040  0.3771 -0.8495
  114MOL    C7640982   2.285   6.601   4.521  0.2517  0.0847 -0.5527
  114MOL    C7740983   2.134   6.599   4.501 -0.5094 -0.3734 -0.0656
  114MOL    C7840984   2.084   6.662   4.374 -0.1375 -0.3435 -0.4008
  114MOL    C7940985   2.062   6.658   4.624 -0.0082 -0.3097  0.5939
  114MOL    H8040986   2.562   6.538   4.523 -1.0444 -3.0075 -0.2355
  114MOL    H8140987   2.578   6.475   4.365  3.9230  2.3248 -0.4538
  114MOL    H8240988   2.332   6.577   4.326 -0.4562  1.4845 -0.2681
  114MOL    H8340989   2.303   6.562   4.621  3.4390 -0.3597 -1.2468
  114MOL    H8440990   2.313   6.706   4.510  1.9477 -0.3630 -0.6362
  114MOL    H8540991   2.103   6.494   4.497 -1.1254 -0.3213  2.2460
  114MOL    H8640992   2.120   6.764   4.361 -0.5135 -0.0990  0.4365
  114MOL    H8740993   1.976   6.666   4.370 -0.0701  0.7379 -1.4279
  114MOL    H8840994   2.111   6.613   4.281  2.4457  0.8416 -0.3427
  114MOL    H8940995   2.072   6.766   4.614 -0.1129 -0.5609 -3.0453
  114MOL    H9040996   1.954   6.641   4.628 -0.4275  2.0946  0.2607
  114MOL    H9140997   2.103   6.640   4.723  0.0809 -0.2391  0.5692
  114MOL    C9240998   2.340   6.379   4.418  0.1979  0.1116  0.4143
  114MOL    C9340999   2.274   6.328   4.285 -0.4528  0.2283  0.5218
  114MOL    C9441000   2.377   6.328   4.166  0.6017 -0.0124 -0.1695
  114MOL    C9541001   2.310   6.357   4.025  0.0743  0.3692  0.8446
  114MOL    C9641002   2.282   6.509   4.010  0.2533 -0.1355 -0.1964
  114MOL    C9741003   2.382   6.305   3.906 -0.4143 -0.4174  0.6282
  114MOL    H9841004   2.426   6.319   4.446 -0.8118 -1.2673  0.6432
  114MOL    H9941005   2.266   6.353   4.493 -0.6922 -0.6496 -0.7016
  114MOL   H10041006   2.185   6.387   4.266 -1.1544 -0.6316  1.1200
  114MOL   H10141007   2.429   6.232   4.158  1.1292  0.3424 -1.0782
  114MOL   H10241008   2.463   6.395   4.173  1.6672 -0.9991 -2.9972
  114MOL   H10341009   2.213   6.309   4.026 -0.9389  2.3688  1.0191
  114MOL   H10441010   2.206   6.526   3.934 -1.0281 -2.1972  0.5771
  114MOL   H10541011   2.366   6.571   3.979 -0.1205 -0.7602 -2.5159
  114MOL   H10641012   2.241   6.549   4.103 -1.1840 -3.6828  0.8037
  114MOL   H10741013   2.337   6.338   3.812  0.3399  0.9687  0.7410
  114MOL   H10841014   2.384   6.196   3.902  1.4486 -0.4362  1.5268
  114MOL   H10941015   2.488   6.330   3.918 -0.8204  0.5022  2.4660
  114MOL   C11041016   2.214   6.180   4.293 -0.9747  0.5475 -0.1909
  114MOL   C11141017   2.087   6.170   4.382 -0.1522 -0.2765 -0.3086
  114MOL   C11241018   1.972   6.095   4.314 -0.8492  0.1077 -0.4214
  114MOL   C11341019   1.915   6.160   4.184 -0.8492  0.2212  0.2260
  114MOL   C11441020   1.857   6.297   4.219  0.1597 -0.4980 -0.1880
  114MOL   C11541021   1.812   6.064   4.128 -0.0536 -0.0664 -0.7606
  114MOL   H11641022   2.293   6.115   4.331 -0.8300  0.0908 -1.2529
  114MOL   H11741023   2.196   6.148   4.190  0.8033  2.1307 -1.0219
  114MOL   H11841024   2.046   6.268   4.404  0.1913  0.1631 -1.5476
  114MOL   H11941025   1.886   6.081   4.380 -1.5242  4.0481 -0.3718
  114MOL   H12041026   2.018   5.998   4.293  2.6031  1.7661 -0.8949
  114MOL   H12141027   1.996   6.157   4.110 -1.3001 -1.3558 -0.2288
  114MOL   H12241028   1.929   6.356   4.275  1.7408 -0.7521 -1.9009
  114MOL   H12341029   1.765   6.279   4.275 -0.1309 -1.7650 -1.0334
  114MOL   H12441030   1.839   6.351   4.126  1.1315 -0.1842 -0.1892
  114MOL   H12541031   1.863   5.975   4.091  0.1468 -0.7868  1.1475
  114MOL   H12641032   1.756   6.117   4.051 -0.1241 -0.9431 -1.3238
  114MOL   H12741033   1.743   6.035   4.207  0.6838  0.3246  0.0346
  114MOL   C12841034   2.125   6.096   4.512 -0.0014  0.1694 -0.1761
  114MOL   C12941035   2.016   6.103   4.627  0.1495  0.8012 -0.2412
  114MOL   C13041036   1.949   6.237   4.648  0.4833  0.0254  0.6198
  114MOL   C13141037   1.830   6.259   4.742 -0.3463 -0.5212 -0.4410
  114MOL   C13241038   1.799   6.404   4.773  0.0584  0.1879 -0.3921
  114MOL   C13341039   1.699   6.195   4.699 -0.4812 -0.1856  0.9841
  114MOL   H13441040   2.216   6.146   4.545 -0.7117  2.2415 -1.2743
  114MOL   H13541041   2.161   5.995   4.493 -1.6016 -0.5276  0.4820
  114MOL   H13641042   1.928   6.046   4.598  0.2757  1.3395 -1.7041
  114MOL   H13741043   2.027   6.311   4.665 -1.0987  2.5090 -2.3751
  114MOL   H13841044   1.907   6.274   4.555 -1.9386 -0.2063  1.5755
  114MOL   H13941045   1.859   6.213   4.837  0.0188  0.6524  0.0153
  114MOL   H14041046   1.880   6.475   4.786  1.1065 -1.0128 -0.2532
  114MOL   H14141047   1.742   6.402   4.866  2.7339 -2.0938  1.2957
  114MOL   H14241048   1.735   6.445   4.694  2.5809  0.2581 -2.4407
  114MOL   H14341049   1.688   6.216   4.593 -0.1020 -0.8435  0.8105
  114MOL   H14441050   1.704   6.086   4.701 -0.5805 -0.1963  0.6087
  114MOL   H14541051   1.610   6.238   4.746 -2.3865 -1.6711 -1.1855
  114MOL   C14641052   2.075   6.045   4.760  0.1167  0.0185  0.4590
  114MOL   C14741053   1.993   5.921   4.805  0.1528  0.0414  0.0237
  114MOL   C14841054   2.028   5.880   4.952 -0.3942  0.3800 -0.2158
  114MOL   C14941055   1.956   5.956   5.066  0.3029  0.1646  0.2047
  114MOL   C15041056   2.023   6.085   5.107 -0.1965  0.7396  0.0297
  114MOL   C15141057   1.807   5.967   5.046  0.7912  0.4632 -0.0576
  114MOL   H15241058   2.073   6.123   4.836 -1.5022  0.7541 -0.3211
  114MOL   H15341059   2.179   6.018   4.745 -0.3298 -0.6525 -1.6507
  114MOL   H15441060   1.886   5.942   4.797 -0.2393 -1.1288  1.9379
  114MOL   H15541061   2.019   5.772   4.961  0.6126  0.1303 -2.0131
  114MOL   H15641062   2.136   5.887   4.968 -0.4915 -1.7660  1.7071
  114MOL   H15741063   1.971   5.892   5.153 -0.3436 -0.0646  0.1482
  114MOL   H15841064   1.974   6.122   5.197 -0.0559 -2.6826  1.6040
  114MOL   H15941065   2.011   6.162   5.031  1.5051  0.4340 -0.5757
  114MOL   H16041066   2.131   6.087   5.121  0.0927 -1.2591 -1.7331
  114MOL   H16141067   1.779   6.052   4.984 -0.7487 -0.3396 -0.4808
  114MOL   H16241068   1.765   5.995   5.143  0.2921 -1.7382  0.4038
  114MOL   H16341069   1.765   5.878   4.999 -0.3395  0.5103  0.8361
  114MOL   C16441070   2.009   5.803   4.700  0.2490 -0.1648 -0.2916
  114MOL   C16541071   1.911   5.690   4.714  0.6586 -0.4081 -0.1780
  114MOL   C16641072   1.816   5.686   4.583 -0.1198  0.8099 -0.2432
  114MOL   C16741073   1.704   5.790   4.583  0.6162  0.2453 -0.8754
  114MOL   C16841074   1.677   5.854   4.440 -0.1476 -0.1098 -0.3997
  114MOL   C16941075   1.579   5.734   4.646  0.5578 -0.6864 -0.2057
  114MOL   H17041076   2.000   5.836   4.597  2.9616  0.8782 -0.2382
  114MOL   H17141077   2.108   5.758   4.712 -0.2257 -0.9420  0.7960
  114MOL   H17241078   1.846   5.698   4.802  0.6008  2.1189 -0.4210
  114MOL   H17341079   1.874   5.695   4.491  1.3379  2.5565  0.8159
  114MOL   H17441080   1.774   5.586   4.572  2.0505 -0.3273  1.5041
  114MOL   H17541081   1.739   5.879   4.635 -0.6518  1.5805 -2.2558
  114MOL   H17641082   1.771   5.893   4.401 -0.4467 -0.2191 -1.2357
  114MOL   H17741083   1.605   5.935   4.432 -0.8004 -0.7390 -0.9182
  114MOL   H17841084   1.648   5.771   4.375 -0.7916  0.6919 -1.1456
  114MOL   H17941085   1.491   5.795   4.624  0.1031 -1.2962 -0.0972
  114MOL   H18041086   1.583   5.706   4.752 -2.0580 -0.0342  0.1019
  114MOL   H18141087   1.543   5.639   4.609 -1.0326 -0.9161  1.8189
  114MOL   C18241088   1.986   5.554   4.725  0.6482 -0.0837  0.0301
  114MOL   C18341089   1.910   5.433   4.788  0.8590 -1.0609  0.3843
  114MOL   C18441090   1.985   5.300   4.750 -0.0751 -0.0745  0.0586
  114MOL   C18541091   2.012   5.263   4.604 -0.1055  0.2080  0.0213
  114MOL   C18641092   2.073   5.121   4.594 -0.1926  0.4373 -0.6030
  114MOL   C18741093   1.896   5.284   4.514  0.6696 -0.4662  0.0064
  114MOL   H18841094   2.074   5.571   4.786  0.1691  0.2638  0.6319
  114MOL   H18941095   2.023   5.539   4.623 -0.2717 -1.0116 -0.1826
  114MOL   H19041096   1.810   5.439   4.747  0.5926  0.0236  1.1634
  114MOL   H19141097   1.914   5.221   4.775 -2.0868  1.3920 -0.8437
  114MOL   H19241098   2.082   5.281   4.796  0.4825 -1.6079 -1.6889
  114MOL   H19341099   2.096   5.319   4.563 -0.0833 -1.7845 -2.8039
  114MOL   H19441100   2.166   5.107   4.648  0.2013 -0.1424 -1.4243
  114MOL   H19541101   2.092   5.091   4.491  2.9374  0.1049  0.0192
  114MOL   H19641102   2.013   5.042   4.641  1.5293  0.7476  2.2007
  114MOL   H19741103   1.928   5.268   4.411 -1.6216 -0.2286 -0.7570
  114MOL   H19841104   1.851   5.382   4.529  0.2351 -0.7149  0.3314
  114MOL   H19941105   1.817   5.211   4.531 -1.1783  1.2267 -1.2366
  114MOL   C20041106   1.876   5.437   4.946  0.3151 -0.2033 -0.1854
  114MOL   C20141107   1.756   5.350   4.993  0.6441 -0.1689 -0.0326
  114MOL   C20241108   1.625   5.430   4.995 -0.8220 -0.4987 -0.2264
  114MOL   C20341109   1.496   5.360   4.943 -0.3534  0.0456 -0.0940
  114MOL   C20441110   1.512   5.317   4.793 -0.0323 -0.7798 -0.4003
  114MOL   C20541111   1.446   5.242   5.031 -0.2614  0.3567  0.2908
  114MOL   H20641112   1.857   5.535   4.990 -0.0921 -1.3507  2.2664
  114MOL   H20741113   1.965   5.397   4.995 -0.8015  1.1169  3.1310
  114MOL   H20841114   1.735   5.278   4.914 -1.3576 -1.6121  1.7576
  114MOL   H20941115   1.601   5.461   5.096  2.9353  0.3607  0.4858
  114MOL   H21041116   1.641   5.515   4.928  1.4114  0.1935  1.1233
  114MOL   H21141117   1.411   5.428   4.948 -2.1323 -2.1440  0.4180
  114MOL   H21241118   1.558   5.218   4.794  0.4823 -0.5352  0.6207
  114MOL   H21341119   1.582   5.387   4.748  1.2074 -0.9686  1.1748
  114MOL   H21441120   1.415   5.321   4.744  0.2867 -0.3635 -1.0132
  114MOL   H21541121   1.432   5.264   5.137  3.7502 -1.3639  1.2615
  114MOL   H21641122   1.508   5.153   5.020  0.7792  0.9673  1.1458
  114MOL   H21741123   1.350   5.210   4.990 -1.5190  1.5015  2.2473
  114MOL   C21841124   1.787   5.287   5.135  0.1738  0.3585  0.0834
  114MOL   C21941125   1.876   5.165   5.124 -0.2162 -0.4883  0.9977
  114MOL   C22041126   1.787   5.039   5.114  0.1727 -0.2516  0.5132
  114MOL   C22141127   1.765   4.985   4.973  0.9064  0.2590  0.6444
  114MOL   C22241128   1.894   4.937   4.900  0.5081  0.5010 -0.2034
  114MOL   C22341129   1.657   4.873   4.968 -0.3065 -0.0233  0.1118
  114MOL   H22441130   1.838   5.364   5.193 -2.3357  0.0725  2.7758
  114MOL   H22541131   1.701   5.273   5.200  0.0883  0.9644  0.1076
  114MOL   H22641132   1.938   5.182   5.036 -1.0044  0.3896  0.6010
  114MOL   H22741133   1.837   4.961   5.172  1.8856 -0.1747 -0.8191
  114MOL   H22841134   1.685   5.050   5.152 -0.1080  0.1841 -0.3510
  114MOL   H22941135   1.723   5.065   4.911  1.6785  0.0827 -0.1064
  114MOL   H23041136   1.889   4.906   4.795  0.3180 -1.1172  0.2723
  114MOL   H23141137   1.979   5.004   4.891  1.4151 -0.4721  1.0287
  114MOL   H23241138   1.927   4.855   4.964 -3.1366  0.1082  1.2774
  114MOL   H23341139   1.697   4.774   4.944  2.3468  0.8822  0.7372
  114MOL   H23441140   1.617   4.844   5.065 -1.4699 -0.2247 -0.4175
  114MOL   H23541141   1.581   4.886   4.890  0.1304 -1.0041 -0.4860
  114MOL   C23641142   1.975   5.155   5.245  0.0003  0.5513 -0.0854
  114MOL   C23741143   2.084   5.045   5.229 -0.3017  0.1317  0.0501
  114MOL   C23841144   2.143   5.003   5.369  0.1323 -0.5516 -0.5642
  114MOL   C23941145   2.054   4.917   5.457  0.2958  0.0423  0.2725
  114MOL   C24041146   2.034   4.780   5.386 -0.1949 -0.4221 -0.0229
  114MOL   C24141147   2.114   4.893   5.595  0.7519 -0.3493  0.8275
  114MOL   H24241148   1.921   5.133   5.337 -0.6272 -0.0671 -0.5927
  114MOL   H24341149   2.021   5.253   5.253  0.8235  0.1315  0.3814
  114MOL   H24441150   2.039   4.958   5.181 -0.0409  0.4327 -0.7455
  114MOL   H24541151   2.179   5.092   5.420 -1.6368 -0.3412  0.3483
  114MOL   H24641152   2.236   4.951   5.349  0.8225  0.5823 -0.3225
  114MOL   H24741153   1.958   4.968   5.469  1.5592  2.6460 -0.2345
  114MOL   H24841154   2.011   4.703   5.460  2.6393 -0.9106  0.4349
  114MOL   H24941155   2.122   4.744   5.332 -0.6935 -0.0032 -1.1196
  114MOL   H25041156   1.954   4.791   5.314  0.3919 -1.7445 -0.9029
  114MOL   H25141157   2.211   4.844   5.591  0.4588 -0.8457 -0.4939
  114MOL   H25241158   2.044   4.828   5.647 -0.1918 -0.6594 -0.7990
  114MOL   H25341159   2.119   4.985   5.653  1.5866 -1.4748  2.5864
  114MOL   C25441160   2.192   5.076   5.122  0.0053  0.3825  0.0110
  114MOL   C25541161   2.293   5.189   5.155 -0.9073 -0.5818 -0.9367
  114MOL   C25641162   2.434   5.154   5.095 -0.3563 -0.2918 -0.2490
  114MOL   C25741163   2.515   5.045   5.177 -0.2148  0.8237  1.1968
  114MOL   C25841164   2.553   5.087   5.322 -0.2064 -0.0473  0.4918
  114MOL   C25941165   2.646   5.005   5.101  0.1288 -0.0416 -0.1493
  114MOL   H26041166   2.244   4.981   5.108 -0.5832  0.2641 -1.4390
  114MOL   H26141167   2.159   5.094   5.020  0.9435  1.9430 -0.0315
  114MOL   H26241168   2.297   5.205   5.262 -0.5162 -0.5312 -0.9584
  114MOL   H26341169   2.495   5.243   5.081 -1.4705  0.3607 -1.0696
  114MOL   H26441170   2.431   5.116   4.993  0.9626  3.3159 -1.6823
  114MOL   H26541171   2.469   4.947   5.187 -0.5785  1.2651  4.0919
  114MOL   H26641172   2.464   5.093   5.385 -0.1331  0.6576  0.5404
  114MOL   H26741173   2.600   5.186   5.328 -0.3480  0.2567 -2.8123
  114MOL   H26841174   2.619   5.017   5.373 -0.0294 -1.1677 -1.2540
  114MOL   H26941175   2.697   4.922   5.150 -1.0839  0.8185  2.6657
  114MOL   H27041176   2.628   4.974   4.998  0.8896 -1.6812  0.1952
  114MOL   H27141177   2.716   5.086   5.118 -1.1055  0.5470  2.4043
  114MOL   C27241178   2.244   5.327   5.086 -0.5453  0.3817  0.2918
  114MOL   C27341179   2.314   5.455   5.130 -0.2734  0.0953  0.1371
  114MOL   C27441180   2.293   5.576   5.035  0.7810 -0.4011 -0.0916
  114MOL   C27541181   2.396   5.595   4.920  0.2246 -0.0896 -0.6311
  114MOL   C27641182   2.387   5.736   4.854 -0.3010  0.3474 -0.2437
  114MOL   C27741183   2.374   5.491   4.806 -0.3999  0.0242 -0.6337
  114MOL   H27841184   2.240   5.312   4.978 -1.8345  0.6072  0.2958
  114MOL   H27941185   2.137   5.330   5.106 -0.7907 -3.5985 -0.0369
  114MOL   H28041186   2.420   5.429   5.136 -0.5642 -1.0026  0.5792
  114MOL   H28141187   2.304   5.668   5.092  0.1446  0.6375 -1.5953
  114MOL   H28241188   2.187   5.577   5.010 -0.1826 -2.1135  3.5895
  114MOL   H28341189   2.500   5.582   4.949  0.0131  2.1852  1.3689
  114MOL   H28441190   2.285   5.767   4.833  0.5131  1.5013 -2.6538
  114MOL   H28541191   2.430   5.811   4.920 -0.6772  0.1168  0.2670
  114MOL   H28641192   2.446   5.738   4.763 -1.7386 -0.6362 -1.2322
  114MOL   H28741193   2.268   5.487   4.777 -0.6976 -0.8421  0.5636
  114MOL   H28841194   2.443   5.524   4.728 -1.2099  2.2471 -0.4722
  114MOL   H28941195   2.405   5.392   4.839  1.1567  1.5160  2.5520
  114MOL   C29041196   2.261   5.500   5.273 -0.3322  0.6188  0.4856
  114MOL   C29141197   2.359   5.573   5.363  0.0501 -0.3597  0.1122
  114MOL   C29241198   2.292   5.630   5.492  0.8932 -0.0508  0.3245
  114MOL   C29341199   2.180   5.736   5.486 -0.3368  0.3448  0.4031
  114MOL   C29441200   2.115   5.765   5.620 -0.0193 -0.1893 -0.2420
  114MOL   C29541201   2.224   5.872   5.423 -0.0866  0.8333  0.4612
  114MOL   H29641202   2.176   5.568   5.260 -1.6468 -1.3465 -1.8473
  114MOL   H29741203   2.227   5.409   5.323  0.1951  1.4361  2.3553
  114MOL   H29841204   2.387   5.658   5.300  0.8022  0.3020  1.3215
  114MOL   H29941205   2.358   5.657   5.575  1.0156 -1.1025  0.5853
  114MOL   H30041206   2.240   5.545   5.537 -0.4038  2.1483  3.1268
  114MOL   H30141207   2.100   5.695   5.424  1.3488 -2.2009 -0.1484
  114MOL   H30241208   2.049   5.683   5.648 -0.5752 -0.0694 -1.1880
  114MOL   H30341209   2.058   5.858   5.619  0.0084 -0.1701  0.0540
  114MOL   H30441210   2.177   5.780   5.709 -0.6733 -0.2395  0.2256
  114MOL   H30541211   2.150   5.944   5.390 -1.1478 -0.7756 -0.7818
  114MOL   H30641212   2.275   5.854   5.329 -0.4794  1.4493  0.1347
  114MOL   H30741213   2.306   5.917   5.479  0.4494 -2.6420  2.7055
  114MOL   C30841214   2.495   5.498   5.392  0.3000 -0.0253 -0.1482
  114MOL   C30941215   2.606   5.598   5.429  0.0815  0.2194 -0.5203
  114MOL   C31041216   2.706   5.520   5.522 -0.3246  0.6507 -0.4704
  114MOL   C31141217   2.664   5.498   5.668  0.2025  0.5224  0.6095
  114MOL   C31241218   2.744   5.390   5.738 -0.5036 -0.3620  0.0775
  114MOL   C31341219   2.666   5.619   5.763 -0.4084  0.2277 -0.1869
  114MOL   H31441220   2.466   5.419   5.462 -1.4484  1.7665  1.2192
  114MOL   H31541221   2.538   5.450   5.304 -0.0478 -1.3585  0.3917
  114MOL   H31641222   2.557   5.674   5.489  1.1111  0.8171 -0.4128
  114MOL   H31741223   2.798   5.579   5.527 -0.9260  1.5275  0.4354
  114MOL   H31841224   2.745   5.425   5.486  1.1850  1.3927 -0.8461
  114MOL   H31941225   2.561   5.462   5.658  0.2065  0.6636  0.0263
  114MOL   H32041226   2.718   5.380   5.843 -0.7408  0.0803  0.0611
  114MOL   H32141227   2.847   5.425   5.740 -0.9722  1.0573 -0.2350
  114MOL   H32241228   2.740   5.293   5.688  1.4590 -0.1616 -0.5088
  114MOL   H32341229   2.590   5.691   5.734  1.8555  1.9461 -2.0478
  114MOL   H32441230   2.650   5.593   5.868  0.8607  1.2621  0.2704
  114MOL   H32541231   2.755   5.682   5.762 -0.5879  0.4723 -0.8948
  114MOL   C32641232   2.683   5.667   5.313 -0.3977 -0.3700  0.9601
  114MOL   C32741233   2.746   5.799   5.352 -0.6130 -0.6176  0.4107
  114MOL   C32841234   2.641   5.913   5.359  0.2547 -0.5856  0.0261
  114MOL   C32941235   2.672   6.056   5.393  0.0914  0.7797 -0.1688
  114MOL   C33041236   2.563   6.156   5.344  0.0656 -0.4635  0.3807
  114MOL   C33141237   2.699   6.072   5.544 -0.4549 -0.0268 -0.5015
  114MOL   H33241238   2.625   5.677   5.221 -1.7050 -1.7558  1.5947
  114MOL   H33341239   2.757   5.595   5.278  0.5967  0.2322  1.8333
  114MOL   H33441240   2.802   5.788   5.445  0.7882  1.1583 -0.1949
  114MOL   H33541241   2.600   5.916   5.257  2.2104  0.5379 -0.7437
  114MOL   H33641242   2.555   5.875   5.415 -1.9517  1.2103 -2.0040
  114MOL   H33741243   2.764   6.081   5.340  0.1978  1.0383  0.1331
  114MOL   H33841244   2.610   6.255   5.336 -0.0978 -0.5357 -1.7502
  114MOL   H33941245   2.481   6.163   5.414 -1.0918 -2.9029 -0.6855
  114MOL   H34041246   2.506   6.140   5.252 -0.8194  0.1362  0.8138
  114MOL   H34141247   2.609   6.075   5.606 -0.2637 -1.1488 -0.1593
  114MOL   H34241248   2.756   5.996   5.597 -0.5989  2.5672  3.5896
  114MOL   H34341249   2.748   6.170   5.551 -1.7099  0.4361  3.2082
  114MOL   C34441250   2.862   5.836   5.255  0.7056 -0.3147 -0.1236
  114MOL   C34541251   2.980   5.740   5.258  0.3574 -0.2703  0.3940
  114MOL   C34641252   3.098   5.801   5.173  0.5766  0.7547  0.3135
  114MOL   C34741253   3.220   5.711   5.148  0.3753 -0.1372 -0.3110
  114MOL   C34841254   3.195   5.600   5.045 -0.1649  0.3741  0.6056
  114MOL   C34941255   3.269   5.646   5.279  0.2081  0.1604 -0.3047
  114MOL   H35041256   2.902   5.930   5.293  0.9844 -0.6468  0.4136
  114MOL   H35141257   2.820   5.857   5.157 -0.8192 -0.5928  0.4503
  114MOL   H35241258   2.953   5.645   5.213  2.4575 -0.3418 -0.7396
  114MOL   H35341259   3.065   5.843   5.078 -1.4037  1.6369  1.3553
  114MOL   H35441260   3.128   5.894   5.221  2.3890 -0.1384  0.9612
  114MOL   H35541261   3.294   5.776   5.101 -0.5725  0.5003 -0.9553
  114MOL   H35641262   3.183   5.637   4.944  0.4702 -1.5414 -0.2000
  114MOL   H35741263   3.272   5.522   5.049 -1.1526 -0.5652  1.7113
  114MOL   H35841264   3.096   5.559   5.065 -0.3237 -0.0951 -1.0867
  114MOL   H35941265   3.267   5.711   5.366 -4.5850 -0.1959 -0.0421
  114MOL   H36041266   3.368   5.607   5.255 -0.0427  1.6636 -4.1174
  114MOL   H36141267   3.205   5.562   5.305 -1.7773  1.7851  0.1574
  114MOL   H36241268   3.017   5.707   5.355 -2.0025  0.1244  1.4660
  115MOL     C141269   7.042   1.667   5.422  0.6770  0.3046  0.7560
  115MOL     C241270   7.150   1.728   5.494  0.1594  0.2278 -0.3290
  115MOL     C341271   7.119   1.874   5.511 -0.1363 -0.3009 -0.3362
  115MOL     C441272   7.221   1.957   5.586 -0.0642  0.1504 -0.8165
  115MOL     C541273   7.265   1.917   5.725 -0.3089 -0.0234 -0.0580
  115MOL     C641274   7.167   2.104   5.593  0.8583 -0.0215 -0.2579
  115MOL     H741275   7.030   1.708   5.322  0.6276  2.6693  1.6948
  115MOL     H841276   7.053   1.559   5.410  0.3315  0.4384 -0.8985
  115MOL     H941277   7.147   1.689   5.596  1.8393 -3.2849 -1.5443
  115MOL    H1041278   7.113   1.912   5.409  0.9174 -1.8357 -0.9779
  115MOL    H1141279   7.016   1.886   5.545 -0.7913 -1.1006 -1.9968
  115MOL    H1241280   7.315   1.961   5.530  1.2276 -2.5169  1.0125
  115MOL    H1341281   7.182   1.905   5.795  1.0893  2.0091  2.0369
  115MOL    H1441282   7.324   1.826   5.727  0.6595  0.5892 -0.5114
  115MOL    H1541283   7.313   2.000   5.777 -1.3349  0.6272 -0.1150
  115MOL    H1641284   7.132   2.139   5.496  0.6717 -0.6506 -0.4237
  115MOL    H1741285   7.258   2.161   5.615 -0.6198  2.0960  0.4741
  115MOL    H1841286   7.083   2.120   5.661 -0.3335  2.5296 -2.2591
  115MOL    H1941287   6.956   1.685   5.486  0.1818  0.1424  0.1447
  115MOL    C2041288   7.284   1.709   5.417  0.0454 -0.0066 -0.0177
  115MOL    C2141289   7.360   1.575   5.447 -0.0969  0.0948 -0.5168
  115MOL    C2241290   7.484   1.558   5.350  0.4011 -0.0373  0.4154
  115MOL    C2341291   7.457   1.477   5.222  0.5675  0.2190 -0.0255
  115MOL    C2441292   7.546   1.525   5.106  0.6229 -0.7517 -0.4715
  115MOL    C2541293   7.457   1.330   5.249  0.2408 -0.3735 -0.2171
  115MOL    H2641294   7.262   1.713   5.311 -0.4545  0.6490  0.1052
  115MOL    H2741295   7.355   1.792   5.429 -0.5577  0.7845 -1.8337
  115MOL    H2841296   7.293   1.492   5.424 -2.6593  2.0183 -0.2097
  115MOL    H2941297   7.571   1.525   5.406  1.7780  2.2877 -0.2837
  115MOL    H3041298   7.515   1.661   5.330 -0.2290  0.0414 -0.1888
  115MOL    H3141299   7.354   1.494   5.190  0.5495 -0.0267 -0.0970
  115MOL    H3241300   7.512   1.473   5.017 -0.4175  0.8332 -1.0236
  115MOL    H3341301   7.654   1.507   5.109  0.9785  1.3996  1.7734
  115MOL    H3441302   7.538   1.634   5.098 -0.8146 -0.6946  1.3948
  115MOL    H3541303   7.428   1.257   5.173 -0.4616 -0.2167 -0.1058
  115MOL    H3641304   7.559   1.308   5.279  1.2788 -0.0485 -3.2787
  115MOL    H3741305   7.393   1.312   5.336  1.9580 -2.1753  0.7095
  115MOL    C3841306   7.405   1.570   5.598 -0.0774  0.0017 -0.2153
  115MOL    C3941307   7.464   1.435   5.640 -0.5774  0.0116  0.5947
  115MOL    C4041308   7.354   1.331   5.676 -1.2171  0.9901  0.0050
  115MOL    C4141309   7.402   1.180   5.695 -0.0458  0.6105  0.8552
  115MOL    C4241310   7.435   1.119   5.556 -0.1530  0.4052  0.6297
  115MOL    C4341311   7.282   1.107   5.753  0.0573  0.4746 -0.7663
  115MOL    H4441312   7.325   1.587   5.670 -1.1529  0.1235 -1.4337
  115MOL    H4541313   7.483   1.646   5.605  0.0115 -0.1932  0.9743
  115MOL    H4641314   7.511   1.401   5.548 -1.5902  2.6428 -0.9598
  115MOL    H4741315   7.283   1.337   5.594 -2.6470  0.3688  1.1797
  115MOL    H4841316   7.292   1.362   5.760 -1.1902  0.1143  0.3501
  115MOL    H4941317   7.488   1.184   5.762 -0.6265 -0.9718  1.7191
  115MOL    H5041318   7.525   1.172   5.523 -1.6807  3.0215  0.4913
  115MOL    H5141319   7.453   1.013   5.571  2.4506  0.7123 -0.0078
  115MOL    H5241320   7.359   1.140   5.480  1.8504  1.9370 -1.0153
  115MOL    H5341321   7.311   1.010   5.793 -0.6145  1.1373  1.4170
  115MOL    H5441322   7.204   1.098   5.677  0.0759  0.5346 -0.7920
  115MOL    H5541323   7.245   1.147   5.847 -2.2279 -2.0180 -0.5345
  115MOL    C5641324   7.582   1.439   5.748  0.1386 -0.2542  0.7340
  115MOL    C5741325   7.736   1.453   5.710  0.2323  0.5614  0.2783
  115MOL    C5841326   0.025   1.594   5.662  0.7628 -0.3133  0.1725
  115MOL    C5941327   0.026   1.708   5.763 -0.2130  0.0306 -0.4152
  115MOL    C6041328   7.656   1.797   5.769 -0.0997  0.0951 -0.1137
  115MOL    C6141329   0.154   1.793   5.743  0.0684 -0.0194  0.2209
  115MOL    H6241330   7.565   1.365   5.827 -0.0980  0.3622  1.2708
  115MOL    H6341331   7.560   1.531   5.802 -1.3054 -0.2820  0.2011
  115MOL    H6441332   0.042   1.429   5.799 -1.0582 -0.3673  0.8971
  115MOL    H6541333   0.122   1.588   5.613  0.5921  4.3338 -0.9486
  115MOL    H6641334   7.703   1.623   5.589  2.1156  0.3328 -0.9737
  115MOL    H6741335   0.047   1.667   5.862 -0.2859 -0.0875 -0.4492
  115MOL    H6841336   7.573   1.739   5.810  0.4070 -2.0337 -1.9725
  115MOL    H6941337   7.622   1.835   5.673 -2.0577 -1.5967 -0.1305
  115MOL    H7041338   7.679   1.876   5.841  1.2735  0.6642 -1.1654
  115MOL    H7141339   0.144   1.859   5.657 -2.6973 -1.2527 -0.4372
  115MOL    H7241340   0.252   1.746   5.738  1.1063  2.0845  0.1282
  115MOL    H7341341   0.166   1.859   5.830  2.2541  1.4263 -1.1254
  115MOL    C7441342   0.038   1.341   5.626 -0.9691  0.1404  0.0660
  115MOL    C7541343   0.191   1.310   5.643 -0.4488  0.1329  0.4136
  115MOL    C7641344   0.258   1.350   5.508 -0.5966  0.4560  0.9338
  115MOL    C7741345   0.415   1.364   5.516  0.1029 -0.2237  0.5714
  115MOL    C7841346   0.459   1.488   5.595 -0.1193  0.2889 -0.5256
  115MOL    C7941347   0.490   1.348   5.382  0.2522 -0.2768 -0.4890
  115MOL    H8041348   0.018   1.366   5.521 -1.5825  0.3055  0.2229
  115MOL    H8141349   7.732   1.250   5.637 -0.1939 -0.6661 -2.1731
  115MOL    H8241350   0.237   1.373   5.719  1.9187  0.2893 -1.1033
  115MOL    H8341351   0.228   1.281   5.430  1.5494  0.0018  0.4650
  115MOL    H8441352   0.236   1.453   5.477  1.0674  0.0468 -1.8066
  115MOL    H8541353   0.448   1.281   5.578 -0.9785 -2.2390 -1.4629
  115MOL    H8641354   0.568   1.497   5.598 -0.1580  1.1613 -1.5924
  115MOL    H8741355   0.431   1.489   5.701 -4.4527  0.3319 -1.5829
  115MOL    H8841356   0.407   1.569   5.545  0.7818  0.3392 -1.3846
  115MOL    H8941357   0.452   1.259   5.333  0.7495 -1.0997  0.6014
  115MOL    H9041358   0.481   1.435   5.316 -3.8607 -1.0135 -1.0595
  115MOL    H9141359   0.595   1.324   5.399  0.1450 -0.5192 -0.1703
  115MOL    C9241360   0.204   1.156   5.662 -0.5311 -0.4246 -0.0185
  115MOL    C9341361   0.153   1.095   5.797  0.3354 -0.2305  0.4135
  115MOL    C9441362   0.163   0.944   5.801  0.2188  0.4943 -0.1770
  115MOL    C9541363   0.083   0.866   5.700  0.6078  0.1012 -0.3964
  115MOL    C9641364   0.121   0.718   5.700 -0.3206  0.2166  0.7655
  115MOL    C9741365   7.679   0.867   5.718 -0.2582  0.2346  0.0558
  115MOL    H9841366   0.154   1.110   5.577 -0.0993  1.5517 -1.3718
  115MOL    H9941367   0.311   1.135   5.648 -0.2532  1.2148 -0.3778
  115MOL   H10041368   0.045   1.107   5.799 -0.1783 -3.9607 -0.4213
  115MOL   H10141369   0.142   0.911   5.903  1.3892  1.5857  0.4245
  115MOL   H10241370   0.271   0.935   5.789  0.4252  2.4980 -0.0313
  115MOL   H10341371   0.122   0.901   5.605 -0.2555  0.0571 -0.7657
  115MOL   H10441372   0.113   0.657   5.790  0.9200  0.0983  0.8027
  115MOL   H10541373   0.222   0.706   5.662 -0.0835  2.0520  0.8118
  115MOL   H10641374   0.061   0.660   5.629  1.4077  0.7010 -1.1263
  115MOL   H10741375   7.645   0.970   5.721 -0.4452  0.2860 -2.4077
  115MOL   H10841376   7.648   0.826   5.814  1.9424 -3.4059 -0.6810
  115MOL   H10941377   7.629   0.814   5.637 -1.9694  1.4634  0.2857
  115MOL   C11041378   0.220   1.164   5.930  0.1675  0.2851  0.2825
  115MOL   C11141379   0.127   1.144   6.059 -0.4600  0.1589  0.5049
  115MOL   C11241380   0.220   1.151   6.186 -0.1748  0.3916 -0.3607
  115MOL   C11341381   0.283   1.012   6.226  0.1629 -0.3619  0.2476
  115MOL   C11441382   0.176   0.913   6.263  0.4494  0.2592 -0.9980
  115MOL   C11541383   0.372   1.030   6.351 -0.1266 -0.5120  1.3751
  115MOL   H11641384   0.242   1.270   5.914  1.1581  0.2665  1.4188
  115MOL   H11741385   0.320   1.122   5.941  0.0344 -0.5529 -1.6819
  115MOL   H11841386   0.101   1.038   6.068  0.7649 -0.2236 -0.3393
  115MOL   H11941387   0.164   1.189   6.271  2.0486  0.5282  1.0876
  115MOL   H12041388   0.294   1.231   6.177 -1.0793  1.5515  1.9658
  115MOL   H12141389   0.344   0.973   6.144  0.5145 -0.4640  0.5564
  115MOL   H12241390   0.105   0.876   6.189  1.1722 -2.2172 -0.5222
  115MOL   H12341391   0.108   0.947   6.341  1.3711 -1.4847  0.6282
  115MOL   H12441392   0.224   0.831   6.317  0.0550  0.7298  0.0792
  115MOL   H12541393   0.441   1.114   6.341 -0.7277  0.0358  1.8288
  115MOL   H12641394   0.434   0.942   6.367  0.9099  0.0996  0.7880
  115MOL   H12741395   0.307   1.062   6.432 -1.3743 -3.0474  1.4252
  115MOL   C12841396   0.000   1.226   6.068  0.6837  0.2389  0.4980
  115MOL   C12941397   7.635   1.165   6.142  0.3788 -0.2163 -0.3638
  115MOL   C13041398   7.571   1.054   6.064  1.1296 -0.4984  0.8705
  115MOL   C13141399   7.484   0.966   6.146  0.2906 -0.1158 -0.1173
  115MOL   C13241400   7.346   0.928   6.084 -0.4022  0.3705 -0.3892
  115MOL   C13341401   7.557   0.837   6.180 -0.2322 -0.1399 -0.2029
  115MOL   H13441402   7.721   1.250   5.967 -0.6302 -0.1121  0.8114
  115MOL   H13541403   0.030   1.321   6.112  1.5756 -0.0911  0.6207
  115MOL   H13641404   7.671   1.127   6.237 -0.7246  0.4229  0.3328
  115MOL   H13741405   7.514   1.090   5.978  0.6759 -0.5978  1.1299
  115MOL   H13841406   7.652   0.992   6.023 -0.8522 -1.0950 -2.3331
  115MOL   H13941407   7.452   1.008   6.241  0.8754  0.1624 -0.0438
  115MOL   H14041408   7.285   0.887   6.164  0.3506 -0.4354 -0.2208
  115MOL   H14141409   7.369   0.868   5.997 -2.0411 -0.3926 -0.3022
  115MOL   H14241410   7.298   1.017   6.043  0.6017  0.8455 -0.5675
  115MOL   H14341411   7.645   0.850   6.244  0.7057  2.8380 -2.0448
  115MOL   H14441412   7.496   0.766   6.236  2.3661  0.2802  3.3754
  115MOL   H14541413   7.584   0.783   6.089 -0.4736 -0.8145  0.1227
  115MOL   C14641414   7.533   1.279   6.162  0.2148 -0.1069  0.4062
  115MOL   C14741415   7.574   1.368   6.286 -0.7114  0.4797  0.1388
  115MOL   C14841416   7.542   1.301   6.425 -0.3882  0.0857 -0.6037
  115MOL   C14941417   7.617   1.370   6.546 -0.2491 -0.7357  0.4680
  115MOL   C15041418   7.517   1.383   6.664 -0.0503 -0.0667  0.0500
  115MOL   C15141419   7.738   1.282   6.600  1.1127 -0.5687 -0.5147
  115MOL   H15241420   7.431   1.251   6.188  0.4720 -0.1643  1.3748
  115MOL   H15341421   7.528   1.329   6.065  1.8842  0.6929  0.7082
  115MOL   H15441422   7.681   1.392   6.281 -0.7965  0.8946  0.2781
  115MOL   H15541423   7.435   1.290   6.443 -0.2015 -1.5820 -0.4811
  115MOL   H15641424   7.563   1.194   6.429  0.4773  0.1783 -2.4635
  115MOL   H15741425   7.654   1.470   6.521 -1.6678  0.3301  2.5030
  115MOL   H15841426   7.563   1.434   6.749  0.5844  1.0132 -0.9173
  115MOL   H15941427   7.465   1.291   6.692 -0.8722  0.1888 -0.6005
  115MOL   H16041428   7.437   1.452   6.637 -0.5113 -0.7863 -0.4225
  115MOL   H16141429   0.054   1.246   6.523  1.0905  1.0434 -1.3277
  115MOL   H16241430   7.701   1.191   6.646  0.6609 -0.6962 -1.1159
  115MOL   H16341431   0.058   1.339   6.658 -1.4961  2.0305  0.3186
  115MOL   C16441432   7.493   1.500   6.286  0.1242 -0.0076  0.2493
  115MOL   C16541433   7.512   1.586   6.159  0.6460 -0.8028 -0.3320
  115MOL   C16641434   7.413   1.706   6.157 -0.3444  0.0385  0.1154
  115MOL   C16741435   7.269   1.659   6.126  0.3642  0.6368  0.0688
  115MOL   C16841436   7.166   1.758   6.186  0.8967 -1.4587  0.2780
  115MOL   C16941437   7.258   1.627   5.975 -0.4785  0.0913 -0.4354
  115MOL   H17041438   7.389   1.471   6.297 -0.2868  1.4727  0.3800
  115MOL   H17141439   7.521   1.555   6.376  0.1238 -1.0431  0.8928
  115MOL   H17241440   7.473   1.533   6.072  1.5142  0.9266 -1.7907
  115MOL   H17341441   7.407   1.757   6.253  0.0442  2.1884 -0.9738
  115MOL   H17441442   7.439   1.785   6.087  1.1468 -0.0560  0.5381
  115MOL   H17541443   7.256   1.565   6.179  3.9105 -0.3241 -0.5995
  115MOL   H17641444   7.187   1.852   6.134 -1.6896 -1.6053 -1.1344
  115MOL   H17741445   7.169   1.752   6.294 -0.0485 -1.5803  0.3022
  115MOL   H17841446   7.069   1.722   6.151  0.5675  0.7059 -1.1292
  115MOL   H17941447   7.324   1.559   5.920 -1.0772 -1.1410  0.3418
  115MOL   H18041448   7.258   1.725   5.927  1.5393  0.2269 -0.1948
  115MOL   H18141449   7.165   1.569   5.971 -0.8314  0.3325  2.9837
  115MOL   C18241450   7.661   1.633   6.121 -1.0939 -1.1942 -0.0295
  115MOL   C18341451   7.750   1.676   6.243  0.2474  0.4547  0.0823
  115MOL   C18441452   0.148   1.700   6.194  0.6299  0.2667  0.4266
  115MOL   C18541453   0.231   1.573   6.192  0.0476  0.6144 -0.0131
  115MOL   C18641454   0.366   1.600   6.124  0.3481  0.6403  0.1263
  115MOL   C18741455   0.258   1.511   6.329 -1.0806  0.3127 -0.2927
  115MOL   H18841456   7.661   1.711   6.045  1.4605  0.0159  1.1580
  115MOL   H18941457   7.717   1.551   6.074  2.2254  0.1856  1.3503
  115MOL   H19041458   7.750   1.598   6.320 -0.4845  0.0731 -0.3032
  115MOL   H19141459   0.210   1.763   6.258  0.5952 -1.5326  2.3037
  115MOL   H19241460   0.148   1.747   6.096 -0.2879  0.0492  0.3172
  115MOL   H19341461   0.187   1.487   6.140  0.9601 -1.2555  2.2282
  115MOL   H19441462   0.412   1.682   6.181 -1.4746  0.6931  1.5894
  115MOL   H19541463   0.357   1.630   6.020  0.5538 -0.2239 -0.1441
  115MOL   H19641464   0.434   1.516   6.132  0.0469  0.2978 -0.8976
  115MOL   H19741465   0.167   1.462   6.365  0.4834  0.3175  3.9911
  115MOL   H19841466   0.296   1.589   6.396  0.8003 -0.3967 -0.5200
  115MOL   H19941467   0.329   1.429   6.334 -0.4329  0.8868  0.0893
  115MOL   C20041468   7.695   1.807   6.297  0.1848 -0.5441 -0.7735
  115MOL   C20141469   0.026   1.865   6.414 -0.4602  0.0586 -1.1312
  115MOL   C20241470   0.027   1.761   6.534  0.2542  0.8569 -0.1540
  115MOL   C20341471   0.072   1.795   6.670  0.7678 -0.9211 -0.0873
  115MOL   C20441472   0.046   1.690   6.781  0.2393 -0.1571 -0.1528
  115MOL   C20541473   0.219   1.834   6.665 -0.2380 -0.8484 -0.0127
  115MOL   H20641474   7.592   1.806   6.333  0.1672  0.3641 -0.7878
  115MOL   H20741475   7.696   1.879   6.216 -1.3030 -0.0274 -0.3487
  115MOL   H20841476   0.130   1.889   6.393 -0.5359  0.0178 -1.5547
  115MOL   H20941477   7.679   1.720   6.542 -0.0712  1.2741 -1.8361
  115MOL   H21041478   0.091   1.679   6.500 -1.7147 -0.1846 -1.4116
  115MOL   H21141479   0.008   1.880   6.695  2.3853  0.1318  0.6083
  115MOL   H21241480   7.699   1.645   6.777 -0.2666  0.9541 -0.3040
  115MOL   H21341481   0.065   1.729   6.881 -2.7720  0.5992  0.1514
  115MOL   H21441482   0.114   1.605   6.773 -0.6339 -0.9272  0.5070
  115MOL   H21541483   0.239   1.877   6.763  1.6108  1.5913 -1.3718
  115MOL   H21641484   0.235   1.917   6.596 -1.9454  0.8019  1.5421
  115MOL   H21741485   0.291   1.752   6.662  0.1050 -0.5644  0.4582
  115MOL   C21841486   7.720   2.000   6.450  1.0184  0.2227 -0.1929
  115MOL   C21941487   7.707   2.108   6.339  0.6146  0.3903  0.9618
  115MOL   C22041488   0.096   2.141   6.280 -0.8365  0.1184 -0.0582
  115MOL   C22141489   0.091   2.217   6.142  0.0802 -0.1779 -1.1142
  115MOL   C22241490   0.223   2.287   6.112 -0.1996 -0.6959 -0.0273
  115MOL   C22341491   0.057   2.116   6.029  0.4431 -0.1329 -0.1112
  115MOL   H22441492   7.617   1.983   6.480  1.0086  0.1584 -0.2634
  115MOL   H22541493   0.018   2.040   6.539  0.0699  2.6914 -0.7139
  115MOL   H22641494   7.637   2.071   6.264  0.9115  0.7305  0.5130
  115MOL   H22741495   0.150   2.206   6.349  1.1498  0.3829 -1.7994
  115MOL   H22841496   0.161   2.054   6.265  0.1165  0.4399  2.0035
  115MOL   H22941497   0.023   2.302   6.136 -1.2088 -1.0446  0.9335
  115MOL   H23041498   0.228   2.316   6.008 -3.7736 -0.3298 -0.1616
  115MOL   H23141499   0.229   2.372   6.180  0.3956 -1.1865  0.5529
  115MOL   H23241500   0.305   2.219   6.134  1.2834  0.2583 -2.5558
  115MOL   H23341501   0.119   2.025   6.034  1.6227  0.8020  4.2326
  115MOL   H23441502   7.704   2.088   6.036 -0.1439  1.9461 -0.4184
  115MOL   H23541503   0.076   2.165   5.933  2.3292  1.7516  1.1683
  115MOL   C23641504   7.656   2.239   6.396 -0.0501  0.2122 -0.1516
  115MOL   C23741505   7.506   2.250   6.423 -0.4972 -0.9479  0.0076
  115MOL   C23841506   7.412   2.178   6.324 -0.0576 -0.7488  0.5477
  115MOL   C23941507   7.421   2.224   6.174  0.3611 -0.4012  0.8184
  115MOL   C24041508   7.403   2.103   6.082  0.2041  0.5635 -0.2860
  115MOL   C24141509   7.315   2.326   6.140  0.3740 -0.4687 -0.1850
  115MOL   H24241510   7.667   2.313   6.316  0.1827 -0.0356 -0.3469
  115MOL   H24341511   7.715   2.267   6.483 -1.9876  0.1016  1.2441
  115MOL   H24441512   7.489   2.186   6.510  0.4171 -2.5711 -0.9666
  115MOL   H24541513   7.309   2.190   6.359 -0.7317 -1.2518 -1.1909
  115MOL   H24641514   7.428   2.071   6.326 -0.6829 -0.8993 -1.2370
  115MOL   H24741515   7.516   2.270   6.145 -0.2594  0.3548 -0.0461
  115MOL   H24841516   7.299   2.075   6.092  0.0717  1.3792  0.6438
  115MOL   H24941517   7.470   2.023   6.114 -0.9851 -0.0625  0.6573
  115MOL   H25041518   7.422   2.134   5.979 -0.0402 -3.7516 -1.7451
  115MOL   H25141519   7.351   2.419   6.183 -0.1592 -0.5816  0.5004
  115MOL   H25241520   7.217   2.290   6.169 -0.3796  0.9668 -0.8950
  115MOL   H25341521   7.295   2.339   6.033  0.7081  0.9095 -0.0865
  115MOL   C25441522   7.450   2.393   6.448  0.4962 -0.1155  0.2283
  115MOL   C25541523   7.475   2.440   6.594  0.4289 -0.3238 -0.5867
  115MOL   C25641524   7.504   2.588   6.595 -0.6209 -0.2987  0.8955
  115MOL   C25741525   7.648   2.626   6.543 -0.1940 -0.4571 -0.2193
  115MOL   C25841526   0.007   2.587   6.648 -0.4573 -0.1809 -0.4587
  115MOL   C25941527   7.646   2.771   6.507  0.2045 -0.5476 -0.1795
  115MOL   H26041528   7.487   2.474   6.385 -1.2498  0.9737  0.5752
  115MOL   H26141529   7.343   2.383   6.431  0.8026 -1.5044 -1.0243
  115MOL   H26241530   7.561   2.387   6.636  0.8436 -0.2601 -1.3566
  115MOL   H26341531   7.503   2.631   6.696 -0.9033  2.2607 -0.1589
  115MOL   H26441532   7.431   2.632   6.528  0.8247 -0.8186 -1.0540
  115MOL   H26541533   7.678   2.580   6.449  3.5467 -2.2216  1.7205
  115MOL   H26641534   0.100   2.633   6.615  0.4734 -1.5494  0.2442
  115MOL   H26741535   0.021   2.479   6.645  0.7219 -0.1157  1.5847
  115MOL   H26841536   7.745   2.621   6.751 -0.9116  0.0651 -0.5988
  115MOL   H26941537   7.579   2.806   6.428 -1.6969  0.6124  1.8914
  115MOL   H27041538   7.625   2.822   6.601  2.8836 -1.0642  0.7312
  115MOL   H27141539   7.747   2.801   6.479 -0.5008  0.9867 -1.1291
  115MOL   C27241540   7.358   2.407   6.686 -0.0926 -1.1072 -0.1500
  115MOL   C27341541   7.371   2.413   6.841 -0.2201  0.0481 -0.0202
  115MOL   C27441542   7.256   2.499   6.899  0.6042 -0.1572  0.0068
  115MOL   C27541543   7.266   2.527   7.050 -0.5226  1.1085  0.5198
  115MOL   C27641544   7.147   2.627   7.086 -0.8028  0.3655 -0.4189
  115MOL   C27741545   7.396   2.590   7.092  0.1688  0.3939  0.1829
  115MOL   H27841546   7.271   2.459   6.647 -0.8566 -2.4540 -0.2797
  115MOL   H27941547   7.322   2.304   6.677  2.2353 -1.8088 -2.1207
  115MOL   H28041548   7.468   2.463   6.847 -0.8846  1.6552 -1.8996
  115MOL   H28141549   7.160   2.454   6.876  0.6134  0.5785 -1.5653
  115MOL   H28241550   7.260   2.586   6.834  0.7129 -1.5783 -1.9394
  115MOL   H28341551   7.252   2.435   7.107 -0.5668  0.7542 -0.0663
  115MOL   H28441552   7.132   2.647   7.192  2.5354 -1.5900  0.5125
  115MOL   H28541553   7.159   2.724   7.036  1.6528  0.8015  0.9203
  115MOL   H28641554   7.053   2.586   7.050 -1.1075  0.3322  0.4194
  115MOL   H28741555   7.388   2.583   7.201  0.1732  1.7889  0.2889
  115MOL   H28841556   7.484   2.531   7.066 -0.4541 -0.0904 -0.8472
  115MOL   H28941557   7.406   2.687   7.043 -2.0177  1.0826  1.0292
  115MOL   C29041558   7.400   2.276   6.908 -0.1263 -0.1957 -0.7733
  115MOL   C29141559   7.530   2.201   6.878 -0.8454  0.3205 -0.1042
  115MOL   C29241560   7.653   2.272   6.934 -0.1261  0.5094 -0.3060
  115MOL   C29341561   0.035   2.203   6.914  0.1787 -0.8095  0.8739
  115MOL   C29441562   0.065   2.184   6.769  0.3081 -0.0601 -0.0582
  115MOL   C29541563   0.151   2.281   6.980 -0.0699  0.6657  0.4220
  115MOL   H29641564   7.394   2.302   7.014 -0.2702 -1.3157 -0.5019
  115MOL   H29741565   7.312   2.212   6.904  1.1617 -2.1082  0.4952
  115MOL   H29841566   7.536   2.186   6.770 -0.0500 -2.2933  0.2591
  115MOL   H29941567   7.635   2.274   7.041 -1.3639  0.4445 -0.5097
  115MOL   H30041568   7.654   2.374   6.896  0.0942  0.9629  0.9145
  115MOL   H30141569   0.040   2.099   6.944 -1.8856 -0.7381  1.5571
  115MOL   H30241570   0.161   2.136   6.749  2.5752  3.7386  1.1325
  115MOL   H30341571   0.065   2.275   6.709  0.2792  0.4265  0.6718
  115MOL   H30441572   7.747   2.112   6.727  0.1267 -0.8579  1.5605
  115MOL   H30541573   0.143   2.275   7.088  0.1619 -2.9436  0.2828
  115MOL   H30641574   0.150   2.386   6.950 -0.9510  0.7557  0.7600
  115MOL   H30741575   0.235   2.218   6.953 -1.9330 -1.4914 -0.5117
  115MOL   C30841576   7.522   2.057   6.940 -0.0453 -0.4439  0.7622
  115MOL   C30941577   7.407   1.961   6.897  0.4598  0.3824 -0.3782
  115MOL   C31041578   7.437   1.917   6.748 -0.5374 -0.1214 -1.1663
  115MOL   C31141579   7.318   1.852   6.675 -0.3142 -0.4544  0.2273
  115MOL   C31241580   7.203   1.943   6.654  0.0276  0.2284 -0.3077
  115MOL   C31341581   7.369   1.801   6.541 -0.0476 -0.6179  0.3092
  115MOL   H31441582   7.610   2.011   6.894 -0.8529  0.2155 -1.4872
  115MOL   H31541583   7.535   2.058   7.048  1.1052 -0.3467  0.6276
  115MOL   H31641584   7.313   2.017   6.903  0.0416 -0.4098  0.6287
  115MOL   H31741585   7.520   1.847   6.748  0.5721  1.1388  1.1744
  115MOL   H31841586   7.473   2.001   6.690 -0.5931 -1.1094 -2.6582
  115MOL   H31941587   7.287   1.767   6.737  0.2105 -0.4806  0.4528
  115MOL   H32041588   7.163   1.988   6.745  2.0511  3.5083 -0.9227
  115MOL   H32141589   7.127   1.895   6.594 -1.0660 -0.4311  1.5710
  115MOL   H32241590   7.234   2.023   6.587  0.0083  0.7775  0.3339
  115MOL   H32341591   7.365   1.881   6.467  0.0077 -0.9880 -0.0958
  115MOL   H32441592   7.468   1.755   6.537 -0.2155 -0.9846  0.3102
  115MOL   H32541593   7.306   1.721   6.502 -1.6439  0.5848  0.3565
  115MOL   C32641594   7.403   1.836   6.988  0.5234 -0.7912 -0.2454
  115MOL   C32741595   7.356   1.849   7.133 -0.8325  0.0389 -0.7485
  115MOL   C32841596   7.376   1.717   7.210  0.0864 -0.2470  0.1735
  115MOL   C32941597   7.521   1.675   7.259  0.1889 -0.1382  0.2801
  115MOL   C33041598   7.582   1.775   7.357 -0.9727 -0.5288  0.1714
  115MOL   C33141599   7.539   1.533   7.316 -0.2485  0.1586 -0.6551
  115MOL   H33241600   7.503   1.794   6.995  0.8703 -0.4445 -2.8621
  115MOL   H33341601   7.336   1.763   6.943 -0.7584 -0.8628  1.7041
  115MOL   H33441602   7.409   1.933   7.179 -1.6510  0.7641 -1.0918
  115MOL   H33541603   7.312   1.720   7.298 -0.7148  0.0836 -0.4142
  115MOL   H33641604   7.337   1.639   7.144 -0.0315  0.5737 -0.7441
  115MOL   H33741605   7.587   1.676   7.173 -0.4231  0.0442 -0.1903
  115MOL   H33841606   7.520   1.777   7.447 -0.4403  2.5761  0.5232
  115MOL   H33941607   7.593   1.872   7.309  1.5232 -1.4959 -1.3090
  115MOL   H34041608   7.683   1.749   7.390 -0.9666 -1.9058 -0.8600
  115MOL   H34141609   7.636   1.484   7.311 -0.1489  0.4069 -1.1668
  115MOL   H34241610   7.506   1.529   7.420 -0.3547 -0.7649 -0.7191
  115MOL   H34341611   7.472   1.463   7.266  1.0332 -1.5667  0.0050
  115MOL   C34441612   7.204   1.885   7.139 -0.1141 -0.0381 -0.7722
  115MOL   C34541613   7.160   1.967   7.259 -0.5089 -0.4085 -0.3345
  115MOL   C34641614   7.011   1.959   7.292 -0.2145 -0.1174  0.1052
  115MOL   C34741615   6.973   1.980   7.438  0.4826  0.1989  0.2256
  115MOL   C34841616   6.825   1.948   7.454 -0.3315 -0.3752 -0.2315
  115MOL   C34941617   7.000   2.119   7.499 -0.7180  0.2227 -0.4266
  115MOL   H35041618   7.147   1.793   7.129 -0.7350  0.2829 -0.2518
  115MOL   H35141619   7.177   1.931   7.045 -0.2061 -2.4549 -1.9603
  115MOL   H35241620   7.201   2.068   7.259 -1.2803 -0.0866  1.5003
  115MOL   H35341621   6.954   2.023   7.224 -0.7897  1.3075  1.8895
  115MOL   H35441622   6.979   1.861   7.256 -1.0312  0.3026 -0.3364
  115MOL   H35541623   7.027   1.909   7.500  2.1896  1.7862  0.6295
  115MOL   H35641624   6.797   1.967   7.557 -0.4620  0.7071 -0.4618
  115MOL   H35741625   6.763   2.013   7.391  0.8043  1.8851  0.9382
  115MOL   H35841626   6.815   1.844   7.422 -0.6214 -0.0771 -1.1219
  115MOL   H35941627   7.015   2.105   7.607  0.1054 -0.4017 -0.6178
  115MOL   H36041628   6.913   2.183   7.483 -0.0071  1.3379  0.0357
  115MOL   H36141629   7.094   2.156   7.459 -0.7570  0.1709 -0.5643
  115MOL   H36241630   7.204   1.919   7.346  1.2339  2.2703  0.3148
  116MOL     C141631   0.598   5.811   6.718  0.0572 -0.5950 -0.7415
  116MOL     C241632   0.646   5.657   6.708  0.3820  0.3022  0.2617
  116MOL     C341633   0.799   5.624   6.747  0.0921 -0.3627  0.7363
  116MOL     C441634   0.832   5.670   6.893 -0.0218  0.4999 -0.4368
  116MOL     C541635   0.977   5.684   6.932 -0.4346 -0.3686 -0.2011
  116MOL     C641636   0.748   5.598   7.009 -0.4380 -0.8190 -0.1499
  116MOL     H741637   0.652   5.876   6.649 -2.4857  1.1056 -1.2026
  116MOL     H841638   0.496   5.829   6.684  0.7661 -0.8935 -3.1585
  116MOL     H941639   0.588   5.606   6.786  1.4899 -0.4345  0.6166
  116MOL    H1041640   0.806   5.515   6.746  0.1303 -0.3669 -1.6087
  116MOL    H1141641   0.869   5.671   6.678  1.0080 -1.8750  0.6201
  116MOL    H1241642   0.810   5.777   6.895  0.6474  0.6735 -1.9231
  116MOL    H1341643   0.988   5.747   7.021 -1.0356 -0.6093  0.0427
  116MOL    H1441644   1.018   5.587   6.961  0.3995  0.4666  1.5361
  116MOL    H1541645   1.035   5.731   6.853  1.5964  0.1765  1.5510
  116MOL    H1641646   0.727   5.493   6.990 -0.9376 -0.9878  1.3444
  116MOL    H1741647   0.655   5.649   7.037  0.7645  1.6798 -0.5980
  116MOL    H1841648   0.793   5.607   7.107  1.0991  0.5422 -0.9630
  116MOL    H1941649   0.624   5.854   6.814 -0.0663 -0.1346 -0.9121
  116MOL    C2041650   0.601   5.604   6.568 -0.5963 -0.7069  0.4235
  116MOL    C2141651   0.451   5.567   6.541  0.1588  0.0092 -0.1116
  116MOL    C2241652   0.417   5.557   6.386  0.1769 -0.4199 -0.3021
  116MOL    C2341653   0.422   5.706   6.328 -0.0373 -0.3454 -0.6047
  116MOL    C2441654   0.456   5.705   6.180 -0.1363 -0.2594  0.0308
  116MOL    C2541655   0.282   5.774   6.335 -0.2325  0.4307  0.3157
  116MOL    H2641656   0.638   5.672   6.491 -1.7690  0.0135  0.4806
  116MOL    H2741657   0.656   5.513   6.546  1.5306  0.7032 -0.2687
  116MOL    H2841658   0.400   5.648   6.592 -1.1435 -1.5241  1.0859
  116MOL    H2941659   0.320   5.511   6.372 -0.1573  0.0396  0.4955
  116MOL    H3041660   0.480   5.490   6.327  1.2964  1.7556 -1.6650
  116MOL    H3141661   0.495   5.766   6.381 -0.5125  0.0188 -0.3599
  116MOL    H3241662   0.447   5.807   6.143  1.4896  0.5016  1.6243
  116MOL    H3341663   0.391   5.640   6.122 -0.3266  0.9524 -1.1295
  116MOL    H3441664   0.558   5.666   6.178  0.8309  1.9791  2.1620
  116MOL    H3541665   0.211   5.714   6.278  2.8563 -1.3750 -1.7812
  116MOL    H3641666   0.250   5.761   6.438 -0.0007 -0.2191  0.3130
  116MOL    H3741667   0.277   5.876   6.298 -0.1855  0.3161 -0.0066
  116MOL    C3841668   0.414   5.433   6.613  0.1906  0.5363 -0.1585
  116MOL    C3941669   0.317   5.452   6.736  0.0335  0.0489 -0.2244
  116MOL    C4041670   0.327   5.321   6.821 -0.1284  0.1216  0.0304
  116MOL    C4141671   0.415   5.345   6.945 -0.4468  0.7283  0.3953
  116MOL    C4241672   0.487   5.216   6.981 -0.6555 -0.1015  0.1419
  116MOL    C4341673   0.327   5.403   7.071 -0.2126 -0.0172 -0.0588
  116MOL    H4441674   0.499   5.383   6.660 -0.6778  0.5778  1.4874
  116MOL    H4541675   0.379   5.359   6.541 -0.3426  0.4089  0.2304
  116MOL    H4641676   0.341   5.541   6.793 -0.3952 -0.3950  0.6525
  116MOL    H4741677   0.359   5.245   6.749  0.4262 -0.9149  1.3471
  116MOL    H4841678   0.232   5.283   6.858  0.8378 -0.8666  1.5500
  116MOL    H4941679   0.494   5.416   6.922  1.8593 -1.6434  0.6829
  116MOL    H5041680   0.549   5.232   7.069 -0.9846 -1.1623  0.5748
  116MOL    H5141681   0.418   5.139   7.017  0.3225 -0.4965  1.1989
  116MOL    H5241682   0.560   5.177   6.910 -0.5339  0.3361  0.0318
  116MOL    H5341683   0.379   5.486   7.118  1.0108 -2.3159  2.7851
  116MOL    H5441684   0.286   5.333   7.144 -0.6023 -2.0374 -2.1639
  116MOL    H5541685   0.237   5.452   7.034  0.3374  0.4265 -0.8238
  116MOL    C5641686   0.173   5.466   6.677 -0.3169 -0.0904 -0.3475
  116MOL    C5741687   0.081   5.545   6.768  0.1910  0.1106  0.3525
  116MOL    C5841688   7.685   5.514   6.754  0.2922 -0.6491  0.5233
  116MOL    C5941689   7.640   5.392   6.841 -0.4506 -0.0720  0.3135
  116MOL    C6041690   7.496   5.355   6.805  0.3725 -1.3460  0.4785
  116MOL    C6141691   7.664   5.407   6.991 -0.4699  0.4628  0.3657
  116MOL    H6241692   0.129   5.367   6.662 -0.2197 -0.1920  0.0387
  116MOL    H6341693   0.175   5.518   6.581 -0.6388  0.5998  0.0217
  116MOL    H6441694   0.119   5.520   6.867  1.5357 -0.4401 -0.2943
  116MOL    H6541695   7.633   5.601   6.794 -1.4762 -0.7904 -1.3599
  116MOL    H6641696   7.653   5.502   6.650  1.2323 -2.1322  0.3985
  116MOL    H6741697   7.705   5.306   6.825  1.0718  1.0543  0.3087
  116MOL    H6841698   7.434   5.444   6.815 -0.5750 -2.2135  2.5376
  116MOL    H6941699   7.462   5.289   6.885  1.1286  1.2763  3.0688
  116MOL    H7041700   7.498   5.311   6.705 -0.2545  1.7297 -0.9676
  116MOL    H7141701   0.014   5.390   7.025 -0.4759 -1.4058 -0.4783
  116MOL    H7241702   7.600   5.331   7.036 -0.1610  0.8171  1.4358
  116MOL    H7341703   7.620   5.497   7.034 -4.0576 -1.5973  1.2517
  116MOL    C7441704   0.106   5.694   6.741 -0.4552 -0.5321 -1.4682
  116MOL    C7541705   0.061   5.783   6.856  1.0817 -0.5395 -0.9343
  116MOL    C7641706   7.749   5.917   6.802 -0.7479  0.3344 -0.0591
  116MOL    C7741707   7.614   5.902   6.730 -0.2707  0.3318 -0.0050
  116MOL    C7841708   7.593   5.999   6.614  0.2376  0.1676  0.1161
  116MOL    C7941709   7.497   5.886   6.831 -0.1283  0.4597  0.3427
  116MOL    H8041710   0.057   5.732   6.651 -2.5665  2.3653  0.8192
  116MOL    H8141711   0.213   5.713   6.729 -0.3455 -0.6807 -0.7390
  116MOL    H8241712   7.734   5.737   6.915  0.6920  2.7152  1.2356
  116MOL    H8341713   7.747   5.999   6.873  2.5755 -0.2989  0.8346
  116MOL    H8441714   0.069   5.953   6.728  0.8397 -2.7383 -0.0680
  116MOL    H8541715   7.605   5.805   6.681 -0.2086 -2.0420  4.3386
  116MOL    H8641716   7.497   5.973   6.571  0.5596  0.4496 -0.7847
  116MOL    H8741717   7.674   5.996   6.541  1.5359 -0.6411  1.5683
  116MOL    H8841718   7.578   6.098   6.657 -3.4478 -0.8728  1.3528
  116MOL    H8941719   7.506   5.969   6.901  1.8763 -1.2155  2.1575
  116MOL    H9041720   7.402   5.905   6.782  0.6253  2.0792 -0.5324
  116MOL    H9141721   7.499   5.794   6.890  1.5217  0.4617  0.3233
  116MOL    C9241722   0.186   5.804   6.948 -0.0771  0.2493 -0.5877
  116MOL    C9341723   0.155   5.855   7.087  1.1341  0.1725 -0.1571
  116MOL    C9441724   0.114   5.733   7.184 -0.2206  0.0646 -0.3496
  116MOL    C9541725   0.059   5.776   7.319  0.0543 -0.1757 -1.0715
  116MOL    C9641726   7.670   5.828   7.305 -0.4192  0.5240 -0.1244
  116MOL    C9741727   0.057   5.664   7.423 -0.2325  0.0320 -0.1379
  116MOL    H9841728   0.245   5.712   6.957  0.8387  0.8370 -0.5159
  116MOL    H9941729   0.251   5.874   6.896  1.9744 -0.6586  0.6707
  116MOL   H10041730   0.065   5.917   7.078  0.6442 -0.4155  0.6094
  116MOL   H10141731   0.193   5.660   7.202 -0.9128 -0.1014  2.2231
  116MOL   H10241732   0.049   5.654   7.144 -0.3622 -0.4945  0.9585
  116MOL   H10341733   0.126   5.856   7.351  1.1954 -1.7338  0.5889
  116MOL   H10441734   7.661   5.919   7.246 -0.0850 -0.8693 -2.4237
  116MOL   H10541735   7.633   5.859   7.402 -0.4823 -1.4230  0.5013
  116MOL   H10641736   7.612   5.748   7.260  0.1579  0.8654 -1.5231
  116MOL   H10741737   0.009   5.703   7.513 -0.5214  0.7826 -0.6141
  116MOL   H10841738   0.158   5.630   7.446 -0.7608 -0.4156  1.6283
  116MOL   H10941739   7.743   5.581   7.399 -2.1002  1.4310  0.0688
  116MOL   C11041740   0.277   5.938   7.142 -0.2931 -0.5243 -0.1523
  116MOL   C11141741   0.275   6.083   7.084 -0.2692  0.9853  0.4407
  116MOL   C11241742   0.234   6.181   7.192  0.2114 -0.3472  0.0788
  116MOL   C11341743   0.095   6.156   7.253  0.4748 -0.1981 -0.6372
  116MOL   C11441744   7.722   6.189   7.165 -0.0245  0.0027 -0.5287
  116MOL   C11541745   0.075   6.226   7.388 -0.3797  0.3170 -0.0931
  116MOL   H11641746   0.365   5.884   7.109  0.0454 -0.5169  0.7327
  116MOL   H11741747   0.283   5.944   7.250  3.0237 -1.2369 -0.2545
  116MOL   H11841748   0.209   6.087   6.998 -0.5508  0.9531  0.6543
  116MOL   H11941749   0.237   6.284   7.155  2.4874 -0.3530  0.1747
  116MOL   H12041750   0.297   6.176   7.281 -0.8008  2.6429  1.0552
  116MOL   H12141751   0.083   6.051   7.277 -1.0867  0.1630  0.2017
  116MOL   H12241752   7.631   6.201   7.224  1.7103  0.8086  2.0875
  116MOL   H12341753   7.715   6.108   7.093  0.1481 -1.7947  1.4324
  116MOL   H12441754   7.745   6.280   7.109 -1.4603  0.7002 -0.0222
  116MOL   H12541755   7.744   6.187   7.446 -0.1044 -1.0006 -0.5596
  116MOL   H12641756   0.065   6.334   7.393 -1.4196  0.1720  1.3174
  116MOL   H12741757   0.158   6.199   7.454  0.5234 -0.3867 -1.4819
  116MOL   C12841758   0.419   6.132   7.028  0.2469 -0.4764 -0.0020
  116MOL   C12941759   0.403   6.216   6.899  0.0659 -0.7138  0.4242
  116MOL   C13041760   0.412   6.122   6.781 -0.1058  0.5373  0.3005
  116MOL   C13141761   0.322   6.159   6.660 -0.6191  0.1345  0.1685
  116MOL   C13241762   0.378   6.274   6.575 -0.4442  0.5467 -0.1679
  116MOL   C13341763   0.305   6.031   6.571  0.1423 -0.5370 -1.1591
  116MOL   H13441764   0.494   6.055   7.010  2.3553  1.4193  0.3944
  116MOL   H13541765   0.468   6.177   7.114  0.1642 -0.5386  0.0772
  116MOL   H13641766   0.307   6.269   6.896  1.8935  2.6854 -0.5567
  116MOL   H13741767   0.514   6.104   6.747  0.0606  2.7274 -0.4523
  116MOL   H13841768   0.376   6.023   6.807  0.9916  0.1583  0.4249
  116MOL   H13941769   0.217   6.163   6.692 -0.8455 -4.1368  0.2743
  116MOL   H14041770   0.369   6.375   6.615  0.0075  0.7931 -0.6771
  116MOL   H14141771   0.330   6.278   6.477  0.0132 -0.8049 -0.4735
  116MOL   H14241772   0.484   6.254   6.555 -0.1213 -0.5998  2.5039
  116MOL   H14341773   0.232   6.055   6.494  0.1154 -0.5089 -1.1240
  116MOL   H14441774   0.400   6.001   6.527  1.3309 -2.0357  2.2404
  116MOL   H14541775   0.267   5.947   6.629 -0.6236  1.5771  1.4770
  116MOL   C14641776   0.507   6.330   6.884 -0.0321  0.8681  0.5235
  116MOL   C14741777   0.487   6.453   6.978  0.4302  0.7265  0.2161
  116MOL   C14841778   0.480   6.582   6.896  0.2555 -0.0101  0.1280
  116MOL   C14941779   0.353   6.624   6.816  0.8485  0.3101  0.4780
  116MOL   C15041780   0.242   6.666   6.921 -0.6333 -0.0301 -0.4921
  116MOL   C15141781   0.394   6.734   6.720 -0.1811  0.4579  0.3093
  116MOL   H15241782   0.507   6.359   6.779  1.1038  1.3087  0.6361
  116MOL   H15341783   0.608   6.291   6.895  0.8486  2.9425 -0.0823
  116MOL   H15441784   0.393   6.437   7.031  1.2821 -1.3668  1.1844
  116MOL   H15541785   0.511   6.657   6.969 -3.7583  0.8551  1.0884
  116MOL   H15641786   0.554   6.583   6.816  1.0134  2.3185  0.8296
  116MOL   H15741787   0.329   6.538   6.753  2.9068  0.4198 -0.5022
  116MOL   H15841788   0.208   6.585   6.985 -1.1809 -0.0241 -0.7679
  116MOL   H15941789   0.147   6.710   6.889  0.0231  2.3140  0.7048
  116MOL   H16041790   0.287   6.746   6.979  0.5123  0.9596 -2.6791
  116MOL   H16141791   0.466   6.707   6.643  2.4840  0.0250  2.8679
  116MOL   H16241792   0.439   6.817   6.775  0.1336  0.9788 -0.7171
  116MOL   H16341793   0.303   6.771   6.672 -0.6190 -1.6211 -0.5231
  116MOL   C16441794   0.600   6.450   7.086  0.2237  0.6730 -0.1288
  116MOL   C16541795   0.591   6.530   7.216  0.4426  0.6935  0.0687
  116MOL   C16641796   0.504   6.469   7.326  0.6480  0.3835 -0.1997
  116MOL   C16741797   0.453   6.564   7.435 -0.3931 -0.0575  0.4315
  116MOL   C16841798   0.328   6.643   7.378  0.0429 -0.5472 -0.0392
  116MOL   C16941799   0.419   6.484   7.559 -0.2567 -0.2650 -0.4060
  116MOL   H17041800   0.607   6.349   7.126  0.9842  0.2836 -1.2193
  116MOL   H17141801   0.691   6.478   7.032  0.1108 -0.2174 -0.7894
  116MOL   H17241802   0.531   6.615   7.185 -1.1675 -0.5978 -0.4155
  116MOL   H17341803   0.423   6.410   7.284  0.6253 -0.5740  1.1350
  116MOL   H17441804   0.557   6.386   7.373 -0.0120  0.3068  0.4131
  116MOL   H17541805   0.531   6.633   7.467  0.6096 -0.7275 -0.5446
  116MOL   H17641806   0.293   6.708   7.458 -0.7404 -2.2693  1.0456
  116MOL   H17741807   0.247   6.572   7.362 -1.0593  1.1192 -2.1223
  116MOL   H17841808   0.361   6.707   7.296 -0.9681 -0.3213 -0.2710
  116MOL   H17941809   0.392   6.536   7.651 -0.2374 -1.0278  0.0416
  116MOL   H18041810   0.511   6.429   7.581 -0.9575 -0.3282  2.5287
  116MOL   H18141811   0.341   6.410   7.539 -1.8724  1.1284  0.6585
  116MOL   C18241812   0.727   6.566   7.267  0.5313  0.1780 -0.0443
  116MOL   C18341813   0.798   6.683   7.184 -0.2448  0.4479  0.1241
  116MOL   C18441814   0.787   6.823   7.263  1.2054  0.0219 -0.4238
  116MOL   C18541815   0.647   6.892   7.259 -0.2012  0.2363  0.0437
  116MOL   C18641816   0.634   6.996   7.368 -0.5873  0.5668 -0.0268
  116MOL   C18741817   0.614   6.952   7.124 -0.6586  0.0482  0.4378
  116MOL   H18841818   0.785   6.473   7.259 -0.8956 -0.8252  1.0356
  116MOL   H18941819   0.728   6.596   7.372 -0.0469 -0.1502  0.0575
  116MOL   H19041820   0.744   6.685   7.089 -0.1955 -0.3005  0.0778
  116MOL   H19141821   0.867   6.896   7.248  2.0889 -0.1561  3.0756
  116MOL   H19241822   0.820   6.821   7.367 -0.1305  1.1907  0.0294
  116MOL   H19341823   0.559   6.834   7.286 -0.0035 -0.3044 -0.4651
  116MOL   H19441824   0.688   7.086   7.339  0.4968 -0.5682 -1.5772
  116MOL   H19541825   0.662   6.957   7.466 -2.0468 -1.1052 -0.2520
  116MOL   H19641826   0.532   7.031   7.384 -1.0252 -1.3790  1.5437
  116MOL   H19741827   0.641   6.873   7.053  0.1559 -0.5450  1.4057
  116MOL   H19841828   0.653   7.052   7.108  3.0282 -1.2473  0.8954
  116MOL   H19941829   0.508   6.970   7.108 -0.6365 -0.3918 -0.2396
  116MOL   C20041830   0.952   6.665   7.145  0.2943 -0.1905  0.2505
  116MOL   C20141831   1.003   6.711   7.002 -0.0514  0.9821 -0.5024
  116MOL   C20241832   0.975   6.870   6.988  0.1244 -0.3928 -0.2589
  116MOL   C20341833   1.073   6.962   7.060 -0.0275  0.4479 -0.3173
  116MOL   C20441834   1.210   6.945   6.994  0.2992  0.0856 -0.1287
  116MOL   C20541835   1.038   7.118   7.050  0.6093  0.5653  0.3747
  116MOL   H20641836   0.985   6.562   7.157  2.9906  0.5883 -0.1342
  116MOL   H20741837   1.007   6.719   7.222 -0.1946  0.5633  0.0874
  116MOL   H20841838   1.110   6.693   6.993  0.7636  4.7426  0.7393
  116MOL   H20941839   0.955   6.900   6.885 -0.1326 -0.8620 -0.3506
  116MOL   H21041840   0.876   6.886   7.031 -0.5744  1.0088 -2.2928
  116MOL   H21141841   1.084   6.940   7.166  1.0214 -1.6528 -0.8204
  116MOL   H21241842   1.206   6.951   6.885  0.9773  0.6159 -0.1237
  116MOL   H21341843   1.254   6.846   7.004 -0.7501 -0.3392  0.4115
  116MOL   H21441844   1.278   7.015   7.041 -0.1047  0.8665 -0.6934
  116MOL   H21541845   1.099   7.173   7.122  0.0925  1.3127  0.2409
  116MOL   H21641846   0.934   7.137   7.073 -0.1437  0.7450 -2.9460
  116MOL   H21741847   1.061   7.160   6.953 -0.9905  0.3799 -0.0865
  116MOL   C21841848   0.945   6.619   6.891 -0.8548 -0.0923 -0.0077
  116MOL   C21941849   1.021   6.625   6.755  0.3402  0.8189 -0.8287
  116MOL   C22041850   0.939   6.571   6.632 -0.1024 -0.3532 -0.5892
  116MOL   C22141851   0.804   6.642   6.601  0.2099  0.3150  0.1907
  116MOL   C22241852   0.830   6.771   6.525  0.1072  0.6797 -0.1934
  116MOL   C22341853   0.706   6.559   6.517  0.1298  0.5242 -0.3192
  116MOL   H22441854   0.935   6.519   6.932  0.7610 -0.7814 -1.2701
  116MOL   H22541855   0.840   6.650   6.881 -0.4898  1.2560  0.2069
  116MOL   H22641856   1.022   6.733   6.742  1.5033  0.8847 -0.2326
  116MOL   H22741857   1.009   6.584   6.550  0.7935 -1.7888 -0.0759
  116MOL   H22841858   0.921   6.463   6.639  1.3964 -0.5373  0.9388
  116MOL   H22941859   0.752   6.668   6.693  0.9975  1.8307  0.2283
  116MOL   H23041860   0.906   6.828   6.580 -0.9857  1.2422  0.7552
  116MOL   H23141861   0.872   6.753   6.426 -0.5060  0.8431 -0.4815
  116MOL   H23241862   0.740   6.833   6.528  0.8342  1.7403  0.1138
  116MOL   H23341863   0.758   6.513   6.433  1.9284  1.2457  0.3533
  116MOL   H23441864   0.666   6.474   6.572  0.1457 -0.0688 -1.2232
  116MOL   H23541865   0.633   6.628   6.475 -0.8461  1.3506  2.6460
  116MOL   C23641866   1.167   6.569   6.744  0.1823  0.3729 -0.0941
  116MOL   C23741867   1.211   6.441   6.824 -0.1802 -0.2250 -0.1716
  116MOL   C23841868   1.365   6.455   6.862 -0.3951  0.2638 -0.0012
  116MOL   C23941869   1.393   6.536   6.988 -0.6875 -0.4794 -0.4603
  116MOL   C24041870   1.387   6.459   7.126 -0.1942 -0.3359  0.4003
  116MOL   C24141871   1.530   6.605   6.988 -0.4870 -0.4994  0.1070
  116MOL   H24241872   1.230   6.651   6.779  1.6977  0.7630 -3.5724
  116MOL   H24341873   1.197   6.555   6.640 -0.0744 -1.8029  0.1103
  116MOL   H24441874   1.164   6.435   6.922  1.8952  0.0017  0.8624
  116MOL   H24541875   1.429   6.477   6.776  0.7899  0.2477  0.8679
  116MOL   H24641876   1.400   6.355   6.886 -0.3745  0.2326 -0.1600
  116MOL   H24741877   1.321   6.617   6.991 -0.8612 -0.6623  0.2328
  116MOL   H24841878   1.297   6.454   7.187  1.0848  0.2385  2.3853
  116MOL   H24941879   1.459   6.487   7.203 -0.1280  2.3230 -0.5545
  116MOL   H25041880   1.425   6.359   7.108  0.0596 -0.1963  0.1487
  116MOL   H25141881   1.615   6.542   7.014 -0.7398 -0.9858 -0.2560
  116MOL   H25241882   1.526   6.684   7.064 -0.1801 -0.7921  0.4271
  116MOL   H25341883   1.557   6.651   6.893 -0.0191  0.3244  0.6272
  116MOL   C25441884   1.191   6.309   6.739 -0.4437 -0.1466 -0.8682
  116MOL   C25541885   1.183   6.185   6.822  0.2507  0.2103 -0.4976
  116MOL   C25641886   1.040   6.182   6.889  0.0529 -0.3343  0.8984
  116MOL   C25741887   1.031   6.102   7.017  0.0229 -0.0526 -0.1913
  116MOL   C25841888   0.883   6.063   7.042 -0.0352  0.4439 -0.2117
  116MOL   C25941889   1.067   6.189   7.142  0.0577 -0.4532  0.1403
  116MOL   H26041890   1.091   6.311   6.696  0.1878  2.9289 -2.2572
  116MOL   H26141891   1.266   6.304   6.660 -0.5125  1.1720 -1.0290
  116MOL   H26241892   1.260   6.180   6.899 -0.5425 -1.8403  0.1934
  116MOL   H26341893   0.970   6.147   6.813 -1.2178  2.9638  0.4614
  116MOL   H26441894   1.012   6.287   6.899 -0.4151 -0.4678  1.0204
  116MOL   H26541895   1.098   6.016   7.004  1.5147  0.8033  1.5697
  116MOL   H26641896   0.857   5.976   6.981  0.1490  0.0509  0.2671
  116MOL   H26741897   0.807   6.139   7.022 -1.6373 -1.2025 -0.5169
  116MOL   H26841898   0.873   6.047   7.149  3.2057  4.1250  0.7460
  116MOL   H26941899   1.160   6.243   7.128  0.3075 -0.2871  2.2414
  116MOL   H27041900   0.998   6.272   7.160  0.4235 -0.2108  0.4356
  116MOL   H27141901   1.076   6.143   7.241  3.0552  2.3975  1.2904
  116MOL   C27241902   1.209   6.047   6.743 -0.2042  1.1765 -0.6831
  116MOL   C27341903   1.354   6.021   6.710 -0.5709 -0.3705  0.7777
  116MOL   C27441904   1.419   5.958   6.833  0.7907 -0.3397  0.8759
  116MOL   C27541905   1.538   6.037   6.884 -0.8065 -0.0715  0.4727
  116MOL   C27641906   1.665   6.009   6.800 -0.3160  0.2545  0.9408
  116MOL   C27741907   1.577   6.011   7.029 -0.7989 -0.3850  0.0862
  116MOL   H27841908   1.171   5.969   6.809  1.3757  1.2249  0.3228
  116MOL   H27941909   1.146   6.045   6.654  0.1697 -0.1155 -0.9356
  116MOL   H28041910   1.395   6.121   6.697 -0.7007 -0.5711 -1.3904
  116MOL   H28141911   1.440   5.854   6.810 -1.5901 -0.2003 -2.3239
  116MOL   H28241912   1.351   5.953   6.917  0.7139  1.4530  0.9391
  116MOL   H28341913   1.515   6.143   6.872 -0.9361 -0.0250  1.1385
  116MOL   H28441914   1.661   6.068   6.708  2.2557  0.6013  1.0110
  116MOL   H28541915   1.756   6.040   6.852  0.3940 -1.0634  0.4918
  116MOL   H28641916   1.693   5.907   6.775  1.9668  0.6515  1.7147
  116MOL   H28741917   1.497   6.015   7.103 -1.0937 -0.4835 -0.2222
  116MOL   H28841918   1.628   5.917   7.046  1.9496  0.7588 -1.5901
  116MOL   H28941919   1.648   6.092   7.044 -1.3375  0.1966 -0.4643
  116MOL   C29041920   1.373   5.941   6.581  0.4318  0.3133  0.3117
  116MOL   C29141921   1.362   6.016   6.447  0.6625  0.5472  0.4166
  116MOL   C29241922   1.486   6.105   6.435 -0.1931  1.0623 -0.1289
  116MOL   C29341923   1.463   6.216   6.330 -0.1197  0.5083  0.8403
  116MOL   C29441924   1.383   6.334   6.388 -0.4699 -0.0980  0.0136
  116MOL   C29541925   1.599   6.273   6.278  0.4226 -0.7247 -0.0630
  116MOL   H29641926   1.470   5.891   6.574  0.6155  0.9100 -1.5830
  116MOL   H29741927   1.307   5.854   6.587  0.4370  0.3538  1.1431
  116MOL   H29841928   1.273   6.077   6.433 -0.5245 -1.0192  0.9746
  116MOL   H29941929   1.566   6.036   6.407 -1.8127 -2.0019  2.4984
  116MOL   H30041930   1.516   6.152   6.528  0.6173  3.4240 -1.5330
  116MOL   H30141931   1.407   6.176   6.246  1.4040 -0.6511  0.3567
  116MOL   H30241932   1.377   6.407   6.308 -0.6163 -1.3919 -1.1581
  116MOL   H30341933   1.427   6.371   6.481 -2.7284  0.4885  0.9060
  116MOL   H30441934   1.277   6.315   6.407 -0.4294  0.0730  0.4130
  116MOL   H30541935   1.603   6.299   6.173 -0.1533  0.4166  0.1981
  116MOL   H30641936   1.679   6.202   6.301  2.0440  1.4242  1.1341
  116MOL   H30741937   1.624   6.364   6.332  2.6641 -0.4933 -1.4016
  116MOL   C30841938   1.362   5.911   6.331 -0.1494 -0.0393 -0.6480
  116MOL   C30941939   1.235   5.817   6.306 -0.1585  0.0444  0.2247
  116MOL   C31041940   1.133   5.906   6.228  0.0017 -0.7335 -0.0170
  116MOL   C31141941   0.985   5.856   6.206 -0.2608  0.3655  0.6919
  116MOL   C31241942   0.893   5.879   6.329  0.5230  0.4573  0.2353
  116MOL   C31341943   0.928   5.926   6.075 -0.4397  0.0022 -0.6449
  116MOL   H31441944   1.363   5.982   6.248 -3.0797  1.3908  0.4678
  116MOL   H31541945   1.457   5.857   6.327  0.9866  1.7978  0.6447
  116MOL   H31641946   1.186   5.798   6.402  2.0755 -5.1210  0.5456
  116MOL   H31741947   1.167   5.925   6.126  0.7492  1.3186  0.5944
  116MOL   H31841948   1.128   6.003   6.278  2.8190 -0.0827 -0.9105
  116MOL   H31941949   0.989   5.749   6.188 -3.1674 -0.2290  3.0673
  116MOL   H32041950   0.902   5.971   6.387  1.8238  1.3863 -1.3745
  116MOL   H32141951   0.926   5.808   6.404  1.3541  1.0639  0.4543
  116MOL   H32241952   0.787   5.879   6.303  0.4209  1.5551  0.6043
  116MOL   H32341953   0.999   5.934   5.993  1.2689 -1.5212  0.6713
  116MOL   H32441954   0.844   5.871   6.031 -0.6311 -1.6502  1.7029
  116MOL   H32541955   0.888   6.024   6.102  0.6700  0.5702 -1.0546
  116MOL   C32641956   1.265   5.680   6.241  0.0364  0.7012  0.4865
  116MOL   C32741957   1.255   5.567   6.340 -1.2969 -0.8912 -0.2235
  116MOL   C32841958   1.370   5.460   6.316  0.1421 -0.3873 -1.1335
  116MOL   C32941959   1.506   5.492   6.375 -0.2103 -0.5550  0.9662
  116MOL   C33041960   1.493   5.492   6.533  0.3270  0.1024 -0.4087
  116MOL   C33141961   1.604   5.400   6.319 -0.8201 -0.3680  0.1095
  116MOL   H33241962   1.365   5.681   6.198 -0.4778 -1.0638 -0.7968
  116MOL   H33341963   1.205   5.659   6.153  1.6985  1.0424 -0.7631
  116MOL   H33441964   1.273   5.614   6.437 -0.6602  1.2862 -1.3569
  116MOL   H33541965   1.350   5.361   6.358  0.5642  0.6315  1.6167
  116MOL   H33641966   1.377   5.436   6.210 -2.4059 -0.2137 -1.3596
  116MOL   H33741967   1.529   5.593   6.339 -0.1797 -1.4933 -1.8105
  116MOL   H33841968   1.427   5.566   6.578 -2.3442 -0.6274 -2.9493
  116MOL   H33941969   1.585   5.494   6.591 -1.0124  1.4289  1.7652
  116MOL   H34041970   1.445   5.402   6.571  0.5648  0.6046  1.0901
  116MOL   H34141971   1.636   5.448   6.226 -1.4454 -2.4544 -1.2175
  116MOL   H34241972   1.686   5.380   6.388  0.7479  0.0364 -1.5997
  116MOL   H34341973   1.567   5.301   6.293 -0.8564 -0.3831  0.2144
  116MOL   C34441974   1.117   5.509   6.337 -0.3664 -0.2433  0.6139
  116MOL   C34541975   1.064   5.442   6.472 -0.1187  0.2981  0.0688
  116MOL   C34641976   0.919   5.407   6.481  0.4873  0.2218  0.6327
  116MOL   C34741977   0.858   5.313   6.365 -0.7819  0.7196  0.0836
  116MOL   C34841978   0.706   5.327   6.341  0.2810  0.5970  0.3293
  116MOL   C34941979   0.895   5.169   6.378  0.6539 -0.4065  0.3063
  116MOL   H35041980   1.112   5.436   6.256 -1.4148 -0.4685  0.8668
  116MOL   H35141981   1.043   5.580   6.300  1.1991  1.0498 -0.0823
  116MOL   H35241982   1.081   5.522   6.543 -1.1103  0.4878  0.0965
  116MOL   H35341983   0.896   5.349   6.570  0.7664  0.2091  0.6950
  116MOL   H35441984   0.861   5.500   6.483 -0.9722 -0.6681  0.5309
  116MOL   H35541985   0.909   5.336   6.272 -0.2355  0.0529  0.2088
  116MOL   H35641986   0.692   5.429   6.307  1.9388  0.2931 -1.3696
  116MOL   H35741987   0.668   5.254   6.270 -1.4718  0.6187  1.2132
  116MOL   H35841988   0.665   5.300   6.438  2.9164  2.1052  1.9287
  116MOL   H35941989   1.003   5.160   6.379  0.8342  1.7194  1.8043
  116MOL   H36041990   0.855   5.124   6.287  1.5243 -2.0801  0.7244
  116MOL   H36141991   0.848   5.109   6.456 -0.1788  0.1734  0.2556
  116MOL   H36241992   1.129   5.356   6.489 -0.9684 -0.1896  0.9349
  117MOL     C141993   3.743   4.620   6.408 -0.3653 -0.5334  0.1863
  117MOL     C241994   3.733   4.558   6.268  0.1665 -0.6848  0.2795
  117MOL     C341995   3.591   4.479   6.258 -0.5025  0.0003  0.0731
  117MOL     C441996   3.566   4.401   6.126 -0.9471 -0.0332  0.0954
  117MOL     C541997   3.570   4.490   5.999  0.0987 -0.0725 -0.1548
  117MOL     C641998   3.431   4.335   6.130 -0.6531 -0.3720 -0.4985
  117MOL     H741999   3.654   4.672   6.444 -3.5451 -4.1536 -2.0539
  117MOL     H842000   3.763   4.548   6.487 -0.5715 -0.0393  0.6917
  117MOL     H942001   3.722   4.642   6.199 -2.1441 -1.3649 -0.2041
  117MOL    H1042002   3.579   4.409   6.340 -2.4224  0.2955  0.0695
  117MOL    H1142003   3.516   4.557   6.273 -0.2899  0.1419  0.3985
  117MOL    H1242004   3.641   4.324   6.113 -0.5245  0.4548 -0.3731
  117MOL    H1342005   3.537   4.432   5.913 -0.6603  0.6081 -0.3276
  117MOL    H1442006   3.504   4.576   6.004 -0.9264 -0.9211  1.2869
  117MOL    H1542007   3.673   4.523   5.983  0.2188  1.1535  2.7890
  117MOL    H1642008   3.349   4.407   6.136  1.0222  1.4504  1.1484
  117MOL    H1742009   3.433   4.271   6.218  2.0182  1.5606  0.8927
  117MOL    H1842010   3.409   4.274   6.042 -3.8297 -0.4595  0.3048
  117MOL    H1942011   3.819   4.698   6.409 -1.2441  0.3173  1.4855
  117MOL    C2042012   3.847   4.463   6.244 -0.2692 -0.8248 -0.6829
  117MOL    C2142013   3.988   4.523   6.267 -0.1913 -0.2234  0.3266
  117MOL    C2242014   4.062   4.427   6.358  0.2271 -0.4454  0.0626
  117MOL    C2342015   4.027   4.433   6.499  0.6514 -0.4425  0.2268
  117MOL    C2442016   4.100   4.323   6.570  0.2191 -0.0595 -0.9014
  117MOL    C2542017   4.056   4.566   6.564  0.0511 -0.3812 -0.0542
  117MOL    H2642018   3.835   4.368   6.296  0.5390 -0.4726  0.1487
  117MOL    H2742019   3.831   4.429   6.142 -2.3045  0.7105 -0.9066
  117MOL    H2842020   3.983   4.626   6.302  0.2370  0.9351 -2.8579
  117MOL    H2942021   4.170   4.440   6.358  0.1411  0.3302 -0.4456
  117MOL    H3042022   4.047   4.324   6.324 -2.3751  0.1819 -0.8478
  117MOL    H3142023   3.921   4.412   6.511  0.6440  0.2622  1.4259
  117MOL    H3242024   4.083   4.330   6.677 -1.9025  1.4025 -1.2974
  117MOL    H3342025   4.207   4.343   6.556  0.1334 -0.2884 -1.9556
  117MOL    H3442026   4.078   4.222   6.535  1.5992 -0.9714  0.7508
  117MOL    H3542027   4.059   4.552   6.672  2.1959  0.6940  0.0483
  117MOL    H3642028   4.157   4.601   6.542  0.4500 -1.8175 -0.5715
  117MOL    H3742029   3.980   4.641   6.539  1.6848  1.4104  0.2872
  117MOL    C3842030   4.068   4.547   6.136 -0.2403 -0.5271  0.0644
  117MOL    C3942031   4.063   4.692   6.081  0.7333 -0.2116 -0.4895
  117MOL    C4042032   4.078   4.689   5.930  0.2887  0.4347 -0.7302
  117MOL    C4142033   3.960   4.634   5.844  0.4832  0.3516  0.6502
  117MOL    C4242034   4.010   4.598   5.707 -0.3747  0.6913  0.0403
  117MOL    C4342035   3.846   4.739   5.829  0.1404 -0.1573  0.2643
  117MOL    H4442036   4.042   4.477   6.056 -0.8007 -0.1834 -0.0581
  117MOL    H4542037   4.173   4.527   6.155 -0.3522  0.1225  1.4068
  117MOL    H4642038   3.966   4.740   6.097  0.3726 -1.5564  1.6170
  117MOL    H4742039   4.167   4.630   5.909 -1.6280 -2.3887 -1.2003
  117MOL    H4842040   4.109   4.782   5.883  0.2381  1.9626  2.1753
  117MOL    H4942041   3.921   4.544   5.891  1.8938 -0.5615  0.0817
  117MOL    H5042042   3.925   4.565   5.648  0.1859  0.8327 -0.8603
  117MOL    H5142043   4.060   4.688   5.670  2.3569 -0.3063  1.1559
  117MOL    H5242044   4.088   4.523   5.721  0.4915  1.3980 -0.8416
  117MOL    H5342045   3.886   4.834   5.795  0.0552 -0.4925 -0.7855
  117MOL    H5442046   3.794   4.755   5.924  0.3102  1.4452  0.0953
  117MOL    H5542047   3.771   4.702   5.759 -0.1436  1.2610 -0.1979
  117MOL    C5642048   4.172   4.790   6.142  0.2610 -0.1526 -0.0385
  117MOL    C5742049   4.138   4.941   6.146  0.8604  0.2368  0.2029
  117MOL    C5842050   4.269   5.021   6.157  0.1308  0.7155  0.6373
  117MOL    C5942051   4.343   5.050   6.016  0.3494  0.5904  0.4845
  117MOL    C6042052   4.499   5.065   6.037  0.0939 -0.1933  0.1993
  117MOL    C6142053   4.289   5.168   5.940  0.2729  0.0187 -0.2416
  117MOL    H6242054   4.261   4.778   6.079  0.8844  0.0251  0.7933
  117MOL    H6342055   4.199   4.761   6.244  1.0045  2.9648  0.7161
  117MOL    H6442056   4.081   4.973   6.059 -1.4900 -0.9055  1.2690
  117MOL    H6542057   4.254   5.119   6.200  1.4423  1.0695  0.3172
  117MOL    H6642058   4.325   4.976   6.238 -2.2927  0.4538  2.2247
  117MOL    H6742059   4.334   4.959   5.956  2.6796  0.9529 -0.4630
  117MOL    H6842060   4.544   5.050   5.939 -0.4435 -0.5364  0.0034
  117MOL    H6942061   4.534   4.992   6.109 -0.4125  0.4484  1.1109
  117MOL    H7042062   4.530   5.167   6.062 -0.8070  0.1517 -0.0764
  117MOL    H7142063   4.303   5.266   5.986 -2.3873  0.6999 -0.8053
  117MOL    H7242064   4.181   5.156   5.933  0.4173 -0.2019 -2.2518
  117MOL    H7342065   4.320   5.178   5.836  0.3237 -0.7270 -0.3001
  117MOL    C7442066   4.043   4.957   6.270 -0.6731  0.2497 -0.3783
  117MOL    C7542067   3.945   5.081   6.278 -0.6148  0.3389  0.9098
  117MOL    C7642068   3.881   5.120   6.146 -0.2683  0.0921 -0.1914
  117MOL    C7742069   3.791   5.016   6.087 -0.5101  0.4482 -0.3035
  117MOL    C7842070   3.734   5.055   5.946  1.2467 -0.1510 -0.1466
  117MOL    C7942071   3.679   4.966   6.185  0.0716 -0.1491 -0.8739
  117MOL    H8042072   4.097   4.946   6.365  0.5090  2.6612 -0.7190
  117MOL    H8142073   3.969   4.878   6.262  0.1714 -0.7435  1.1936
  117MOL    H8242074   3.872   5.063   6.357 -1.2292 -0.6143  0.1251
  117MOL    H8342075   3.828   5.214   6.162 -0.3820  0.4105 -2.3433
  117MOL    H8442076   3.959   5.154   6.077  1.2504  1.1390  1.9941
  117MOL    H8542077   3.855   4.931   6.060 -0.0526  0.3081  1.1744
  117MOL    H8642078   3.655   4.985   5.917  1.6760 -0.4816 -0.5132
  117MOL    H8742079   3.818   5.044   5.878  0.9950  3.8979 -1.2636
  117MOL    H8842080   3.684   5.152   5.936 -3.6554 -2.3198  1.4331
  117MOL    H8942081   3.720   4.929   6.279  0.6174  0.7033 -0.7719
  117MOL    H9042082   3.611   5.047   6.212  0.1014 -0.0359 -1.1307
  117MOL    H9142083   3.631   4.874   6.151  0.1239  0.2502 -2.0577
  117MOL    C9242084   4.024   5.198   6.335 -0.1037 -0.6502 -0.6957
  117MOL    C9342085   3.935   5.298   6.403  0.0985 -0.1992 -0.3047
  117MOL    C9442086   3.912   5.265   6.552  0.1093 -0.2353 -0.4865
  117MOL    C9542087   3.773   5.330   6.592 -0.4812  0.0425 -0.0606
  117MOL    C9642088   3.650   5.248   6.555 -0.7605  0.7406  0.6109
  117MOL    C9742089   3.761   5.369   6.737  0.2170  0.3297  0.1123
  117MOL    H9842090   4.097   5.176   6.413 -1.0424  1.4387  0.8365
  117MOL    H9942091   4.093   5.235   6.259 -0.7101  0.8178 -0.5513
  117MOL   H10042092   3.834   5.305   6.364  0.6682  0.1659 -1.7602
  117MOL   H10142093   3.998   5.313   6.598  0.4036 -0.8469 -0.3948
  117MOL   H10242094   3.910   5.159   6.576 -1.3854  0.2506  1.6594
  117MOL   H10342095   3.755   5.425   6.541 -3.5862  1.0140  2.6807
  117MOL   H10442096   3.656   5.208   6.454  0.7138  0.0123  0.9774
  117MOL   H10542097   3.558   5.308   6.558 -1.5440 -0.1450 -3.1129
  117MOL   H10642098   3.644   5.163   6.623  0.6782  0.9249  0.9778
  117MOL   H10742099   3.671   5.429   6.752  1.1300  2.0535 -1.2141
  117MOL   H10842100   3.844   5.411   6.793 -1.7417  1.7704  2.0399
  117MOL   H10942101   3.728   5.277   6.787 -1.5953  1.0741  0.3402
  117MOL   C11042102   3.993   5.450   6.381 -0.2741  0.0033 -0.1628
  117MOL   C11142103   3.957   5.499   6.237  0.4090 -0.1241  0.3279
  117MOL   C11242104   3.869   5.633   6.231  0.4337 -1.0840 -0.0138
  117MOL   C11342105   3.730   5.618   6.286 -0.2176 -0.3400 -0.2744
  117MOL   C11442106   3.638   5.526   6.208  0.3514 -0.2833  0.0965
  117MOL   C11542107   3.673   5.762   6.312  0.4485  0.5191  0.1310
  117MOL   H11642108   4.099   5.469   6.401 -0.4505  1.1609 -0.3074
  117MOL   H11742109   3.937   5.510   6.452  0.9625  2.1859 -1.0132
  117MOL   H11842110   3.898   5.419   6.191  0.7035  0.5646 -1.3028
  117MOL   H11942111   3.868   5.651   6.124  2.8667 -2.4882 -0.3131
  117MOL   H12042112   3.921   5.717   6.277 -0.9581 -0.0712 -0.2579
  117MOL   H12142113   3.738   5.583   6.389 -0.0169 -3.7976 -1.3966
  117MOL   H12242114   3.541   5.519   6.258 -0.3587  0.3832 -1.1684
  117MOL   H12342115   3.687   5.430   6.191  2.3599  0.4323  1.6461
  117MOL   H12442116   3.592   5.561   6.116 -2.1072  1.3476  1.8613
  117MOL   H12542117   3.671   5.813   6.215  0.9242  0.8712  0.3013
  117MOL   H12642118   3.725   5.828   6.382 -1.0508  2.1004 -0.2085
  117MOL   H12742119   3.568   5.766   6.342  0.2599  1.9721 -0.6442
  117MOL   C12842120   4.087   5.520   6.147 -0.5967 -0.1104  0.3874
  117MOL   C12942121   4.076   5.547   5.994 -0.4452  0.1305  0.2639
  117MOL   C13042122   4.026   5.432   5.911 -0.5088  0.2458  0.0515
  117MOL   C13142123   3.948   5.465   5.788  0.2807 -0.1248 -0.2386
  117MOL   C13242124   3.965   5.352   5.684 -0.0225 -0.2689  0.6587
  117MOL   C13342125   3.799   5.493   5.835  1.0836  0.1105  0.8270
  117MOL   H13442126   4.143   5.427   6.157  0.2165  0.5205  1.8923
  117MOL   H13542127   4.164   5.579   6.196  1.4592 -1.4845 -1.1005
  117MOL   H13642128   4.019   5.639   5.986 -1.0401 -0.3050 -0.5648
  117MOL   H13742129   4.107   5.359   5.899 -0.4426  0.0731  1.4578
  117MOL   H13842130   3.958   5.382   5.980 -1.2760  0.0676 -0.8347
  117MOL   H13942131   3.981   5.558   5.741 -0.1385  0.8704  1.3819
  117MOL   H14042132   3.899   5.382   5.602  0.3862  0.0544  0.4495
  117MOL   H14142133   3.929   5.256   5.721  0.8481 -0.2436  1.5788
  117MOL   H14242134   4.069   5.351   5.653  0.4046 -0.8972  2.0628
  117MOL   H14342135   3.795   5.575   5.906  2.4200 -1.8528  3.2504
  117MOL   H14442136   3.735   5.516   5.749  2.0639 -1.7494 -0.4405
  117MOL   H14542137   3.749   5.406   5.877 -0.1822  0.7789  0.7371
  117MOL   C14642138   4.218   5.593   5.945  0.1928 -0.5803 -0.7229
  117MOL   C14742139   4.259   5.737   5.971 -0.3863  0.9220 -0.4854
  117MOL   C14842140   4.186   5.819   5.870 -0.0912 -0.4610  0.3042
  117MOL   C14942141   4.120   5.950   5.924 -0.3224  0.2091  0.0155
  117MOL   C15042142   4.067   6.044   5.806 -0.8167 -0.2939 -0.3450
  117MOL   C15142143   4.013   5.916   6.026  0.0998 -0.1180  0.0441
  117MOL   H15242144   4.232   5.575   5.838  1.0764 -0.2207 -0.6684
  117MOL   H15342145   4.294   5.521   5.977 -0.3275 -0.0638  1.7574
  117MOL   H15442146   4.226   5.755   6.073 -1.4180 -2.8797 -0.0597
  117MOL   H15542147   4.265   5.855   5.804  0.2496  0.3183  1.1154
  117MOL   H15642148   4.122   5.762   5.803 -1.3914  0.7217  0.5283
  117MOL   H15742149   4.198   6.006   5.977 -0.1250  0.9835 -1.0866
  117MOL   H15842150   4.022   6.138   5.837  1.1175  0.8692 -0.9805
  117MOL   H15942151   3.984   5.990   5.761 -0.7731 -0.9150  0.3098
  117MOL   H16042152   4.140   6.063   5.727 -1.5291  1.5874 -0.5624
  117MOL   H16142153   3.977   6.013   6.060  0.3630 -0.2930  0.8411
  117MOL   H16242154   4.063   5.874   6.114  0.1020 -0.6998 -0.2333
  117MOL   H16342155   3.924   5.861   5.996  0.4931 -1.0431  0.5379
  117MOL   C16442156   4.414   5.769   5.964 -0.7238 -0.0727 -0.6228
  117MOL   C16542157   4.499   5.708   6.082 -0.3613  0.3446  0.5174
  117MOL   C16642158   4.652   5.719   6.055 -0.4905  0.1242  0.0302
  117MOL   C16742159   4.707   5.600   5.983 -0.4807  0.6972  0.3064
  117MOL   C16842160   4.833   5.638   5.903 -0.1835  1.0271 -0.6771
  117MOL   C16942161   4.722   5.469   6.069 -0.2814  0.2879  0.3384
  117MOL   H17042162   4.453   5.735   5.868  2.1306  1.9165 -0.1963
  117MOL   H17142163   4.434   5.876   5.967  0.2724 -0.2727 -0.1452
  117MOL   H17242164   4.467   5.605   6.097 -0.5057  0.2062 -0.6734
  117MOL   H17342165   4.669   5.815   6.006  0.1718  0.5620  1.0999
  117MOL   H17442166   4.711   5.707   6.146 -3.0665 -0.9768  1.6114
  117MOL   H17542167   4.641   5.584   5.898 -0.4734  0.3828  0.3591
  117MOL   H17642168   4.848   5.566   5.822  1.4641  1.3030 -0.6459
  117MOL   H17742169   4.924   5.638   5.963  0.3686 -0.1222 -1.4845
  117MOL   H17842170   4.817   5.735   5.856 -1.6157  0.5856 -1.1174
  117MOL   H17942171   4.709   5.379   6.010  0.7695 -0.1438  0.7440
  117MOL   H18042172   4.642   5.453   6.141 -0.6200 -0.2562 -0.1667
  117MOL   H18142173   4.823   5.465   6.111  0.0363 -0.5946 -0.4936
  117MOL   C18242174   4.475   5.788   6.218  0.6464  0.4516 -0.7596
  117MOL   C18342175   4.504   5.706   6.348 -0.1777  0.4393  0.1266
  117MOL   C18442176   4.624   5.751   6.436 -0.4603  0.4438 -0.5469
  117MOL   C18542177   4.662   5.639   6.531  0.4063 -0.2537  0.0892
  117MOL   C18642178   4.751   5.533   6.473 -0.2937 -0.0030 -0.3142
  117MOL   C18742179   4.714   5.693   6.660  0.1443 -0.6247  0.0159
  117MOL   H18842180   4.371   5.819   6.209  0.8367  1.6928  1.0921
  117MOL   H18942181   4.532   5.881   6.225 -0.1759  0.9778 -0.9846
  117MOL   H19042182   4.529   5.609   6.306 -0.1241  0.5152 -0.0170
  117MOL   H19142183   4.600   5.836   6.500 -0.3453  0.3331 -0.3575
  117MOL   H19242184   4.706   5.778   6.369 -0.6055  2.7137  0.1418
  117MOL   H19342185   4.577   5.578   6.561  0.4628 -1.0327 -1.3002
  117MOL   H19442186   4.762   5.451   6.542  0.7659  1.3289  1.1229
  117MOL   H19542187   4.841   5.590   6.449 -0.2446  0.7710  1.6122
  117MOL   H19642188   4.711   5.493   6.380  1.7808 -1.6535 -0.5111
  117MOL   H19742189   4.735   5.604   6.720  1.7909  0.4047  0.9850
  117MOL   H19842190   4.642   5.757   6.712  1.0035  0.2697  0.1318
  117MOL   H19942191   4.805   5.752   6.649 -0.1634  0.2162  1.7918
  117MOL   C20042192   4.372   5.690   6.431 -0.0975 -0.3032  0.5043
  117MOL   C20142193   4.347   5.796   6.542 -0.2653  0.5953  0.7760
  117MOL   C20242194   4.220   5.755   6.628 -0.0081  0.5261  0.5122
  117MOL   C20342195   4.210   5.612   6.670 -0.1428  0.5482  0.0497
  117MOL   C20442196   4.326   5.579   6.765 -0.1414 -0.4130  0.1408
  117MOL   C20542197   4.082   5.577   6.752  0.0460 -0.0630  0.0856
  117MOL   H20642198   4.378   5.587   6.465 -1.0408 -0.7167 -0.5333
  117MOL   H20742199   4.282   5.698   6.370  0.6272 -0.1320 -0.5469
  117MOL   H20842200   4.430   5.803   6.613  0.2061  1.7116  0.1351
  117MOL   H20942201   4.191   5.819   6.711 -1.1775  2.4231 -1.3164
  117MOL   H21042202   4.132   5.762   6.564  0.2432 -3.8023 -0.4421
  117MOL   H21142203   4.208   5.544   6.585  1.2766  1.9815 -1.1503
  117MOL   H21242204   4.308   5.640   6.853  0.1441 -0.4028  0.1917
  117MOL   H21342205   4.425   5.599   6.724  0.8331  1.0202  3.0542
  117MOL   H21442206   4.330   5.472   6.787 -0.7271 -0.5953 -0.6274
  117MOL   H21542207   3.991   5.586   6.693  0.3596  2.0282 -0.0980
  117MOL   H21642208   4.068   5.653   6.830  1.4305 -0.1079  0.3872
  117MOL   H21742209   4.073   5.475   6.789  0.1134  0.9914  3.2057
  117MOL   C21842210   4.337   5.947   6.492 -0.1856  0.0663  0.1956
  117MOL   C21942211   4.325   6.069   6.592  0.0869  0.4265 -0.2363
  117MOL   C22042212   4.343   6.209   6.532 -0.5056  0.0638 -0.1541
  117MOL   C22142213   4.252   6.264   6.419 -0.6123 -0.4597 -0.1129
  117MOL   C22242214   4.296   6.213   6.280  0.0737  0.4527  0.3167
  117MOL   C22342215   4.096   6.241   6.442 -0.0014 -0.0074 -0.3317
  117MOL   H22442216   4.426   5.966   6.433 -1.6033 -0.0816 -2.0764
  117MOL   H22542217   4.252   5.942   6.423 -0.1317  0.9840  0.0603
  117MOL   H22642218   4.225   6.060   6.634  1.3437 -2.2427  2.3618
  117MOL   H22742219   4.328   6.275   6.618  2.2893 -0.9898  1.2060
  117MOL   H22842220   4.449   6.210   6.506 -0.7875 -1.4720 -1.4119
  117MOL   H22942221   4.261   6.372   6.411 -0.5322 -0.5231 -0.9031
  117MOL   H23042222   4.265   6.109   6.265  1.2512  0.1461 -0.0466
  117MOL   H23142223   4.254   6.262   6.193  1.6777  1.6714  0.2109
  117MOL   H23242224   4.402   6.219   6.255 -0.2699 -1.0519 -1.6617
  117MOL   H23342225   4.074   6.135   6.457  1.7335 -0.0961  1.8713
  117MOL   H23442226   4.050   6.317   6.506  0.6878 -1.0235  1.4155
  117MOL   H23542227   4.050   6.261   6.346  1.0674 -0.8173 -1.0257
  117MOL   C23642228   4.426   6.056   6.710  0.1347  0.6933  0.4464
  117MOL   C23742229   4.429   6.172   6.818 -0.1126  0.1645  0.2446
  117MOL   C23842230   4.537   6.135   6.921 -0.1283 -0.5292 -1.2890
  117MOL   C23942231   4.680   6.195   6.891 -0.2662  0.4145 -0.2917
  117MOL   C24042232   4.737   6.174   6.749 -0.2714  0.0889 -0.0124
  117MOL   C24142233   4.696   6.342   6.944 -0.1321  0.0993 -0.0681
  117MOL   H24242234   4.525   6.044   6.667 -0.9278 -0.9315 -1.6258
  117MOL   H24342235   4.419   5.957   6.756  0.7314 -0.4520 -1.8529
  117MOL   H24442236   4.444   6.270   6.771  1.3562  0.3913  1.1795
  117MOL   H24542237   4.545   6.026   6.926 -0.4956 -0.4901  0.4664
  117MOL   H24642238   4.514   6.162   7.024  0.9154 -0.2617 -1.1244
  117MOL   H24742239   4.760   6.147   6.947 -0.8008  0.7216  0.7392
  117MOL   H24842240   4.690   6.221   6.663  0.4107  0.1315 -0.3687
  117MOL   H24942241   4.736   6.071   6.714  0.1009  0.3048 -0.6769
  117MOL   H25042242   4.837   6.215   6.731 -0.7974  0.4934 -2.1108
  117MOL   H25142243   4.615   6.397   6.897 -0.4928  0.9905  1.5580
  117MOL   H25242244   4.789   6.394   6.922  0.0002  0.3044  0.9389
  117MOL   H25342245   4.675   6.348   7.051  0.2740  1.3135 -0.0554
  117MOL   C25442246   4.289   6.184   6.887  0.1249  0.1388  0.2053
  117MOL   C25542247   4.279   6.272   7.016 -0.5452  0.6432 -0.1771
  117MOL   C25642248   4.322   6.415   6.987  0.7720  0.6016 -1.0249
  117MOL   C25742249   4.342   6.505   7.121  0.2522  0.6789  0.5528
  117MOL   C25842250   4.328   6.657   7.091 -0.9857 -0.0108  0.3488
  117MOL   C25942251   4.477   6.489   7.181 -0.8231 -0.3971  0.4275
  117MOL   H26042252   4.213   6.202   6.811 -0.2507  2.9364  1.2081
  117MOL   H26142253   4.272   6.081   6.918 -2.3702  0.7658  1.0269
  117MOL   H26242254   4.340   6.230   7.096 -1.4685  0.9710  0.7128
  117MOL   H26342255   4.248   6.452   6.917  1.2371  2.1035 -0.7431
  117MOL   H26442256   4.412   6.420   6.926  1.6429  0.9936  0.2670
  117MOL   H26542257   4.263   6.480   7.191  0.0056  0.7822  0.3113
  117MOL   H26642258   4.226   6.684   7.065 -1.4225 -2.1711 -0.2820
  117MOL   H26742259   4.389   6.695   7.008  0.2073  1.5765  1.9219
  117MOL   H26842260   4.343   6.711   7.184  1.2801 -0.5149  0.3208
  117MOL   H26942261   4.555   6.522   7.111 -0.7405  2.0035  1.5971
  117MOL   H27042262   4.500   6.544   7.272 -0.5163  1.7753 -0.9284
  117MOL   H27142263   4.495   6.384   7.205  0.6383 -0.8043 -2.2026
  117MOL   C27242264   4.125   6.268   7.062 -0.6405  0.3204 -0.2906
  117MOL   C27342265   4.065   6.124   7.079  0.1484 -0.1040  0.2531
  117MOL   C27442266   4.136   6.040   7.191  0.6567 -0.5848 -0.6701
  117MOL   C27542267   4.121   5.884   7.194  0.3488 -0.0970 -0.0999
  117MOL   C27642268   4.171   5.824   7.325 -0.7811  0.2415  0.2087
  117MOL   C27742269   4.185   5.819   7.064  0.0291 -0.4818  0.3090
  117MOL   H27842270   4.125   6.298   7.166  0.5750 -3.0906  0.7546
  117MOL   H27942271   4.069   6.343   7.006 -1.0493 -0.2012 -0.5868
  117MOL   H28042272   4.084   6.061   6.992  1.7454 -1.2409  1.3877
  117MOL   H28142273   4.096   6.074   7.286 -1.9907 -0.1645 -1.9020
  117MOL   H28242274   4.242   6.067   7.187  0.6777 -0.6536 -0.5666
  117MOL   H28342275   4.014   5.862   7.190  0.4747 -0.5575 -0.9950
  117MOL   H28442276   4.122   5.874   7.409  0.7647  2.4197 -0.1433
  117MOL   H28542277   4.157   5.716   7.332 -0.0072  0.1576  0.5217
  117MOL   H28642278   4.274   5.855   7.343 -0.7307  0.5006 -0.5341
  117MOL   H28742279   4.265   5.884   7.027  0.2249 -2.0199 -2.0352
  117MOL   H28842280   4.223   5.722   7.097  1.3014 -0.1731 -0.2305
  117MOL   H28942281   4.111   5.803   6.986 -2.3486  0.4028  2.3184
  117MOL   C29042282   3.913   6.125   7.087  0.1628 -0.7111  0.5405
  117MOL   C29142283   3.829   6.129   6.958  0.5198  0.6421  0.1690
  117MOL   C29242284   3.827   5.990   6.885 -0.5476  0.3084 -0.1511
  117MOL   C29342285   3.764   5.984   6.740 -0.2920  0.0768 -0.0740
  117MOL   C29442286   3.855   6.045   6.628 -0.4149  0.1777  0.2953
  117MOL   C29542287   3.721   5.839   6.711  0.3303 -0.0472  0.1268
  117MOL   H29642288   3.878   6.041   7.148  2.9872 -2.3965 -0.0201
  117MOL   H29742289   3.888   6.218   7.137 -2.1800 -1.0145  0.0078
  117MOL   H29842290   3.865   6.209   6.895 -0.8986  0.4067 -0.9774
  117MOL   H29942291   3.780   5.923   6.956  0.0882  1.6671  1.5923
  117MOL   H30042292   3.931   5.958   6.874 -0.7972 -0.6583  0.2670
  117MOL   H30142293   3.672   6.042   6.730 -0.0598 -0.0506 -3.2799
  117MOL   H30242294   3.892   6.135   6.677  0.4710 -0.0557  0.0641
  117MOL   H30342295   3.786   6.082   6.552 -0.7476  1.0892  1.0316
  117MOL   H30442296   3.933   5.973   6.602 -2.5099 -2.0177 -0.1278
  117MOL   H30542297   3.656   5.809   6.793  1.3515  1.6871  1.6173
  117MOL   H30642298   3.804   5.769   6.707  1.2115  0.8097  2.7586
  117MOL   H30742299   3.679   5.844   6.610  0.6481  2.5353  0.0783
  117MOL   C30842300   3.683   6.163   6.992 -0.2386 -0.9914  0.9135
  117MOL   C30942301   3.616   6.271   6.900  0.1076  0.0155  0.6333
  117MOL   C31042302   3.459   6.266   6.909 -0.0342  0.0233  0.2681
  117MOL   C31142303   3.381   6.150   6.844  0.3368  0.6392 -0.0284
  117MOL   C31242304   3.238   6.143   6.904  0.0899 -0.1320 -0.2859
  117MOL   C31342305   3.383   6.152   6.692  0.2246  0.5433  0.1459
  117MOL   H31442306   3.611   6.081   6.986 -1.5987  0.0454  2.5893
  117MOL   H31542307   3.670   6.205   7.092 -1.4667 -0.1583  0.4116
  117MOL   H31642308   3.645   6.265   6.795  0.4557  1.4468  0.6329
  117MOL   H31742309   3.420   6.360   6.871  0.6144  0.6165  1.0487
  117MOL   H31842310   3.440   6.280   7.016 -1.3379 -3.5324  0.5752
  117MOL   H31942311   3.437   6.060   6.868  1.3448  1.4646  0.7951
  117MOL   H32042312   3.218   6.056   6.967 -1.3585  0.9634  0.7924
  117MOL   H32142313   3.166   6.147   6.823  0.3116 -0.7319 -0.5182
  117MOL   H32242314   3.213   6.228   6.966  0.4148 -1.0637  1.1540
  117MOL   H32342315   3.485   6.165   6.656  0.3429  0.5564  0.4861
  117MOL   H32442316   3.332   6.063   6.655 -4.8668  3.2460  0.3097
  117MOL   H32542317   3.323   6.237   6.661 -2.2312 -1.3288 -0.3552
  117MOL   C32642318   3.666   6.421   6.926  0.0178 -0.0735  0.2216
  117MOL   C32742319   3.661   6.516   6.809 -0.0669  0.1811  0.7127
  117MOL   C32842320   3.764   6.472   6.698 -0.3370 -0.7131 -0.6670
  117MOL   C32942321   3.700   6.456   6.555 -0.2461  0.0447  0.8812
  117MOL   C33042322   3.668   6.601   6.501 -0.4966 -0.1020 -0.1390
  117MOL   C33142323   3.799   6.390   6.452 -0.6405 -0.7080  0.2637
  117MOL   H33242324   3.772   6.420   6.955  0.6452 -0.7889 -2.0248
  117MOL   H33342325   3.608   6.458   7.010 -1.6117 -1.0071 -0.4837
  117MOL   H33442326   3.560   6.507   6.769 -0.3141  1.3185  1.0506
  117MOL   H33542327   3.842   6.547   6.691 -0.8479 -0.2851 -1.8613
  117MOL   H33642328   3.834   6.396   6.732  2.3863  2.0246  0.0600
  117MOL   H33742329   3.606   6.401   6.554  1.0840 -2.3746  3.1788
  117MOL   H33842330   3.751   6.669   6.521  0.7691 -1.5779 -0.2313
  117MOL   H33942331   3.575   6.635   6.547 -0.7084  0.8873 -1.2859
  117MOL   H34042332   3.654   6.609   6.393  0.3075  0.5813 -0.1970
  117MOL   H34142333   3.758   6.390   6.351  0.8426 -1.4523 -0.3423
  117MOL   H34242334   3.894   6.442   6.441 -0.1592 -1.1959  2.0016
  117MOL   H34342335   3.826   6.288   6.478  0.8707 -0.2764  0.4451
  117MOL   C34442336   3.691   6.665   6.854 -0.4285 -1.2877  0.2042
  117MOL   C34542337   3.578   6.733   6.938  0.1901 -0.9188 -0.4167
  117MOL   C34642338   3.622   6.883   6.968 -0.7119 -0.4792 -0.3513
  117MOL   C34742339   3.529   6.969   7.060 -0.5560 -0.1262  0.7882
  117MOL   C34842340   3.377   6.967   7.030 -1.0420  0.0827  0.3340
  117MOL   C34942341   3.581   7.108   7.064  0.6463 -0.1416  0.4278
  117MOL   H35042342   3.704   6.714   6.758 -3.1261 -3.4419 -1.3322
  117MOL   H35142343   3.779   6.661   6.918 -1.2748 -1.0840  1.3880
  117MOL   H35242344   3.559   6.685   7.034  0.6952 -1.9846 -0.8349
  117MOL   H35342345   3.726   6.875   7.001 -1.3550 -0.2254  1.8218
  117MOL   H35442346   3.631   6.948   6.881  2.0620  0.8973  0.9124
  117MOL   H35542347   3.535   6.943   7.165  0.2391 -1.4494  0.4322
  117MOL   H35642348   3.323   7.006   7.116  1.5350  0.1638  1.9846
  117MOL   H35742349   3.334   7.013   6.941 -0.8926 -0.0260  0.2066
  117MOL   H35842350   3.339   6.865   7.029 -1.2164  0.1206  1.8064
  117MOL   H35942351   3.688   7.113   7.087  0.6439 -2.4688  1.0134
  117MOL   H36042352   3.525   7.171   7.134  1.4064  0.9920  0.0480
  117MOL   H36142353   3.571   7.151   6.965  1.9375 -1.6883 -0.3859
  117MOL   H36242354   3.488   6.733   6.876 -0.5874 -0.3377  0.7011
  118MOL     C142355   1.057   4.085   6.646  0.3972  0.0097  0.1440
  118MOL     C242356   0.938   4.175   6.680  0.5907  0.6016  0.1065
  118MOL     C342357   0.804   4.109   6.639  0.7618 -0.4297  1.1386
  118MOL     C442358   0.782   3.967   6.698  0.1510 -0.4350 -0.1301
  118MOL     C542359   0.678   3.889   6.613 -0.1942 -0.7828 -0.6538
  118MOL     C642360   0.743   3.994   6.841 -0.0565  0.4144  0.0698
  118MOL     H742361   1.077   4.000   6.710 -0.8576  1.2174  2.1730
  118MOL     H842362   1.042   4.044   6.546  2.5274 -0.7975  0.1375
  118MOL     H942363   0.929   4.188   6.788  0.7587 -1.7391  0.4424
  118MOL    H1042364   0.718   4.175   6.647 -0.3133 -1.8174  1.3653
  118MOL    H1142365   0.798   4.100   6.530  0.3002 -0.5170  1.1675
  118MOL    H1242366   0.878   3.917   6.684  0.8650  1.2384 -1.3838
  118MOL    H1342367   0.716   3.877   6.511  1.3664  0.3953 -0.2196
  118MOL    H1442368   0.666   3.791   6.658 -0.2182  0.3878  1.9620
  118MOL    H1542369   0.580   3.938   6.614 -0.3206 -1.0554  1.5678
  118MOL    H1642370   0.637   4.021   6.840 -0.4143 -0.8785  1.0420
  118MOL    H1742371   0.801   4.064   6.901 -2.2917  2.6521 -0.3225
  118MOL    H1842372   0.737   3.902   6.901 -0.9692  1.9060  2.3423
  118MOL    H1942373   1.154   4.134   6.634 -0.1667  1.0687 -0.2128
  118MOL    C2042374   0.961   4.310   6.605  0.3579 -0.0511 -0.5037
  118MOL    C2142375   1.065   4.418   6.662 -0.0764 -0.2240  0.2342
  118MOL    C2242376   1.097   4.413   6.814  0.5186 -0.2908  0.1766
  118MOL    C2342377   1.167   4.520   6.886  0.5359 -1.2622  0.2471
  118MOL    C2442378   1.092   4.582   7.002 -0.2466  0.1548 -0.8606
  118MOL    C2542379   1.298   4.471   6.945  0.3239  0.0244 -0.6182
  118MOL    H2642380   0.971   4.300   6.497  0.7111  0.4061 -0.5167
  118MOL    H2742381   0.866   4.360   6.622  0.7235  0.3692  0.3669
  118MOL    H2842382   1.030   4.521   6.652 -3.1943 -0.9181  3.0089
  118MOL    H2942383   1.142   4.314   6.825  0.5514 -0.3154 -0.1606
  118MOL    H3042384   0.998   4.399   6.858  0.3656 -0.2478 -0.1512
  118MOL    H3142385   1.195   4.596   6.813 -0.7252  0.5030  1.5525
  118MOL    H3242386   1.047   4.513   7.074  0.9680  0.7555  0.4956
  118MOL    H3342387   1.020   4.652   6.959 -2.5024 -1.1971  0.6472
  118MOL    H3442388   1.153   4.652   7.059  0.4474 -0.9017 -0.2873
  118MOL    H3542389   1.294   4.408   7.033  1.2064  1.8623  0.7654
  118MOL    H3642390   1.342   4.422   6.858  3.1427  1.5030 -0.0783
  118MOL    H3742391   1.367   4.550   6.975  0.3875 -0.1026 -0.4315
  118MOL    C3842392   1.195   4.427   6.567 -0.4832 -0.4158  0.0934
  118MOL    C3942393   1.170   4.477   6.416 -0.1822 -0.4561  0.1034
  118MOL    C4042394   1.224   4.365   6.320 -0.2641  0.1714 -0.0873
  118MOL    C4142395   1.375   4.346   6.313 -0.4930 -0.1387 -0.1555
  118MOL    C4242396   1.440   4.396   6.177 -0.1543 -0.1382 -0.9648
  118MOL    C4342397   1.415   4.196   6.330  0.8538  0.4236  0.3880
  118MOL    H4442398   1.246   4.330   6.569  0.8428  0.2658 -0.0399
  118MOL    H4542399   1.265   4.490   6.622 -0.8497 -0.0414  0.1312
  118MOL    H4642400   1.063   4.478   6.394 -0.3446  0.9073  0.8854
  118MOL    H4742401   1.198   4.392   6.218 -0.7308  1.7647  0.4395
  118MOL    H4842402   1.186   4.266   6.347 -0.3900  0.5664  1.2222
  118MOL    H4942403   1.419   4.386   6.405 -1.0874 -0.4643  0.2785
  118MOL    H5042404   1.418   4.500   6.156 -0.6779 -0.5586 -2.5387
  118MOL    H5142405   1.548   4.377   6.182 -0.2850 -1.0062 -1.3615
  118MOL    H5242406   1.412   4.349   6.082  1.5895 -0.1987 -1.4662
  118MOL    H5342407   1.395   4.155   6.231 -0.6574  3.4205 -0.6111
  118MOL    H5442408   1.357   4.141   6.405 -0.1788  0.1593 -0.5853
  118MOL    H5542409   1.521   4.195   6.352  1.2349 -0.5899 -1.4396
  118MOL    C5642410   1.232   4.612   6.384  0.2750  0.4083  0.5316
  118MOL    C5742411   1.126   4.732   6.418 -0.2378  0.2565  0.1285
  118MOL    C5842412   1.021   4.746   6.300  0.0438  0.2632  0.3036
  118MOL    C5942413   0.884   4.809   6.333 -0.9905  0.3736 -0.4728
  118MOL    C6042414   0.800   4.722   6.429  0.0066 -0.3004  0.4051
  118MOL    C6142415   0.807   4.837   6.200  0.0664 -0.4684 -0.0708
  118MOL    H6242416   1.253   4.623   6.277  2.7632 -2.4541  0.6516
  118MOL    H6342417   1.332   4.617   6.428  0.3922  0.9640  0.2102
  118MOL    H6442418   1.081   4.705   6.513 -1.0481  0.3398 -0.2252
  118MOL    H6542419   1.058   4.816   6.226  0.8961  1.5493  1.8981
  118MOL    H6642420   1.001   4.649   6.255  0.0860  0.5979 -0.4336
  118MOL    H6742421   0.903   4.907   6.378  4.6870  0.3852 -2.4525
  118MOL    H6842422   0.777   4.621   6.394  2.5540 -2.1885  3.7753
  118MOL    H6942423   0.703   4.767   6.448  0.7015 -0.1662  4.0712
  118MOL    H7042424   0.855   4.694   6.519 -0.7383 -0.5610  0.7853
  118MOL    H7142425   0.746   4.750   6.173 -1.4254  0.2950  0.8116
  118MOL    H7242426   0.863   4.863   6.110  0.9552  2.2849  1.2558
  118MOL    H7342427   0.728   4.908   6.225 -0.0491 -0.2748 -0.9422
  118MOL    C7442428   1.194   4.879   6.431  0.2018 -0.3121 -0.4164
  118MOL    C7542429   1.269   4.886   6.570 -0.0116  0.4870 -0.3693
  118MOL    C7642430   1.177   4.876   6.696  0.2983  0.5104  0.0659
  118MOL    C7742431   1.050   4.962   6.693 -0.5933 -0.3412  0.2108
  118MOL    C7842432   1.074   5.112   6.676 -0.0248 -0.0710 -0.0448
  118MOL    C7942433   0.960   4.937   6.816 -0.2520 -0.0190  0.4179
  118MOL    H8042434   1.116   4.955   6.433  0.5994  0.1174  2.7577
  118MOL    H8142435   1.259   4.901   6.347 -1.5772  2.2590 -1.1876
  118MOL    H8242436   1.329   4.794   6.567 -0.8945 -0.1694  1.3476
  118MOL    H8342437   1.139   4.774   6.702  1.0808  0.1444 -1.0598
  118MOL    H8442438   1.238   4.896   6.784  0.1179  1.4289 -0.0119
  118MOL    H8542439   0.997   4.906   6.616 -0.4400 -2.3339  1.4997
  118MOL    H8642440   0.974   5.156   6.678  0.7869  1.8195  1.4453
  118MOL    H8742441   1.117   5.142   6.581 -0.6176 -0.4513 -0.4350
  118MOL    H8842442   1.133   5.153   6.759  0.9742  0.9287 -1.2347
  118MOL    H8942443   1.014   4.927   6.910 -0.9759 -0.4315  0.7923
  118MOL    H9042444   0.882   5.014   6.813  1.6673  2.2198  4.5051
  118MOL    H9142445   0.914   4.839   6.802  1.2171 -0.7321  0.4206
  118MOL    C9242446   1.362   5.014   6.563  0.4124  0.0887 -0.2557
  118MOL    C9342447   1.516   4.993   6.551 -0.2520  0.3125 -0.5807
  118MOL    C9442448   1.544   4.940   6.410 -0.4833 -0.1451  0.5612
  118MOL    C9542449   1.687   4.890   6.385 -0.3922 -0.2989 -0.2714
  118MOL    C9642450   1.729   4.775   6.483 -0.3851  0.6346 -0.1643
  118MOL    C9742451   1.698   4.838   6.242 -0.3251  0.3510  0.6107
  118MOL    H9842452   1.331   5.079   6.481  0.5029  2.7859  1.7588
  118MOL    H9942453   1.332   5.064   6.656  1.0578 -0.3564  0.1973
  118MOL   H10042454   1.531   4.909   6.620 -0.9741  2.2065  1.9786
  118MOL   H10142455   1.541   5.024   6.341  0.6707 -0.6080 -0.0647
  118MOL   H10242456   1.473   4.870   6.367  1.2051  0.0746 -2.7814
  118MOL   H10342457   1.754   4.975   6.395  0.1918 -1.0521  2.6021
  118MOL   H10442458   1.687   4.681   6.447 -1.0181  0.9951 -0.3654
  118MOL   H10542459   1.704   4.787   6.588  0.4517  1.6120 -0.0702
  118MOL   H10642460   1.838   4.762   6.487 -0.4566 -1.4566 -3.3427
  118MOL   H10742461   1.623   4.761   6.223  2.2792 -1.3870 -3.3397
  118MOL   H10842462   1.795   4.793   6.221 -0.2893  0.3065  0.8723
  118MOL   H10942463   1.685   4.900   6.153  3.0734  0.6924  0.2700
  118MOL   C11042464   1.607   5.111   6.598 -0.5359 -0.0036 -0.1682
  118MOL   C11142465   1.596   5.140   6.750  0.4073 -0.4800 -0.0034
  118MOL   C11242466   1.652   5.013   6.820  0.5316  0.6849  0.0316
  118MOL   C11342467   1.548   4.923   6.885 -0.1375 -0.0677  0.7586
  118MOL   C11442468   1.488   4.978   7.019  0.0777 -0.1095  0.3300
  118MOL   C11542469   1.611   4.790   6.904 -0.0361  0.0600 -0.2488
  118MOL   H11642470   1.580   5.203   6.546 -1.4143  0.8795  1.7849
  118MOL   H11742471   1.715   5.099   6.595 -0.5206 -0.8701  2.5245
  118MOL   H11842472   1.492   5.149   6.783  1.5119  1.4141  3.2431
  118MOL   H11942473   1.729   5.036   6.894  0.9981 -1.5101  0.2761
  118MOL   H12042474   1.722   4.960   6.754 -0.0906 -1.9188  1.4154
  118MOL   H12142475   1.465   4.911   6.816  0.6434 -0.3266 -0.1553
  118MOL   H12242476   1.387   4.942   7.037 -0.2477 -0.1165 -1.4830
  118MOL   H12342477   1.490   5.087   7.021  0.4233 -0.1074 -0.0328
  118MOL   H12442478   1.550   4.942   7.102  0.5850 -1.3056 -0.5642
  118MOL   H12542479   1.664   4.765   6.812  1.3225 -1.6161  0.9680
  118MOL   H12642480   1.530   4.719   6.920 -1.9354  1.5777 -2.7290
  118MOL   H12742481   1.687   4.779   6.981 -1.4763 -2.4358  0.9076
  118MOL   C12842482   1.674   5.271   6.796  0.6215 -0.2933  0.2929
  118MOL   C12942483   1.621   5.350   6.913 -0.1889 -0.4002 -0.1137
  118MOL   C13042484   1.485   5.426   6.871  0.0029 -0.1406 -0.2247
  118MOL   C13142485   1.395   5.475   6.987 -0.0515 -0.0050 -0.2714
  118MOL   C13242486   1.407   5.626   7.006  0.5011  0.7050  0.1522
  118MOL   C13342487   1.250   5.430   6.971  1.0717 -0.4065 -0.3090
  118MOL   H13442488   1.697   5.344   6.718  0.9771 -0.7806 -0.0637
  118MOL   H13542489   1.772   5.232   6.823 -0.1746 -0.8857  2.3595
  118MOL   H13642490   1.582   5.284   6.992  0.9617  0.3291  1.0814
  118MOL   H13742491   1.500   5.507   6.800 -1.9999  1.5443  1.2425
  118MOL   H13842492   1.419   5.349   6.830 -1.6918  1.3191 -0.2843
  118MOL   H13942493   1.432   5.431   7.080 -2.8444 -0.0499  0.8614
  118MOL   H14042494   1.351   5.680   6.930 -0.1638 -0.3229 -0.1034
  118MOL   H14142495   1.510   5.663   7.002  1.2444 -1.3634 -0.7245
  118MOL   H14242496   1.363   5.669   7.095  0.3551  1.6189 -0.3578
  118MOL   H14342497   1.198   5.436   7.066 -1.1978 -1.6447 -1.4174
  118MOL   H14442498   1.193   5.484   6.895  1.1351 -0.2704 -0.2581
  118MOL   H14542499   1.250   5.321   6.959 -0.1875 -0.7238  2.2586
  118MOL   C14642500   1.741   5.432   6.978 -0.0071 -0.8036 -0.0098
  118MOL   C14742501   1.777   5.412   7.129  0.4116 -0.1176 -0.2117
  118MOL   C14842502   1.857   5.538   7.177  0.3127 -0.2541 -0.7359
  118MOL   C14942503   1.789   5.678   7.179 -0.2720 -0.8236 -0.0600
  118MOL   C15042504   1.667   5.687   7.272  0.6411 -0.2024 -0.5264
  118MOL   C15142505   1.897   5.789   7.208  0.4503 -0.0744 -0.4065
  118MOL   H15242506   1.702   5.532   6.955 -0.0469 -0.8381 -0.0929
  118MOL   H15342507   1.829   5.445   6.914 -0.4919 -1.2168 -0.7597
  118MOL   H15442508   1.681   5.416   7.182 -0.2756 -1.9372 -1.2757
  118MOL   H15542509   1.896   5.519   7.277  1.3110 -1.1794 -1.2869
  118MOL   H15642510   1.946   5.536   7.114 -0.4315 -3.9518 -1.8223
  118MOL   H15742511   1.759   5.692   7.075  0.5547 -1.0550 -0.3337
  118MOL   H15842512   1.578   5.637   7.234  0.1519  0.2243  0.0422
  118MOL   H15942513   1.638   5.792   7.267  0.8354 -0.1718 -1.0627
  118MOL   H16042514   1.685   5.661   7.376 -2.3906  0.0712  0.0950
  118MOL   H16142515   1.984   5.781   7.143  0.6734 -1.2042  0.0264
  118MOL   H16242516   1.930   5.767   7.310  1.1723  1.4213 -0.3027
  118MOL   H16342517   1.842   5.882   7.195 -0.6177 -0.8204 -1.1941
  118MOL   C16442518   1.856   5.280   7.152 -0.2189 -0.4448 -0.2202
  118MOL   C16542519   1.893   5.230   7.294 -0.7634  0.1543  0.0441
  118MOL   C16642520   1.777   5.136   7.346 -0.4071  0.1211  0.0601
  118MOL   C16742521   1.783   5.100   7.496  0.1148  0.0676  0.7792
  118MOL   C16842522   1.783   5.220   7.593 -0.4456 -0.4524 -0.0410
  118MOL   C16942523   1.663   4.999   7.530 -0.3963 -0.1889  0.2013
  118MOL   H17042524   1.802   5.200   7.101 -0.7263 -0.1886 -0.0857
  118MOL   H17142525   1.939   5.297   7.084 -0.2222 -0.3059 -0.1907
  118MOL   H17242526   1.897   5.313   7.364  0.7594 -1.6002  2.1125
  118MOL   H17342527   1.675   5.172   7.327 -0.4478 -0.4304 -0.7861
  118MOL   H17442528   1.777   5.042   7.292  0.7699 -1.0736  2.0920
  118MOL   H17542529   1.878   5.048   7.508 -0.1827  0.0005  3.0862
  118MOL   H17642530   1.768   5.196   7.698  0.8063  1.6733  0.6658
  118MOL   H17742531   1.705   5.293   7.575 -0.3126 -0.6047 -1.2642
  118MOL   H17842532   1.879   5.273   7.597  0.0287 -1.2584 -0.6376
  118MOL   H17942533   1.681   4.965   7.632  2.3160  1.5200  0.3502
  118MOL   H18042534   1.652   4.929   7.446  0.3446  0.8700 -0.8026
  118MOL   H18142535   1.568   5.053   7.532 -0.1288  0.2832  0.1999
  118MOL   C18242536   2.032   5.158   7.293  0.3691  0.2848  0.3928
  118MOL   C18342537   2.147   5.260   7.288  0.0524  0.5518  0.1724
  118MOL   C18442538   2.170   5.319   7.432  0.0062 -0.1078  0.4345
  118MOL   C18542539   2.254   5.454   7.432  0.8161 -0.2737  0.2206
  118MOL   C18642540   2.180   5.571   7.375  0.2087 -0.0431  0.3413
  118MOL   C18742541   2.297   5.482   7.575 -0.4251 -0.3002  0.1234
  118MOL   H18842542   2.034   5.084   7.214 -2.2850  0.0430  0.5246
  118MOL   H18942543   2.036   5.104   7.388  1.2353 -1.7050 -0.7352
  118MOL   H19042544   2.107   5.331   7.216  0.7648 -2.1309 -3.0280
  118MOL   H19142545   2.226   5.245   7.490 -0.1514 -1.2371 -0.8105
  118MOL   H19242546   2.079   5.337   7.489  0.2000  3.5986 -0.3207
  118MOL   H19342547   2.346   5.434   7.376  2.0233  0.0344  2.0426
  118MOL   H19442548   2.165   5.544   7.271 -1.0545 -0.6899  0.6748
  118MOL   H19542549   2.259   5.646   7.380  0.4746 -0.2423 -0.8360
  118MOL   H19642550   2.090   5.608   7.424  1.0029  1.4861  0.6755
  118MOL   H19742551   2.349   5.578   7.587  0.4479 -0.4744 -1.9785
  118MOL   H19842552   2.350   5.396   7.615  1.3890 -0.0590 -1.6569
  118MOL   H19942553   2.218   5.482   7.650  0.3593 -2.0996  0.9704
  118MOL   C20042554   2.284   5.198   7.229 -0.7972  0.9192 -0.2860
  118MOL   C20142555   2.369   5.287   7.132  0.1527  0.1897  0.6284
  118MOL   C20242556   2.298   5.301   6.988  0.6665 -0.0362 -0.0664
  118MOL   C20342557   2.272   5.445   6.952 -0.1468  0.1507  0.7483
  118MOL   C20442558   2.396   5.517   6.910 -0.3016  0.2007  0.0200
  118MOL   C20542559   2.174   5.450   6.839  0.3049 -0.2835 -0.7217
  118MOL   H20642560   2.279   5.107   7.169  0.0435  0.1966  0.7218
  118MOL   H20742561   2.343   5.162   7.313  1.7009  3.6591 -0.7923
  118MOL   H20842562   2.367   5.384   7.181 -1.2572 -0.5463  2.0772
  118MOL   H20942563   2.354   5.246   6.913 -0.7911 -2.9328  0.8784
  118MOL   H21042564   2.205   5.243   6.988  1.1558 -0.9120  2.6949
  118MOL   H21142565   2.242   5.498   7.043  2.3121  0.3216  1.4888
  118MOL   H21242566   2.367   5.592   6.837 -1.4491 -0.3289 -0.0921
  118MOL   H21342567   2.478   5.451   6.881 -0.9580 -1.0183  0.8815
  118MOL   H21442568   2.443   5.574   6.990  0.0293 -2.4184  1.7829
  118MOL   H21542569   2.211   5.384   6.760 -0.3115  1.4924 -2.5281
  118MOL   H21642570   2.170   5.551   6.799  1.6842  1.1906  2.6598
  118MOL   H21742571   2.078   5.417   6.877 -0.1644  0.5060 -1.2274
  118MOL   C21842572   2.517   5.237   7.120  0.5160 -1.0008 -0.0413
  118MOL   C21942573   2.615   5.261   7.236 -0.0789 -0.4021  0.2129
  118MOL   C22042574   2.741   5.325   7.196 -0.0524 -0.9950  0.2004
  118MOL   C22142575   2.731   5.481   7.187 -0.1320  0.1721  0.1506
  118MOL   C22242576   2.723   5.543   7.329  0.0419  0.7662 -0.2419
  118MOL   C22342577   2.840   5.552   7.102 -0.5902  0.3197 -0.0051
  118MOL   H22442578   2.523   5.129   7.104  1.1952 -1.3244  2.1914
  118MOL   H22542579   2.560   5.288   7.034 -0.5912  1.0002  0.5748
  118MOL   H22642580   2.566   5.339   7.295  2.2118  1.7621 -0.6632
  118MOL   H22742581   2.827   5.313   7.262  1.0512  0.5234 -0.9257
  118MOL   H22842582   2.767   5.283   7.099 -0.6059 -0.0813 -0.3577
  118MOL   H22942583   2.636   5.502   7.137  2.1693 -0.3444 -4.6546
  118MOL   H23042584   2.768   5.642   7.327  2.9562 -0.5142 -2.4118
  118MOL   H23142585   2.618   5.549   7.358 -0.0152 -1.0408  0.0170
  118MOL   H23242586   2.792   5.494   7.398 -0.3668  3.1083  1.8876
  118MOL   H23342587   2.939   5.529   7.141 -0.3198 -0.3367 -1.0554
  118MOL   H23442588   2.824   5.517   7.000  0.9328 -0.6634  0.0788
  118MOL   H23542589   2.826   5.660   7.104 -1.1426  0.2600 -0.5824
  118MOL   C23642590   2.639   5.131   7.315 -0.1917  0.5367 -0.1756
  118MOL   C23742591   2.704   5.142   7.467  0.5491  0.0172  0.2352
  118MOL   C23842592   2.774   5.015   7.514  0.3754  0.5576  0.1940
  118MOL   C23942593   2.899   4.972   7.448  0.2254 -0.1179 -0.5208
  118MOL   C24042594   3.006   5.077   7.454  0.1602  0.5041  0.1311
  118MOL   C24142595   2.952   4.839   7.502 -0.0612  0.3091 -0.3068
  118MOL   H24242596   2.700   5.065   7.253 -1.4752  0.3948 -1.3314
  118MOL   H24342597   2.540   5.087   7.330 -0.7589  1.3003 -1.5464
  118MOL   H24442598   2.778   5.221   7.475 -1.5163  2.1549 -1.3694
  118MOL   H24542599   2.698   4.939   7.495 -1.2265  2.4559 -1.2430
  118MOL   H24642600   2.792   5.017   7.622 -0.9147  0.0335  0.4299
  118MOL   H24742601   2.867   4.953   7.346 -0.7904  4.5224 -1.1953
  118MOL   H24842602   2.978   5.173   7.412  0.3276 -0.3679 -2.0473
  118MOL   H24942603   3.102   5.047   7.411  0.0938  1.8819 -1.0328
  118MOL   H25042604   3.030   5.098   7.558  1.5382 -0.7763  0.0835
  118MOL   H25142605   3.000   4.863   7.597 -0.5960 -0.3562  0.1374
  118MOL   H25242606   3.028   4.793   7.438 -0.1073  0.8628 -0.7620
  118MOL   H25342607   2.877   4.760   7.501  0.8839 -0.6227  0.2375
  118MOL   C25442608   2.598   5.178   7.571  0.6967  0.4111  0.6851
  118MOL   C25542609   2.636   5.236   7.714  0.0781 -0.6369  0.0904
  118MOL   C25642610   2.640   5.392   7.702 -0.1108  0.1965  0.0106
  118MOL   C25742611   2.764   5.464   0.001 -0.3448 -0.0668 -0.2364
  118MOL   C25842612   2.782   5.458   0.153 -0.7801 -0.6219  0.1723
  118MOL   C25942613   2.756   5.616   7.707 -0.4323 -0.2827 -0.5493
  118MOL   H26042614   2.521   5.236   7.520  0.1953 -1.3399 -0.5683
  118MOL   H26142615   2.539   5.090   7.593  1.3815 -0.6264 -1.5143
  118MOL   H26242616   2.737   5.209   7.746  1.0658 -0.3309 -2.5435
  118MOL   H26342617   2.547   5.438   7.735 -1.9248 -0.3550 -4.0545
  118MOL   H26442618   2.624   5.436   7.604  0.6882  0.5096  0.0194
  118MOL   H26542619   2.850   5.424   7.701 -0.8557  0.3677 -1.4354
  118MOL   H26642620   2.884   5.493   0.166 -1.0442  0.3131 -0.2562
  118MOL   H26742621   2.779   5.354   0.188  2.4276 -1.2198 -1.1893
  118MOL   H26842622   2.721   5.528   0.209  0.7836  1.5041 -0.7033
  118MOL   H26942623   2.849   5.671   7.723 -0.6391 -0.3425  1.0008
  118MOL   H27042624   2.721   5.617   7.605 -2.1838 -2.1162  0.0035
  118MOL   H27142625   2.676   5.664   0.012 -0.4786  1.2269 -1.8605
  118MOL   C27242626   2.539   5.177   0.069 -0.2947  0.3649 -0.1464
  118MOL   C27342627   2.561   5.029   0.105 -1.1022  0.0305 -0.5699
  118MOL   C27442628   2.660   5.010   0.222 -0.1227  0.4082  0.5297
  118MOL   C27542629   2.721   4.867   0.235  0.5286  0.2849  0.4294
  118MOL   C27642630   2.814   4.839   0.351 -0.2092  0.1138 -0.3107
  118MOL   C27742631   2.791   4.820   0.103 -0.8031  0.5426  0.1904
  118MOL   H27842632   2.560   5.239   0.156  0.8645 -0.4211  0.1378
  118MOL   H27942633   2.434   5.194   0.046 -1.0187  0.7638  3.2645
  118MOL   H28042634   2.608   4.978   0.021 -1.3201  0.6429 -1.0656
  118MOL   H28142635   2.608   5.042   0.312  1.5010 -0.5053  1.8371
  118MOL   H28242636   2.744   5.078   0.204  0.8179 -0.1538  2.5878
  118MOL   H28342637   2.640   4.796   0.251 -1.4357  2.3501 -0.0763
  118MOL   H28442638   2.843   4.736   0.368  1.4826  0.7572  0.8305
  118MOL   H28542639   2.904   4.898   0.338 -1.6406  2.3593 -0.3641
  118MOL   H28642640   2.766   4.874   0.443  0.3083  2.0904 -0.7637
  118MOL   H28742641   2.717   4.816   0.023 -0.7667  0.4232  0.1636
  118MOL   H28842642   2.870   4.882   0.060 -1.3079  1.2769  0.3095
  118MOL   H28942643   2.837   4.722   0.106 -2.2809 -0.2990 -2.9284
  118MOL   C29042644   2.421   4.956   0.126 -0.1093 -0.1167  0.7114
  118MOL   C29142645   2.340   4.929   7.746 -0.4408 -0.3748  0.2967
  118MOL   C29242646   2.408   4.821   7.658 -0.5987  0.1932 -0.3116
  118MOL   C29342647   2.353   4.802   7.511  0.5524  0.8721  0.5226
  118MOL   C29442648   2.308   4.931   7.453 -0.3519  0.1745  0.4277
  118MOL   C29542649   2.458   4.727   7.424  0.0702 -0.0433 -0.6702
  118MOL   H29642650   2.430   4.861   0.177  1.5370  0.2130  1.0715
  118MOL   H29742651   2.365   5.008   0.203 -0.9964 -1.2772  0.8572
  118MOL   H29842652   2.325   5.023   7.693 -0.8208  0.1782  1.3502
  118MOL   H29942653   2.396   4.722   7.702 -0.6361  0.5629  0.5295
  118MOL   H30042654   2.516   4.829   7.646 -0.5247 -0.6362 -0.2177
  118MOL   H30142655   2.271   4.730   7.521  2.4557 -1.3254  0.6045
  118MOL   H30242656   2.247   5.006   7.504  0.6389  1.6291 -0.5036
  118MOL   H30342657   2.261   4.914   7.356 -0.3276  0.1721  0.4163
  118MOL   H30442658   2.400   4.976   7.416  0.4491 -2.8192 -1.3697
  118MOL   H30542659   2.423   4.703   7.324  0.2414 -1.1057 -0.4854
  118MOL   H30642660   2.488   4.632   7.469 -0.0057 -0.2991 -1.1607
  118MOL   H30742661   2.544   4.789   7.398 -0.1232  0.1210 -0.9157
  118MOL   C30842662   2.192   4.882   0.022 -0.2705  0.3367  0.5889
  118MOL   C30942663   2.102   4.981   0.105  0.5381 -0.6988 -0.6235
  118MOL   C31042664   2.124   5.133   0.058  0.0182  0.0419 -0.1769
  118MOL   C31142665   2.041   5.225   0.151 -0.1006  0.3948  0.0777
  118MOL   C31242666   2.076   5.219   0.299 -0.6361  0.3150 -0.0507
  118MOL   C31342667   2.039   5.369   0.099 -0.5241 -0.1157 -0.6049
  118MOL   H31442668   2.147   4.874   7.675  1.8779 -0.0065 -0.3851
  118MOL   H31542669   2.195   4.788   0.077 -2.6846  0.6031  1.2361
  118MOL   H31642670   2.128   4.978   0.211 -1.7916 -1.3612 -0.0273
  118MOL   H31742671   2.073   5.138   7.713 -2.2967  0.4047  1.0207
  118MOL   H31842672   2.227   5.168   0.056 -0.2821  1.0241  1.1121
  118MOL   H31942673   1.936   5.193   0.149  0.6562 -2.2015  0.1779
  118MOL   H32042674   2.180   5.217   0.332 -0.2050  2.4141 -1.1775
  118MOL   H32142675   2.035   5.123   0.331 -1.9841  0.7728 -0.3762
  118MOL   H32242676   2.023   5.300   0.348  1.9301  1.1457  1.4945
  118MOL   H32342677   1.966   5.422   0.161  0.3578  0.8609 -0.3964
  118MOL   H32442678   2.136   5.415   0.117 -0.8855  0.4606 -0.1076
  118MOL   H32542679   2.012   5.373   7.746  0.2132 -1.2517 -0.8407
  118MOL   C32642680   1.951   4.927   0.101  0.0758 -0.7325 -0.2977
  118MOL   C32742681   1.930   4.784   0.163 -0.0306 -0.5151  0.3573
  118MOL   C32842682   1.784   4.746   0.140 -0.2415 -0.0530 -0.4162
  118MOL   C32942683   1.744   4.600   0.183 -0.4476 -0.5290 -0.1815
  118MOL   C33042684   1.595   4.567   0.191 -0.1579  0.3134  0.2804
  118MOL   C33142685   1.825   4.488   0.117  0.1546  0.7583 -0.3073
  118MOL   H33242686   1.921   4.920   7.749  2.5939  0.0560 -1.1235
  118MOL   H33342687   1.881   4.999   0.144  3.7505  2.6450  0.3632
  118MOL   H33442688   1.992   4.705   0.121  2.2559 -0.0062  2.6675
  118MOL   H33542689   1.714   4.817   0.183 -1.8151 -1.4138 -0.6741
  118MOL   H33642690   1.773   4.746   0.032  0.2643  1.9477 -0.4935
  118MOL   H33742691   1.762   4.589   0.290 -1.1062  1.7225  0.1869
  118MOL   H33842692   1.578   4.471   0.241  0.4712  0.5928  1.0470
  118MOL   H33942693   1.559   4.561   0.089  1.9897 -1.8507 -0.3954
  118MOL   H34042694   1.542   4.646   0.244 -0.0991  0.1147  0.6455
  118MOL   H34142695   1.794   4.395   0.165  1.3009 -0.4776 -1.8677
  118MOL   H34242696   1.803   4.487   0.010 -0.0251  0.2039 -0.2688
  118MOL   H34342697   1.932   4.504   0.115  0.2025  0.8469  1.7716
  118MOL   C34442698   1.975   4.782   0.314 -0.4766 -0.0410 -0.0980
  118MOL   C34542699   1.904   4.873   0.413 -0.3611 -0.1499 -0.1787
  118MOL   C34642700   1.995   4.894   0.535  0.3913  0.1852 -0.5105
  118MOL   C34742701   1.929   4.965   0.654  0.1097  0.3044 -0.5244
  118MOL   C34842702   1.877   5.103   0.605 -0.2542  0.3752 -0.0922
  118MOL   C34942703   2.028   4.984   0.773  0.0280 -0.0904 -0.7555
  118MOL   H35042704   2.081   4.808   0.315 -0.7323  1.0166 -0.7592
  118MOL   H35142705   1.980   4.679   0.349  1.2312 -0.0979 -0.4378
  118MOL   H35242706   1.807   4.835   0.443 -0.1872  0.5370  1.3476
  118MOL   H35342707   2.023   4.795   0.573  0.0131  0.1524 -0.3228
  118MOL   H35442708   2.091   4.943   0.517 -0.4500  2.2075  0.3620
  118MOL   H35542709   1.842   4.912   0.692 -0.9190  0.9683 -1.8800
  118MOL   H35642710   1.953   5.156   0.547  1.3570 -0.5665  1.1234
  118MOL   H35742711   1.789   5.086   0.541 -1.6972 -1.4230  2.2992
  118MOL   H35842712   1.840   5.161   0.689 -0.0398 -1.8173  1.5376
  118MOL   H35942713   2.001   5.066   0.840 -0.2697 -1.3541  0.6764
  118MOL   H36042714   2.130   5.011   0.744 -0.0724  0.6871 -0.3946
  118MOL   H36142715   2.034   4.896   0.837 -0.4277  0.4017 -0.0296
  118MOL   H36242716   1.888   4.971   0.367 -0.7498  0.8014  1.9184
  119MOL     C142717   5.149   2.016   7.253 -0.2368  0.0878  0.0848
  119MOL     C242718   5.198   2.138   7.171 -0.7108 -0.5010 -0.1264
  119MOL     C342719   5.151   2.111   7.025  0.2172  0.2624  0.1269
  119MOL     C442720   5.165   2.235   6.937  0.0582  0.1359 -0.0308
  119MOL     C542721   5.079   2.356   6.977 -0.4129  1.0809 -0.3114
  119MOL     C642722   5.131   2.194   6.798  0.0512  0.6554 -0.4086
  119MOL     H742723   5.191   2.011   7.354  0.0509  0.6313 -0.0007
  119MOL     H842724   5.042   2.019   7.275 -0.2071  0.8937  0.1588
  119MOL     H942725   5.154   2.223   7.222  3.2887  1.1808  0.6310
  119MOL    H1042726   5.217   2.034   6.985 -0.4782  0.1638 -0.8455
  119MOL    H1142727   5.045   2.085   7.029 -0.1592  1.9952  2.3166
  119MOL    H1242728   5.267   2.274   6.931  0.4968 -1.0718 -0.4516
  119MOL    H1342729   4.976   2.352   6.942 -0.9427 -1.4925  1.4107
  119MOL    H1442730   5.089   2.393   7.079  0.3545  0.0866 -0.0173
  119MOL    H1542731   5.129   2.439   6.926  0.9445  0.6676  0.3160
  119MOL    H1642732   5.198   2.120   6.755 -0.8909 -0.8521  0.6483
  119MOL    H1742733   5.131   2.281   6.733 -1.3734  0.6447 -0.4517
  119MOL    H1842734   5.032   2.148   6.792 -0.5923  1.7836  1.1122
  119MOL    H1942735   5.174   1.921   7.206 -0.4012  0.2718 -0.3734
  119MOL    C2042736   5.349   2.160   7.179 -0.3516 -0.6096 -0.4106
  119MOL    C2142737   5.410   2.206   7.313  0.6611 -0.7994 -1.0201
  119MOL    C2242738   5.557   2.151   7.319 -0.7009  0.2642  0.0788
  119MOL    C2342739   5.555   2.004   7.348 -0.3131  0.1155 -0.5196
  119MOL    C2442740   5.686   1.929   7.298 -0.0786 -0.1073  0.4173
  119MOL    C2542741   5.543   1.983   7.501  0.3818  0.3224 -0.2117
  119MOL    H2642742   5.407   2.078   7.137  0.5765 -0.5850  0.7687
  119MOL    H2742743   5.379   2.240   7.113 -0.8030 -1.0236 -1.1242
  119MOL    H2842744   5.351   2.155   7.388  0.9698 -1.0654 -0.9580
  119MOL    H2942745   5.614   2.205   7.394  0.3954 -1.5371  0.5803
  119MOL    H3042746   5.602   2.173   7.222  1.9676 -1.2841  0.9055
  119MOL    H3142747   5.475   1.945   7.304 -0.3303 -1.0485  1.0392
  119MOL    H3242748   5.768   2.001   7.298 -0.9018  0.8875 -1.7484
  119MOL    H3342749   5.681   1.898   7.193  0.2434  1.2339 -0.0086
  119MOL    H3442750   5.715   1.845   7.360 -1.5983  0.3416  1.7732
  119MOL    H3542751   5.533   1.878   7.530 -1.2150  0.4285 -0.3275
  119MOL    H3642752   5.629   2.016   7.559 -2.1338  2.8777  2.2087
  119MOL    H3742753   5.465   2.044   7.548 -0.5512 -0.6157 -0.5201
  119MOL    C3842754   5.413   2.360   7.325 -0.3759  1.0800 -0.0462
  119MOL    C3942755   5.394   2.400   7.469 -0.1232  0.2186 -0.7245
  119MOL    C4042756   5.256   2.372   7.529  0.4036 -0.0718 -0.2734
  119MOL    C4142757   5.252   2.375   7.680  1.0958  0.1732 -0.0471
  119MOL    C4242758   5.277   2.233   7.734 -0.6448  0.2809 -0.4441
  119MOL    C4342759   5.122   2.428   7.734  0.2142 -0.2765  0.7347
  119MOL    H4442760   5.322   2.382   7.270 -1.0316 -0.8279  0.2277
  119MOL    H4542761   5.503   2.398   7.277  0.4932 -1.2640 -0.3507
  119MOL    H4642762   5.460   2.344   7.536 -0.7262 -2.3315 -2.1885
  119MOL    H4742763   5.210   2.277   7.502 -2.1156  0.9113  0.4103
  119MOL    H4842764   5.189   2.449   7.490  0.3875  0.3653  0.6059
  119MOL    H4942765   5.324   2.447   7.720 -0.8432  1.5045  1.1384
  119MOL    H5042766   5.191   2.166   7.725 -0.1340 -0.2298 -1.6020
  119MOL    H5142767   5.364   2.191   7.683 -0.5451  1.0811 -0.9590
  119MOL    H5242768   5.302   2.231   0.087 -0.0340  1.7032 -0.5508
  119MOL    H5342769   5.116   2.396   0.085 -2.5279 -0.6449  0.5084
  119MOL    H5442770   5.033   2.390   7.684 -1.7327  2.2104  2.1673
  119MOL    H5542771   5.117   2.537   7.726 -2.4207 -0.2879  1.7847
  119MOL    C5642772   5.454   2.545   7.481 -0.4549  0.3780 -0.0147
  119MOL    C5742773   5.610   2.538   7.482 -0.1873  0.3029 -0.5252
  119MOL    C5842774   5.660   2.564   7.633  0.3407 -0.0634  0.4166
  119MOL    C5942775   5.761   2.451   7.685 -0.2198  0.7307  1.1392
  119MOL    C6042776   5.693   2.311   7.682  0.0405  0.8812 -0.3667
  119MOL    C6142777   5.818   2.487   0.075 -0.4156  0.3481  0.4623
  119MOL    H6242778   5.400   2.588   7.565 -2.1239 -0.7417 -0.4777
  119MOL    H6342779   5.419   2.606   7.397 -0.6946  0.6772  0.3011
  119MOL    H6442780   5.650   2.442   7.448  0.4480  1.0942 -2.0647
  119MOL    H6542781   5.707   2.661   7.647 -0.9178  0.3867  1.6737
  119MOL    H6642782   5.575   2.562   7.701  1.2443 -2.1135  1.5508
  119MOL    H6742783   5.846   2.446   7.618 -1.5505 -1.4918 -0.4728
  119MOL    H6842784   5.673   2.277   7.580  3.4015 -0.4842 -0.6444
  119MOL    H6942785   5.597   2.309   7.733  0.5064 -0.7606  0.4977
  119MOL    H7042786   5.753   2.234   7.731  0.6204  0.5384 -1.5876
  119MOL    H7142787   5.880   2.405   0.110 -0.3812 -0.2792 -1.0272
  119MOL    H7242788   5.738   2.521   0.140  0.9870  2.1502  1.2757
  119MOL    H7342789   5.874   2.577   0.052 -0.1317 -0.5274 -2.5746
  119MOL    C7442790   5.675   2.643   7.391 -0.3204 -0.0913  0.0856
  119MOL    C7542791   5.817   2.606   7.337 -0.0450  0.6833  0.0702
  119MOL    C7642792   5.896   2.737   7.285  0.1113  0.0318 -0.0706
  119MOL    C7742793   5.937   2.839   7.390 -0.1922  0.2092 -0.6577
  119MOL    C7842794   6.000   2.974   7.328  0.8070 -0.3620  0.0387
  119MOL    C7942795   6.039   2.778   7.482  1.0204  1.0085  0.0301
  119MOL    H8042796   5.669   2.746   7.426  2.3465  0.1137  0.0783
  119MOL    H8142797   5.601   2.650   7.312 -1.7936  0.7958  1.5189
  119MOL    H8242798   5.863   2.565   7.427  0.0747 -1.4707 -0.9422
  119MOL    H8342799   5.974   2.702   7.217  0.9418  2.4504 -0.4235
  119MOL    H8442800   5.825   2.785   7.217  1.0197  3.6271  1.4101
  119MOL    H8542801   5.852   2.864   7.454  1.3412 -2.3980  2.5094
  119MOL    H8642802   6.042   3.034   7.409 -0.2267  0.3783  0.0327
  119MOL    H8742803   5.916   3.028   7.285  1.1137  0.2249  0.1800
  119MOL    H8842804   6.074   2.948   7.253 -0.7821 -2.2196 -0.9446
  119MOL    H8942805   6.137   2.767   7.435  0.1797  0.1355 -1.5714
  119MOL    H9042806   6.049   2.852   7.561 -3.6207  0.2928  1.4527
  119MOL    H9142807   6.009   2.683   7.527  0.4290  0.9848 -0.4085
  119MOL    C9242808   5.804   2.493   7.229 -0.7211  0.8117  0.3567
  119MOL    C9342809   5.927   2.402   7.217  0.1350 -0.4621  0.0875
  119MOL    C9442810   5.917   2.295   7.330  0.2543 -0.3119 -0.1590
  119MOL    C9542811   6.047   2.248   7.393 -0.1079 -0.0308  0.8217
  119MOL    C9642812   6.114   2.348   7.488  0.3669 -0.4020  0.5829
  119MOL    C9742813   6.022   2.118   7.472  0.0438 -0.0860 -0.0295
  119MOL    H9842814   5.718   2.427   7.238  0.0505 -0.1463  0.9511
  119MOL    H9942815   5.785   2.535   7.131 -1.5568  0.4536  0.3662
  119MOL   H10042816   6.011   2.464   7.250 -1.4828  1.2214  1.2179
  119MOL   H10142817   5.854   2.213   7.296  0.4054 -0.5265  0.0705
  119MOL   H10242818   5.859   2.329   7.416 -0.0057 -1.0379 -0.0429
  119MOL   H10342819   6.111   2.232   7.306 -0.7907 -0.4881  0.4015
  119MOL   H10442820   6.134   2.438   7.431  0.0182  0.9319  2.5008
  119MOL   H10542821   6.208   2.303   7.520  0.3444  0.5134  2.0190
  119MOL   H10642822   6.059   2.377   7.578  0.8248 -0.0241  0.7425
  119MOL   H10742823   6.116   2.086   7.516  0.3196  1.0658  0.2474
  119MOL   H10842824   5.982   2.037   7.412 -2.3859  0.5327  0.7140
  119MOL   H10942825   5.956   2.140   7.555  2.2484  1.9734  1.2549
  119MOL   C11042826   5.943   2.344   7.079  0.1787 -0.5047  0.5738
  119MOL   C11142827   6.039   2.402   6.974  0.6892  0.1359 -0.2428
  119MOL   C11242828   6.001   2.540   6.918 -0.0603 -0.5621  0.3249
  119MOL   C11342829   5.898   2.550   6.813 -0.3376 -0.0205  0.2021
  119MOL   C11442830   5.914   2.451   6.698  0.2246  0.1419 -0.0439
  119MOL   C11542831   5.871   2.696   6.769  0.5653 -0.1140  0.1372
  119MOL   H11642832   5.842   2.336   7.038  0.6907 -2.1841 -0.3903
  119MOL   H11742833   5.985   2.244   7.091  1.8160  0.0088 -0.6515
  119MOL   H11842834   6.045   2.334   6.889  5.2234  0.0482 -0.0019
  119MOL   H11942835   6.093   2.589   6.886 -0.0924 -0.4300  0.4289
  119MOL   H12042836   5.969   2.607   6.999  1.8857  0.1781  0.5234
  119MOL   H12142837   5.811   2.523   6.872 -0.3906  1.5155  0.8534
  119MOL   H12242838   5.838   2.488   6.629  1.6151 -1.5012 -2.5508
  119MOL   H12342839   5.876   2.351   6.721 -0.3167  1.0433  3.2450
  119MOL   H12442840   6.016   2.453   6.660  0.5724  0.5475  0.8946
  119MOL   H12542841   5.843   2.747   6.861 -3.4839  1.5372 -1.8541
  119MOL   H12642842   5.777   2.705   6.714 -0.4891 -1.6664  1.6477
  119MOL   H12742843   5.953   2.746   6.718  0.7495 -0.3429  0.2126
  119MOL   C12842844   6.184   2.392   7.024 -0.3022 -0.4812 -0.4195
  119MOL   C12942845   6.294   2.369   6.916  0.3047  0.2968 -0.2053
  119MOL   C13042846   6.290   2.223   6.868 -0.4925 -0.0992 -0.2716
  119MOL   C13142847   6.388   2.193   6.754 -0.0425 -0.5099  0.4172
  119MOL   C13242848   6.386   2.053   6.716 -0.5201 -0.1360 -0.3101
  119MOL   C13342849   6.336   2.268   6.629 -0.4707 -0.1206  0.5043
  119MOL   H13442850   6.192   2.304   7.089 -0.0800 -0.3741 -0.3018
  119MOL   H13542851   6.209   2.481   7.082 -1.3071  0.1937 -1.0180
  119MOL   H13642852   6.267   2.431   6.831  0.3813  0.5405 -0.0518
  119MOL   H13742853   6.314   2.160   6.954 -0.1153 -0.2504 -0.4843
  119MOL   H13842854   6.194   2.186   6.833 -0.2097 -0.5101 -0.6187
  119MOL   H13942855   6.492   2.220   6.776  0.0557  0.2664 -0.9432
  119MOL   H14042856   6.284   2.019   6.700 -0.7552  0.2752  0.2966
  119MOL   H14142857   6.438   1.982   6.781  1.4451  0.2504 -1.4069
  119MOL   H14242858   6.442   2.051   6.623 -1.2672 -0.1608 -0.7575
  119MOL   H14342859   6.406   2.241   6.550 -1.0141 -0.7886  0.2420
  119MOL   H14442860   6.229   2.259   6.610 -0.4449 -0.6999  0.6023
  119MOL   H14542861   6.360   2.374   6.638  1.6264 -0.4971 -0.3149
  119MOL   C14642862   6.430   2.425   6.969  0.3072 -0.3370  0.2136
  119MOL   C14742863   6.443   2.572   7.018 -0.0878  0.1572 -0.6081
  119MOL   C14842864   6.401   2.678   6.908 -0.0579  0.4092 -0.0292
  119MOL   C14942865   6.393   2.824   6.957  0.0176  0.3423 -0.9861
  119MOL   C15042866   6.348   2.914   6.839 -0.1789 -0.1719  0.5485
  119MOL   C15142867   6.290   2.845   7.081 -0.4085 -0.2258 -0.2240
  119MOL   H15242868   6.498   2.413   6.884 -0.0597  1.9962 -0.4584
  119MOL   H15342869   6.467   2.357   7.046 -0.0262  0.7513  1.3519
  119MOL   H15442870   6.373   2.586   7.101  0.3953  2.6156 -0.5674
  119MOL   H15542871   6.466   2.669   6.821 -2.3678 -0.0300 -1.7470
  119MOL   H15642872   6.298   2.660   6.877 -1.1802  2.7383  2.1829
  119MOL   H15742873   6.487   2.863   6.996 -0.5749 -0.4236  1.3247
  119MOL   H15842874   6.271   2.991   6.848  0.0341  0.0861  0.1744
  119MOL   H15942875   6.333   2.857   6.748  1.7798  0.7113 -0.3541
  119MOL   H16042876   6.439   2.966   6.811  0.0354 -0.5102  0.6213
  119MOL   H16142877   6.187   2.813   7.065 -0.3325 -0.4983 -0.1713
  119MOL   H16242878   6.293   2.953   7.097  1.4961 -0.6239  2.6593
  119MOL   H16342879   6.339   2.798   7.167 -0.3653  0.9763  0.4229
  119MOL   C16442880   6.593   2.605   7.059 -0.3654  0.0325 -0.1306
  119MOL   C16542881   6.643   2.533   7.187 -0.1854 -0.5289  0.1547
  119MOL   C16642882   6.776   2.472   7.147 -0.2896  0.0990 -0.1024
  119MOL   C16742883   6.776   2.333   7.071  0.3206  0.4359  0.0319
  119MOL   C16842884   6.915   2.300   7.045 -0.1393 -0.5950  0.0090
  119MOL   C16942885   6.708   2.211   7.141  0.3656 -0.0054 -0.0650
  119MOL   H17042886   6.653   2.576   6.974  0.4498  1.9635 -0.2412
  119MOL   H17142887   6.600   2.714   7.069  1.3151  0.0735 -1.7088
  119MOL   H17242888   6.574   2.454   7.217 -0.3668 -0.6821 -0.6645
  119MOL   H17342889   6.839   2.553   7.110 -1.4814  1.3542  0.5845
  119MOL   H17442890   6.836   2.447   7.235 -0.4971 -1.2063 -0.3207
  119MOL   H17542891   6.729   2.336   6.973  1.4975 -0.9518 -0.5915
  119MOL   H17642892   6.925   2.215   6.977  0.6948 -0.4011 -0.1078
  119MOL   H17742893   6.972   2.278   7.136  2.2943  2.2391 -0.7765
  119MOL   H17842894   6.975   2.373   6.991  0.2995 -0.3822  0.7812
  119MOL   H17942895   6.626   2.235   7.208  0.8495 -0.3883  0.6637
  119MOL   H18042896   6.775   2.155   7.205  0.7511 -0.5124 -0.8916
  119MOL   H18142897   6.674   2.126   7.081  4.4504 -1.4207 -0.5358
  119MOL   C18242898   6.648   2.638   7.304 -0.2583 -0.0423 -0.3071
  119MOL   C18342899   6.681   2.587   7.454  0.1922  0.2326  0.4710
  119MOL   C18442900   6.786   2.678   7.517 -0.0105 -0.0010  0.1022
  119MOL   C18542901   6.928   2.630   7.479 -0.3319  0.2861 -0.9191
  119MOL   C18642902   7.025   2.745   7.490  0.5462  0.5784  0.1947
  119MOL   C18742903   6.976   2.515   7.572 -0.1375 -0.0690  0.3279
  119MOL   H18842904   6.562   2.704   7.305  1.1543  1.8694  2.5443
  119MOL   H18942905   6.732   2.699   7.270 -0.3349  0.8364  1.0507
  119MOL   H19042906   6.719   2.485   7.447  0.3837  0.2874  0.7006
  119MOL   H19142907   6.780   2.683   7.625 -0.3163  0.3682  0.0677
  119MOL   H19242908   6.775   2.778   7.475  0.8782 -0.2436 -0.7263
  119MOL   H19342909   6.928   2.588   7.379  0.1320 -1.4954 -0.1926
  119MOL   H19442910   6.990   2.822   7.422 -0.2293  1.1783  1.2577
  119MOL   H19542911   7.120   2.721   7.443  0.4600  1.3663 -0.3893
  119MOL   H19642912   7.034   2.793   7.588  1.8786  0.7349 -0.0014
  119MOL   H19742913   6.912   2.427   7.578  0.4169 -0.3934  1.6695
  119MOL   H19842914   6.988   2.547   7.676 -2.4281  0.7369  0.3953
  119MOL   H19942915   7.074   2.477   7.544  1.1955  2.4343  1.3738
  119MOL   C20042916   6.552   2.578   7.535  0.4091 -0.1229  0.6615
  119MOL   C20142917   6.542   2.488   7.651  0.6456 -0.5713  0.0200
  119MOL   C20242918   6.536   2.341   7.607  0.1956  0.3737 -0.0093
  119MOL   C20342919   6.569   2.234   7.708  0.6754  0.3969 -0.2921
  119MOL   C20442920   6.519   2.098   7.654 -0.1629  0.7079 -0.6258
  119MOL   C20542921   6.717   2.218   7.727 -0.2430 -0.0320  0.0875
  119MOL   H20642922   6.463   2.559   7.474  0.5585 -0.4954  0.5589
  119MOL   H20742923   6.542   2.678   7.576  0.0726  0.2604 -0.3403
  119MOL   H20842924   6.633   2.501   7.709  1.2323 -0.8174 -0.8485
  119MOL   H20942925   6.430   2.328   7.586  1.1092 -3.8629 -2.6097
  119MOL   H21042926   6.582   2.322   7.510 -0.6543  0.1983 -0.3853
  119MOL   H21142927   6.528   2.253   0.055  0.2705 -2.0180  0.0232
  119MOL   H21242928   6.579   2.057   7.572  0.6730  0.0549  0.3006
  119MOL   H21342929   6.421   2.105   7.606 -0.3771  0.4664 -0.2214
  119MOL   H21442930   6.520   2.014   7.723 -0.0243  0.7406 -0.5891
  119MOL   H21542931   6.755   2.309   0.022  0.1890 -1.0856  1.8158
  119MOL   H21642932   6.780   2.187   7.643 -0.1947  0.8451 -0.2162
  119MOL   H21742933   6.727   2.148   0.058  1.5759  2.1212  1.7567
  119MOL   C21842934   6.423   2.518   7.746  0.3379  0.7195 -0.4527
  119MOL   C21942935   6.434   2.657   0.066  0.5919 -0.4895  0.0632
  119MOL   C22042936   6.382   2.637   0.211  0.1935  0.0806  0.2181
  119MOL   C22142937   6.466   2.559   0.315 -0.9089  0.2023  0.1011
  119MOL   C22242938   6.585   2.644   0.352 -0.0192  0.2864  0.2865
  119MOL   C22342939   6.380   2.519   0.438 -0.2947 -0.3466 -0.3225
  119MOL   H22442940   6.329   2.511   7.691 -0.2040 -0.0062  0.5519
  119MOL   H22542941   6.422   2.439   0.069  0.6331 -1.9816 -3.2016
  119MOL   H22642942   6.540   2.684   0.074  0.8726 -0.0354 -4.2377
  119MOL   H22742943   6.347   2.732   0.253  0.4364 -0.3018  1.3104
  119MOL   H22842944   6.286   2.588   0.200  1.0756 -1.7301  0.4521
  119MOL   H22942945   6.503   2.465   0.274 -2.0083 -0.1673 -0.0522
  119MOL   H23042946   6.648   2.659   0.265 -0.3915 -2.0204 -0.4057
  119MOL   H23142947   6.558   2.742   0.392 -1.9292  0.2550 -0.8936
  119MOL   H23242948   6.655   2.601   0.424  0.3458  1.0714  0.3949
  119MOL   H23342949   6.287   2.467   0.417  0.7686 -1.6355 -2.0356
  119MOL   H23442950   6.444   2.452   0.495  1.4923  1.8060  0.2828
  119MOL   H23542951   6.355   2.610   0.492  0.9618 -0.7383  0.9397
  119MOL   C23642952   6.350   2.770   0.003  0.6692  0.4178 -0.3874
  119MOL   C23742953   6.414   2.909   0.042  0.5523  0.7527 -0.6025
  119MOL   C23842954   6.298   3.014   0.015  0.3925  0.0327  0.6594
  119MOL   C23942955   6.264   3.118   0.114 -0.2237 -0.1722  0.1732
  119MOL   C24042956   6.192   3.231   0.039  0.0953 -0.3107 -0.1822
  119MOL   C24142957   6.182   3.055   0.228 -0.5317  0.0439 -0.3305
  119MOL   H24242958   6.248   2.763   0.040  0.6301  0.8906 -0.4022
  119MOL   H24342959   6.340   2.752   7.648 -0.6044 -0.4950 -0.1259
  119MOL   H24442960   6.441   2.900   0.147  0.6007  0.0309 -0.6723
  119MOL   H24542961   6.207   2.959   7.749  0.7623 -0.6142  0.7626
  119MOL   H24642962   6.306   3.052   7.666 -0.3619 -0.6525  0.3450
  119MOL   H24742963   6.346   3.179   0.152  0.0097  1.2543 -2.5224
  119MOL   H24842964   6.094   3.198   0.005 -0.3166 -1.5801  2.1363
  119MOL   H24942965   6.240   3.270   7.702  2.1699 -0.5162  0.8119
  119MOL   H25042966   6.147   3.308   0.102 -2.2317 -2.4321  0.7850
  119MOL   H25142967   6.185   3.124   0.312 -0.8244  2.0123 -1.8995
  119MOL   H25242968   6.216   2.969   0.286 -2.4916 -0.2833  0.3638
  119MOL   H25342969   6.081   3.031   0.196 -0.4746 -1.7648  0.7607
  119MOL   C25442970   6.541   2.933   7.713 -0.1075 -0.1056 -0.7236
  119MOL   C25542971   6.612   3.065   7.746  0.4012  0.2543  0.0977
  119MOL   C25642972   6.680   3.059   0.130  0.1452 -0.1949  0.0020
  119MOL   C25742973   6.749   3.183   0.188  0.0983 -0.4048  0.3099
  119MOL   C25842974   6.829   3.127   0.306 -0.4472 -0.5561  0.0318
  119MOL   C25942975   6.645   3.292   0.220  0.4030 -0.3508 -0.7907
  119MOL   H26042976   6.612   2.851   7.725  1.0686  0.8172 -1.1990
  119MOL   H26142977   6.507   2.949   7.611  0.1600  2.1876 -0.4940
  119MOL   H26242978   6.539   3.146   7.748  1.8077  1.6407 -1.7448
  119MOL   H26342979   6.755   2.983   0.108  1.9799  1.6974 -0.4226
  119MOL   H26442980   6.611   3.023   0.206 -1.3081  1.5138 -0.4671
  119MOL   H26542981   6.811   3.226   0.109 -1.0411 -0.8793 -0.8699
  119MOL   H26642982   6.757   3.116   0.387 -0.0067  2.1590  0.8555
  119MOL   H26742983   6.905   3.198   0.338  0.8486 -1.8874 -0.0258
  119MOL   H26842984   6.883   3.035   0.283  1.2944  0.1221  1.2811
  119MOL   H26942985   6.675   3.393   0.248  0.7922 -1.2487  2.1189
  119MOL   H27042986   6.582   3.318   0.134 -1.1994  0.1477  0.5200
  119MOL   H27142987   6.569   3.247   0.283 -0.4845  1.8614 -0.2160
  119MOL   C27242988   6.718   3.091   7.631  1.1292 -0.5246 -0.7049
  119MOL   C27342989   6.732   3.243   7.584  1.8440  0.3484  0.6133
  119MOL   C27442990   6.866   3.281   7.521  0.2234 -0.2037 -0.3186
  119MOL   C27542991   6.983   3.284   7.626  0.6402  0.3158 -0.0692
  119MOL   C27642992   6.987   3.417   7.701 -0.1523 -0.1254  0.1775
  119MOL   C27742993   7.117   3.247   7.563 -0.5177  0.0473  0.5989
  119MOL   H27842994   6.817   3.052   7.658  0.4857 -0.9640  1.0806
  119MOL   H27942995   6.687   3.030   7.546  1.4766 -1.1180 -0.4093
  119MOL   H28042996   6.703   3.300   7.672 -0.7960 -0.8321  0.5602
  119MOL   H28142997   6.863   3.380   7.477  4.1244 -0.3656 -1.0977
  119MOL   H28242998   6.906   3.213   7.446  1.4081  0.9505 -0.7449
  119MOL   H28342999   6.963   3.210   7.703 -0.1810  0.4274 -0.1699
  119MOL   H28443000   7.021   3.501   7.640 -0.5962  0.2719  0.4641
  119MOL   H28543001   6.892   3.451   7.744  1.4198  3.4510  1.0408
  119MOL   H28643002   7.053   3.412   0.035 -0.4107 -2.2861  0.2684
  119MOL   H28743003   7.112   3.160   7.498  0.2035 -0.3474  1.0603
  119MOL   H28843004   7.175   3.328   7.520  1.7605 -0.4305  2.6464
  119MOL   H28943005   7.175   3.210   7.648  1.9838 -0.3356 -1.2105
  119MOL   C29043006   6.613   3.278   7.498 -0.5341  0.1500  0.0866
  119MOL   C29143007   6.575   3.428   7.472 -0.5761 -0.4287  0.3375
  119MOL   C29243008   6.506   3.452   7.336  0.0755  0.0895  0.3111
  119MOL   C29343009   6.585   3.498   7.206  0.3685  0.3821 -0.3542
  119MOL   C29443010   6.701   3.594   7.247  0.3412  0.0888 -0.4945
  119MOL   C29543011   6.652   3.374   7.133 -0.0730 -0.2661  0.1379
  119MOL   H29643012   6.624   3.224   7.404 -2.1401 -0.3189  0.1528
  119MOL   H29743013   6.520   3.236   7.534  0.2860 -0.6371  1.3202
  119MOL   H29843014   6.667   3.486   7.476 -1.1899  0.4666  2.1346
  119MOL   H29943015   6.439   3.535   7.356  0.6896  1.1948 -2.0330
  119MOL   H30043016   6.444   3.367   7.307  2.7368 -1.8507  0.0264
  119MOL   H30143017   6.521   3.546   7.133  1.1050  0.1437 -1.1572
  119MOL   H30243018   6.742   3.649   7.162 -0.9474  2.7336  0.5156
  119MOL   H30343019   6.781   3.554   7.309  1.7583  3.1527 -0.2277
  119MOL   H30443020   6.644   3.677   7.291 -0.9653 -0.3815 -1.2596
  119MOL   H30543021   6.579   3.301   7.099 -0.6565  0.8611 -1.0806
  119MOL   H30643022   6.716   3.328   7.208  3.7688  1.2202 -2.0890
  119MOL   H30743023   6.710   3.414   7.050 -1.4187  0.5542 -0.4236
  119MOL   C30843024   6.495   3.482   7.589 -0.1149  0.5341 -0.4541
  119MOL   C30943025   6.522   3.629   7.628 -0.7195  0.4543  0.1047
  119MOL   C31043026   6.395   3.694   7.688 -0.7094 -0.6928  0.2633
  119MOL   C31143027   6.303   3.738   7.575 -0.0261 -0.3918 -0.3249
  119MOL   C31243028   6.155   3.728   7.615  0.1784 -0.5408 -0.1725
  119MOL   C31343029   6.343   3.879   7.504 -0.1546 -0.9639 -0.1662
  119MOL   H31443030   6.389   3.463   7.572  0.4483 -0.7598 -2.6631
  119MOL   H31543031   6.522   3.427   7.679  0.0036  1.5171  0.1196
  119MOL   H31643032   6.549   3.669   7.530  1.9046 -1.2717  0.0646
  119MOL   H31743033   6.423   3.773   0.006 -1.3349  1.2941 -1.6513
  119MOL   H31843034   6.339   3.622   7.748 -2.8437  0.0715 -0.7347
  119MOL   H31943035   6.313   3.665   7.495 -0.9081  1.1279 -1.8557
  119MOL   H32043036   6.116   3.627   7.625  2.6373 -1.3746  1.2408
  119MOL   H32143037   6.091   3.785   7.547  1.7564  0.2382 -1.0416
  119MOL   H32243038   6.140   3.774   7.713  1.2448  2.3511 -1.2973
  119MOL   H32343039   6.368   3.955   7.578  0.2864 -0.4576 -0.8306
  119MOL   H32443040   6.434   3.863   7.446  0.6298  0.1919  0.7357
  119MOL   H32543041   6.263   3.910   7.437  0.2688 -2.3460 -1.3529
  119MOL   C32643042   6.644   3.642   7.729 -0.7087 -0.4100 -0.4767
  119MOL   C32743043   6.716   3.781   7.720 -0.0231 -0.7643 -0.2640
  119MOL   C32843044   6.813   3.777   7.597  0.1487  0.3399 -0.0876
  119MOL   C32943045   6.850   3.922   7.553  0.1371 -0.3921 -0.4763
  119MOL   C33043046   6.971   3.928   7.456  0.4904  0.4701 -0.6499
  119MOL   C33143047   6.733   4.002   7.502  0.0234 -0.1638  0.3527
  119MOL   H33243048   6.718   3.564   7.712  0.1546  0.3549 -0.2808
  119MOL   H33343049   6.603   3.626   0.077 -1.5299  1.5577 -0.4726
  119MOL   H33443050   6.636   3.853   7.706  1.4282  1.0552  0.6683
  119MOL   H33543051   6.897   3.716   7.631  2.4826  3.8843  0.7566
  119MOL   H33643052   6.759   3.726   7.517  0.7773  2.1509 -1.6924
  119MOL   H33743053   6.880   3.974   7.644 -0.2643 -0.8427 -0.0860
  119MOL   H33843054   7.064   3.893   7.502 -0.7556  0.4053  1.9066
  119MOL   H33943055   6.994   4.021   7.403 -0.6555  0.7499 -0.6699
  119MOL   H34043056   6.954   3.866   7.368  1.7716 -2.5161  1.1268
  119MOL   H34143057   6.694   4.063   7.583 -1.5055 -0.8105  0.1327
  119MOL   H34243058   6.755   4.073   7.422 -2.0938  0.6334  0.4332
  119MOL   H34343059   6.641   3.951   7.474 -0.2944  0.2555  0.6216
  119MOL   C34443060   6.792   3.799   0.105 -0.1265  0.1418  0.4166
  119MOL   C34543061   6.875   3.691   0.168 -0.0154 -0.1436 -0.1804
  119MOL   C34643062   6.956   3.747   0.291 -0.3355 -0.8189  0.3157
  119MOL   C34743063   7.049   3.646   0.351  0.8259 -0.0454  0.5103
  119MOL   C34843064   6.979   3.553   0.460 -0.1860  0.3444 -0.1920
  119MOL   C34943065   7.174   3.713   0.402 -0.1952 -0.3535 -0.2663
  119MOL   H35043066   6.718   3.826   0.181  0.0303 -0.8586  0.9240
  119MOL   H35143067   6.850   3.891   0.094 -0.4697  0.1535 -1.4949
  119MOL   H35243068   6.943   3.651   0.093  0.3496  0.4457 -0.1594
  119MOL   H35343069   7.021   3.825   0.253 -1.7776  0.4178  0.3367
  119MOL   H35443070   6.900   3.789   0.375 -1.2853  0.5070 -0.9526
  119MOL   H35543071   7.060   3.566   0.278 -0.8883 -1.9698  2.3160
  119MOL   H35643072   6.892   3.499   0.422  0.5412 -1.3073  0.4183
  119MOL   H35743073   7.048   3.475   0.493 -2.4503 -1.9684 -0.7770
  119MOL   H35843074   6.948   3.605   0.551 -2.1069  0.3260 -0.8200
  119MOL   H35943075   7.150   3.780   0.485  0.7000  0.6993 -0.8527
  119MOL   H36043076   7.221   3.766   0.319  0.4876 -2.6750 -1.3991
  119MOL   H36143077   7.245   3.636   0.432  0.2833  0.3484  0.4182
  119MOL   H36243078   6.815   3.607   0.203  1.9600 -0.0955  3.5073
  120MOL     C143079   5.839   0.129   2.065 -0.2989  0.3198 -0.3392
  120MOL     C243080   5.693   0.127   2.109  0.6942  1.0717 -0.3828
  120MOL     C343081   5.618   0.245   2.044 -0.4127  0.9062  0.0506
  120MOL     C443082   5.597   0.245   1.888  0.4754  0.8187 -0.1010
  120MOL     C543083   5.559   0.396   1.848 -0.2697  0.3227 -0.0910
  120MOL     C643084   5.489   0.157   1.831 -0.1030  0.2558 -0.0041
  120MOL     H743085   5.856   0.121   1.957  1.3252 -0.6581 -0.0266
  120MOL     H843086   5.899   0.204   2.115 -0.6006 -0.7427  1.6740
  120MOL     H943087   5.651   0.033   2.074  1.1164  0.0631  1.7910
  120MOL    H1043088   5.521   0.258   2.091 -0.0847 -1.2805  1.3899
  120MOL    H1143089   5.678   0.334   2.064  1.6887 -0.4087 -0.2208
  120MOL    H1243090   5.693   0.219   1.843  0.5155  0.9929 -0.1154
  120MOL    H1343091   5.465   0.422   1.896  1.4261  0.0302  3.4844
  120MOL    H1443092   5.637   0.466   1.875  1.5182 -1.0783 -1.4694
  120MOL    H1543093   5.554   0.410   1.740  2.0600 -0.2402 -0.2938
  120MOL    H1643094   5.522   0.054   1.845 -1.3450 -0.1832 -0.2195
  120MOL    H1743095   5.486   0.177   1.724 -0.2453  2.1884  0.3543
  120MOL    H1843096   5.386   0.157   1.868  0.0295  1.7550  0.3836
  120MOL    H1943097   5.893   0.044   2.107 -0.6179  0.7554  0.9864
  120MOL    C2043098   5.681   0.121   2.260  0.2747  0.5805 -0.5265
  120MOL    C2143099   5.545   0.068   2.314 -0.1780 -0.4802 -0.0895
  120MOL    C2243100   5.531   7.665   2.316  0.0281  0.6711  0.0371
  120MOL    C2343101   5.389   7.612   2.271  0.5645 -0.4159 -0.4003
  120MOL    C2443102   5.379   7.630   2.117 -0.1488  0.2070 -0.0241
  120MOL    C2543103   5.361   7.474   2.326  0.1529  0.2329  0.0742
  120MOL    H2643104   5.747   0.052   2.313 -0.1123  0.7092  0.1393
  120MOL    H2743105   5.692   0.225   2.291  2.0277  0.0163  0.8255
  120MOL    H2843106   5.471   0.110   2.247 -1.6784  0.2446  1.9454
  120MOL    H2943107   5.537   7.629   2.419  0.1621 -0.1785 -0.2649
  120MOL    H3043108   5.607   7.618   2.254 -0.1997  1.4485 -0.8323
  120MOL    H3143109   5.319   7.680   2.320  0.0250 -1.0779 -0.2485
  120MOL    H3243110   5.279   7.604   2.084  0.2192  0.2183 -1.1750
  120MOL    H3343111   5.443   7.561   2.061  1.2351  1.2832  0.1948
  120MOL    H3443112   5.397   7.731   2.081 -1.5633  0.6698  0.5401
  120MOL    H3543113   5.371   7.476   2.435 -1.1023  0.0835  0.1983
  120MOL    H3643114   5.264   7.436   2.293  1.3021  0.2870 -3.5331
  120MOL    H3743115   5.433   7.400   2.289  0.0870 -0.5855  1.5301
  120MOL    C3843116   5.509   0.124   2.462 -0.1249  0.8197 -0.1923
  120MOL    C3943117   5.489   0.278   2.477  0.4444  0.2677 -0.2941
  120MOL    C4043118   5.620   0.342   2.538  0.3645 -0.3703 -0.2881
  120MOL    C4143119   5.651   0.483   2.501 -0.5139 -0.6968  0.5970
  120MOL    C4243120   5.689   0.511   2.350 -0.6009 -0.1525  0.2587
  120MOL    C4343121   5.761   0.537   2.597 -0.1863 -0.2561  0.6018
  120MOL    H4443122   5.592   0.084   2.520  0.4802 -0.0428 -1.6150
  120MOL    H4543123   5.427   0.072   2.512  0.0964  0.6398 -0.0163
  120MOL    H4643124   5.476   0.326   2.380 -1.2475  2.5529  1.0060
  120MOL    H4743125   5.710   0.289   2.504 -0.0118 -0.1491 -1.6739
  120MOL    H4843126   5.611   0.328   2.645 -0.7297 -4.0871 -0.7888
  120MOL    H4943127   5.559   0.537   2.526 -1.3426 -2.6653  1.9237
  120MOL    H5043128   5.781   0.462   2.318 -1.9117 -0.8976 -2.5453
  120MOL    H5143129   5.605   0.488   2.284 -1.2867  1.8042  0.4334
  120MOL    H5243130   5.707   0.618   2.337  0.7519 -0.4956 -0.8823
  120MOL    H5343131   5.859   0.492   2.581  1.0588  3.0427 -1.5294
  120MOL    H5443132   5.741   0.527   2.704 -1.3496 -1.6219  0.2648
  120MOL    H5543133   5.783   0.640   2.569  1.6261 -0.4096  1.3754
  120MOL    C5643134   5.355   0.307   2.552  0.3012  0.1379 -0.4890
  120MOL    C5743135   5.230   0.286   2.466 -0.2249 -0.0280 -0.0553
  120MOL    C5843136   5.228   0.386   2.352 -0.3321  0.5037 -0.2138
  120MOL    C5943137   5.207   0.317   2.215 -0.1927  0.0332 -0.3644
  120MOL    C6043138   5.243   0.418   2.096 -0.4024 -0.4817  0.2211
  120MOL    C6143139   5.066   0.261   2.207 -0.4890  0.6566  0.1638
  120MOL    H6243140   5.347   0.411   2.584  1.4903 -0.8421  3.2573
  120MOL    H6343141   5.351   0.250   2.644  1.1211 -1.1632 -1.2461
  120MOL    H6443142   5.243   0.183   2.433  0.6476  0.7465 -2.2095
  120MOL    H6543143   5.146   0.458   2.362 -2.4643 -1.6086 -1.8050
  120MOL    H6643144   5.312   0.455   2.357  0.6105 -0.4646 -2.1852
  120MOL    H6743145   5.272   0.231   2.202  0.1962  0.4093 -0.9246
  120MOL    H6843146   5.350   0.440   2.101 -0.1425 -1.9713  1.3566
  120MOL    H6943147   5.184   0.509   2.102 -2.4744 -1.7581 -0.4122
  120MOL    H7043148   5.229   0.388   1.992 -0.3255  0.0801  0.0449
  120MOL    H7143149   5.033   0.232   2.107  2.5244 -1.4184 -0.2700
  120MOL    H7243150   4.996   0.332   2.252 -2.3944 -0.6754 -0.6150
  120MOL    H7343151   5.050   0.173   2.271 -0.0677  2.1222  2.3333
  120MOL    C7443152   5.100   0.298   2.548 -0.0787 -0.3331 -0.2026
  120MOL    C7543153   5.080   0.184   2.646  0.9173 -0.2291 -0.1088
  120MOL    C7643154   5.017   0.061   2.573  0.3770  0.4879  0.1421
  120MOL    C7743155   5.034   7.680   2.646 -0.1709  0.4215 -0.0903
  120MOL    C7843156   5.162   7.598   2.604 -0.2587 -0.2442  0.5839
  120MOL    C7943157   4.902   7.595   2.624  0.4229  0.4232 -0.6449
  120MOL    H8043158   5.017   0.316   2.481 -0.9618 -0.0635  0.9427
  120MOL    H8143159   5.105   0.388   2.610 -0.1964  0.0635 -0.7589
  120MOL    H8243160   5.174   0.158   2.694 -0.5738 -2.3665  1.7454
  120MOL    H8343161   4.910   0.081   2.560  0.2718 -0.9639 -1.4574
  120MOL    H8443162   5.068   0.055   2.477  0.9610 -0.1824  0.4927
  120MOL    H8543163   5.037   7.693   2.754 -2.6054 -1.9497  0.3468
  120MOL    H8643164   5.162   7.588   2.495 -2.5405  2.1250  0.3102
  120MOL    H8743165   5.162   7.493   2.635  0.1975  0.1433  1.9472
  120MOL    H8843166   5.256   7.652   2.619 -1.2612  1.7474 -0.1201
  120MOL    H8943167   4.808   7.649   2.640 -0.0410 -0.1579 -1.3847
  120MOL    H9043168   4.912   7.548   2.526 -1.2089 -0.9802 -0.1593
  120MOL    H9143169   4.888   7.522   2.704 -3.6602 -0.6434 -2.2232
  120MOL    C9243170   4.982   0.234   2.757 -0.4329  0.1252 -0.0058
  120MOL    C9343171   5.053   0.307   2.870 -0.3176 -0.4636  0.0969
  120MOL    C9443172   4.957   0.397   2.953  0.1721 -0.2062  0.2827
  120MOL    C9543173   4.940   0.533   2.891 -0.2159 -1.1220  0.5439
  120MOL    C9643174   4.816   0.600   2.951 -0.2599  0.2500  0.0966
  120MOL    C9743175   5.062   0.627   2.899  0.5731 -0.1312  0.2848
  120MOL    H9843176   4.911   0.304   2.712  2.1208  2.9109  0.0664
  120MOL    H9943177   4.926   0.152   2.801  0.0233 -1.1671 -1.7533
  120MOL   H10043178   5.113   0.381   2.817 -1.0491 -1.3397 -2.0087
  120MOL   H10143179   5.001   0.419   3.050  0.1853 -0.2421  0.2845
  120MOL   H10243180   4.861   0.348   2.966  0.1615 -0.5602 -0.9772
  120MOL   H10343181   4.914   0.521   2.786 -0.6684 -0.0286  0.5219
  120MOL   H10443182   4.727   0.540   2.932  1.1012 -1.5883 -0.6132
  120MOL   H10543183   4.802   0.706   2.931  0.8253  0.0305 -1.9674
  120MOL   H10643184   4.825   0.609   3.060  0.0375 -0.7420  0.1650
  120MOL   H10743185   5.093   0.631   3.004 -0.1878 -0.5813  0.5279
  120MOL   H10843186   5.038   0.724   2.855 -2.8869 -1.1650 -0.1969
  120MOL   H10943187   5.148   0.603   2.836  0.5637  3.3290 -1.1513
  120MOL   C11043188   5.126   0.208   2.950 -0.0006  0.2813  0.9292
  120MOL   C11143189   5.223   0.268   3.059  0.4290  0.1786  0.4053
  120MOL   C11243190   5.280   0.150   3.141 -0.0705 -0.1535 -0.2726
  120MOL   C11343191   5.191   0.071   3.242  0.3156  0.4927 -0.2951
  120MOL   C11443192   5.158   0.144   3.373  0.1180 -0.2369 -0.6197
  120MOL   C11543193   5.254   7.683   3.272 -0.0407  0.3423  0.3955
  120MOL   H11643194   5.195   0.152   2.888 -2.1861 -0.5151 -0.8374
  120MOL   H11743195   5.061   0.139   3.004  0.7626  0.3352  1.9303
  120MOL   H11843196   5.157   0.323   3.127  0.1129  2.4877 -1.6688
  120MOL   H11943197   5.354   0.196   3.206 -3.4663  3.0142  1.5052
  120MOL   H12043198   5.337   0.085   3.074  1.3035 -0.0734  0.8126
  120MOL   H12143199   5.097   0.041   3.195 -0.5958  2.8724 -0.0444
  120MOL   H12243200   5.251   0.183   3.415 -0.0773  2.7534 -2.7709
  120MOL   H12343201   5.111   0.079   3.446 -1.9348  2.2553  0.3676
  120MOL   H12443202   5.088   0.227   3.362  1.0755  0.6044 -0.4456
  120MOL   H12543203   5.173   7.610   3.272  0.4225 -0.2080 -1.5969
  120MOL   H12643204   5.304   7.677   3.369 -0.1586  0.6398  0.4758
  120MOL   H12743205   5.316   7.641   3.193 -1.0498 -0.5006  0.0411
  120MOL   C12843206   5.330   0.359   2.994  0.0084 -0.1412  0.1677
  120MOL   C12943207   5.414   0.456   3.076  0.1402  0.6758 -0.9776
  120MOL   C13043208   5.332   0.555   3.161 -0.3038 -0.3961  0.4082
  120MOL   C13143209   5.389   0.600   3.296  0.0624 -0.4276 -0.3167
  120MOL   C13243210   5.323   0.733   3.337 -0.6205 -0.4203 -0.7737
  120MOL   C13343211   5.377   0.492   3.400  0.0198 -0.2223 -0.0765
  120MOL   H13443212   5.287   0.414   2.911  0.5364  2.7471  1.7394
  120MOL   H13543213   5.408   0.297   2.949  0.3373  0.5750 -0.2536
  120MOL   H13643214   5.479   0.396   3.140  1.1212  0.9135 -1.7371
  120MOL   H13743215   5.322   0.646   3.102 -0.2943 -1.1532 -0.7859
  120MOL   H13843216   5.229   0.519   3.166 -0.2021 -1.1010 -1.9998
  120MOL   H13943217   5.493   0.629   3.290 -0.6139  1.9801 -0.6866
  120MOL   H14043218   5.216   0.716   3.326 -0.6644 -1.9104  1.7145
  120MOL   H14143219   5.358   0.808   3.266 -1.2306  0.6141  0.0033
  120MOL   H14243220   5.353   0.761   3.438  1.3904 -1.5413 -1.0437
  120MOL   H14343221   5.402   0.523   3.501  0.4852  0.6982 -0.4715
  120MOL   H14443222   5.270   0.471   3.402 -1.0393  4.4053 -1.4012
  120MOL   H14543223   5.428   0.398   3.379  0.4485  0.3481 -1.6890
  120MOL   C14643224   5.497   0.540   2.984  0.4236  0.0110 -0.1787
  120MOL   C14743225   5.624   0.614   3.030  0.3783 -0.0599  0.6938
  120MOL   C14843226   5.654   0.722   2.923  0.0174 -0.7925 -0.0919
  120MOL   C14943227   5.598   0.868   2.938  0.4125  1.0106 -0.8346
  120MOL   C15043228   5.644   0.943   3.068 -1.0446 -0.0406  0.8652
  120MOL   C15143229   5.641   0.948   2.819 -0.4851  0.3908  0.2719
  120MOL   H15243230   5.436   0.609   2.927  0.4897  0.1985 -0.0233
  120MOL   H15343231   5.529   0.471   2.905 -0.1531  0.5345 -0.8725
  120MOL   H15443232   5.603   0.662   3.126  0.1563 -0.3084  0.7720
  120MOL   H15543233   5.762   0.737   2.915 -0.1619  0.2566 -0.5863
  120MOL   H15643234   5.624   0.685   2.825  0.4641  1.4587 -1.0983
  120MOL   H15743235   5.489   0.862   2.937  0.4894 -0.6784 -0.7444
  120MOL   H15843236   5.753   0.953   3.070 -1.0523  0.5784 -1.1487
  120MOL   H15943237   5.610   0.884   3.154 -0.8876 -1.5926 -0.1101
  120MOL   H16043238   5.604   1.044   3.072 -4.1847 -1.2302  0.6772
  120MOL   H16143239   5.749   0.951   2.805 -0.6455 -3.2712 -2.3736
  120MOL   H16243240   5.590   1.045   2.818 -0.2770  0.4944 -0.6399
  120MOL   H16343241   5.598   0.907   2.728  2.3899  0.5524 -1.2004
  120MOL   C16443242   5.748   0.521   3.040 -0.2046 -0.0851  0.2187
  120MOL   C16543243   5.873   0.590   3.116 -0.4634 -0.3041 -0.2507
  120MOL   C16643244   5.863   0.569   3.264  0.0432 -0.0493 -0.1793
  120MOL   C16743245   5.985   0.629   3.347  0.1666  0.0646  0.4051
  120MOL   C16843246   6.006   0.780   3.334 -0.2637  0.2806  0.4523
  120MOL   C16943247   5.955   0.578   3.493  0.4807 -0.6405 -0.6131
  120MOL   H17043248   5.721   0.430   3.093  0.7574 -0.6377 -0.2118
  120MOL   H17143249   5.787   0.493   2.942 -0.2734  2.5559 -0.6031
  120MOL   H17243250   5.857   0.698   3.113  1.0858 -0.0995 -1.4935
  120MOL   H17343251   5.766   0.606   3.298  0.2343 -0.3025  0.6355
  120MOL   H17443252   5.873   0.462   3.282  1.3812 -0.0079 -0.6134
  120MOL   H17543253   6.079   0.581   3.322  0.6326  1.2510 -0.1274
  120MOL   H17643254   6.002   0.821   3.233  0.2439  1.8697  1.0535
  120MOL   H17743255   6.109   0.804   3.363 -0.1731  0.4945 -0.0469
  120MOL   H17843256   5.940   0.847   3.389 -2.0012  0.7249 -2.1035
  120MOL   H17943257   6.043   0.606   3.551 -0.9015  1.8644  0.3072
  120MOL   H18043258   5.924   0.475   3.510  1.1184 -0.7694 -0.1983
  120MOL   H18143259   5.874   0.638   3.535 -0.8750 -3.1865  0.5243
  120MOL   C18243260   6.016   0.546   3.057  0.4745  0.6554 -0.6730
  120MOL   C18343261   6.054   0.614   2.926 -0.5069  0.0921  0.8698
  120MOL   C18443262   6.056   0.776   2.930 -0.3214 -0.3470 -0.1259
  120MOL   C18543263   6.085   0.856   2.801 -0.6483  0.2086 -0.0532
  120MOL   C18643264   6.020   0.805   2.669  0.4312 -0.4465  0.0180
  120MOL   C18743265   6.087   1.012   2.814 -0.3816  0.6373  0.1824
  120MOL   H18843266   6.021   0.438   3.042  0.9789  0.1422  2.6551
  120MOL   H18943267   6.104   0.564   3.118  0.7364 -0.6275 -0.6567
  120MOL   H19043268   5.983   0.593   2.846  1.2942 -1.4649 -0.3549
  120MOL   H19143269   6.135   0.790   3.004  0.8734 -2.8874 -0.8338
  120MOL   H19243270   5.961   0.817   2.964  0.6874  1.3672  0.6359
  120MOL   H19343271   6.185   0.846   2.759 -0.1275 -0.1108  1.2274
  120MOL   H19443272   6.067   0.716   2.630  1.0408 -0.9239  1.7836
  120MOL   H19543273   6.006   0.886   2.597  1.0577  0.3713  0.7924
  120MOL   H19643274   5.921   0.768   2.694  0.5812 -0.3404  0.7840
  120MOL   H19743275   6.158   1.034   2.893 -1.1472 -0.4904  1.2047
  120MOL   H19843276   5.991   1.047   2.852  0.0883  1.6908  0.4403
  120MOL   H19943277   6.110   1.063   2.720 -0.9501 -1.5051 -1.1470
  120MOL   C20043278   6.190   0.566   2.865 -0.1272 -0.0528 -0.3724
  120MOL   C20143279   6.206   0.418   2.814  0.9530 -0.3510  0.0281
  120MOL   C20243280   6.350   0.368   2.777  0.4180 -0.5973  0.6518
  120MOL   C20343281   6.443   0.326   2.893  1.3832 -0.1569  0.0348
  120MOL   C20443282   6.409   0.175   2.930  1.4928  0.0504  0.6174
  120MOL   C20543283   6.597   0.343   2.879 -0.0735  0.1344  0.0653
  120MOL   H20643284   6.270   0.586   2.937  0.1088  0.8235 -0.8678
  120MOL   H20743285   6.221   0.628   2.781 -1.7396 -0.3361 -1.1754
  120MOL   H20843286   6.173   0.349   2.892  0.9418 -1.1720 -0.7016
  120MOL   H20943287   6.353   0.296   2.696 -1.3046 -1.8694  1.6705
  120MOL   H21043288   6.395   0.459   2.737 -2.3293  1.6128  2.3620
  120MOL   H21143289   6.406   0.382   2.980  0.2018  0.3743 -0.7861
  120MOL   H21243290   6.302   0.153   2.937  1.4762 -0.1554 -0.2268
  120MOL   H21343291   6.457   0.148   3.024 -1.0530 -1.6357  1.4974
  120MOL   H21443292   6.449   0.101   2.861  0.7654 -1.2364  1.5360
  120MOL   H21543293   6.627   0.265   2.809 -2.5012 -0.4485 -0.3898
  120MOL   H21643294   6.651   0.327   2.972 -0.3548  3.6013  0.9011
  120MOL   H21743295   6.635   0.443   2.859 -1.5507  0.9211  1.0810
  120MOL   C21843296   6.116   0.387   2.686  0.1421  0.2646 -0.1740
  120MOL   C21943297   6.068   0.242   2.682 -0.6388 -1.0065 -0.6385
  120MOL   C22043298   6.034   0.183   2.541 -0.3259  0.1011  0.2535
  120MOL   C22143299   6.153   0.120   2.465  0.1405  0.1511 -0.2225
  120MOL   C22243300   6.243   0.223   2.399  0.3592 -0.0835  0.3937
  120MOL   C22343301   6.223   0.004   2.536  0.3723 -0.0176 -0.1687
  120MOL   H22443302   6.034   0.459   2.681  0.0291  0.0582 -1.3692
  120MOL   H22543303   6.175   0.414   2.599 -1.6759  0.8267 -1.2460
  120MOL   H22643304   6.140   0.180   2.735  0.8194  0.7542 -0.5092
  120MOL   H22743305   5.953   0.110   2.547 -2.4584  2.1453 -2.4578
  120MOL   H22843306   5.994   0.267   2.484 -1.4830 -0.5333  0.1090
  120MOL   H22943307   6.104   0.075   2.378  0.6744 -1.0157  0.0624
  120MOL   H23043308   6.275   0.297   2.472 -0.9486 -0.5077  1.4001
  120MOL   H23143309   6.339   0.187   2.362 -0.5207 -1.7647 -0.2899
  120MOL   H23243310   6.188   0.279   2.322  2.2487  1.5351  0.1727
  120MOL   H23343311   6.304   7.710   2.480 -0.2157 -0.7611 -0.4186
  120MOL   H23443312   6.277   0.036   2.625  0.1810 -1.8968  0.6694
  120MOL   H23543313   6.144   7.685   2.561 -0.0794  1.1494  1.8026
  120MOL   C23643314   5.934   0.238   2.763  0.1201  0.3375  0.6193
  120MOL   C23743315   5.886   0.091   2.809 -0.4105 -0.1493  0.6878
  120MOL   C23843316   5.727   0.092   2.801 -0.1918  0.3025 -0.6478
  120MOL   C23943317   5.657   7.708   2.812 -0.3209  0.6021 -0.4869
  120MOL   C24043318   5.505   7.737   2.823 -0.4922  0.5386  0.0919
  120MOL   C24143319   5.700   7.613   2.699 -0.1245 -0.0909  0.2773
  120MOL   H24243320   5.856   0.286   2.704  0.6866  2.4447  1.5097
  120MOL   H24343321   5.932   0.301   2.853  0.4342  1.3267 -0.0562
  120MOL   H24443322   5.927   0.009   2.750 -0.3913 -0.5346  1.2352
  120MOL   H24543323   5.696   0.146   2.712 -0.4323  1.7142  0.2821
  120MOL   H24643324   5.696   0.155   2.884 -1.0469  0.2931 -0.9519
  120MOL   H24743325   5.697   7.662   2.903 -2.1461 -0.3487 -0.1530
  120MOL   H24843326   5.468   0.028   2.730 -0.2979 -0.3900 -0.4361
  120MOL   H24943327   5.491   0.054   2.905 -0.6685  2.1424 -1.2728
  120MOL   H25043328   5.457   7.644   2.854  1.3711 -0.1467  1.0582
  120MOL   H25143329   5.677   7.509   2.720  1.7105 -0.0074  2.8766
  120MOL   H25243330   5.807   7.618   2.679 -0.4321  0.6234 -1.2778
  120MOL   H25343331   5.659   7.625   2.598  1.7318 -1.6370 -0.6752
  120MOL   C25443332   5.952   0.054   2.942  0.1373 -0.2057  0.4937
  120MOL   C25543333   5.977   7.661   2.971  0.4192  0.6390  0.1004
  120MOL   C25643334   6.106   7.622   2.890 -0.7776  0.6080  0.2764
  120MOL   C25743335   6.122   7.474   2.846 -0.0204 -0.2661 -0.4302
  120MOL   C25843336   6.265   7.450   2.778  1.0748 -0.2651  0.0365
  120MOL   C25943337   6.002   7.407   2.768  0.3762  0.8628  0.0145
  120MOL   H26043338   6.049   0.103   2.937  0.0094 -0.1987 -3.1092
  120MOL   H26143339   5.891   0.100   3.020 -0.5242  1.7052 -1.1135
  120MOL   H26243340   5.890   7.609   2.933 -0.5667  2.8920 -0.8017
  120MOL   H26343341   6.201   7.652   2.936  0.0033 -0.9288 -0.2952
  120MOL   H26443342   6.116   7.676   2.796  0.0581 -0.2542 -0.1355
  120MOL   H26543343   6.123   7.413   2.935 -1.2862 -1.0516 -0.9419
  120MOL   H26643344   6.343   7.499   2.836  0.9807  0.8625 -0.7732
  120MOL   H26743345   6.256   7.497   2.680 -0.5552  0.5196  0.5485
  120MOL   H26843346   6.275   7.342   2.768  0.5061 -0.4413  1.3149
  120MOL   H26943347   5.986   7.436   2.664 -2.3374 -1.0827 -0.1687
  120MOL   H27043348   6.023   7.300   2.765 -1.2605  0.5509 -2.0218
  120MOL   H27143349   5.908   7.423   2.820  0.9122  1.8960  0.6750
  120MOL   C27243350   6.011   7.627   3.121  0.1274  0.2371  0.1377
  120MOL   C27343351   5.891   7.602   3.215 -0.3895 -0.2228 -0.3386
  120MOL   C27443352   5.837   7.460   3.193  0.5561  0.0322 -0.1897
  120MOL   C27543353   5.693   7.436   3.253 -0.2497 -0.0695  0.3311
  120MOL   C27643354   5.654   7.292   3.217 -0.4118  0.1754 -0.4436
  120MOL   C27743355   5.578   7.524   3.200  0.2971 -0.7679  0.2476
  120MOL   H27843356   6.067   7.534   3.134 -3.9405 -2.5742 -1.3110
  120MOL   H27943357   6.069   7.712   3.157  1.7989  0.4454 -2.8011
  120MOL   H28043358   5.805   7.663   3.185 -1.5304 -1.0565  1.1822
  120MOL   H28143359   5.906   7.391   3.240  0.4694  0.5236  0.6575
  120MOL   H28243360   5.842   7.415   3.094  0.9297  0.4021 -0.3364
  120MOL   H28343361   5.706   7.448   3.360  2.0141 -0.2994  0.0979
  120MOL   H28443362   5.549   7.276   3.240 -0.5695  0.8480 -0.6622
  120MOL   H28543363   5.677   7.275   3.112  0.0119  0.1324 -0.3425
  120MOL   H28643364   5.704   7.216   3.277  2.3478  0.1915 -2.6233
  120MOL   H28743365   5.482   7.472   3.198  1.4781 -2.9546 -1.4794
  120MOL   H28843366   5.565   7.614   3.260  0.9834 -0.5089  0.0102
  120MOL   H28943367   5.612   7.546   3.099 -1.0267  0.8559  0.1350
  120MOL   C29043368   5.943   7.634   3.361 -0.1482 -0.3939 -0.2231
  120MOL   C29143369   5.922   0.022   3.409 -0.5023 -0.0388 -0.5019
  120MOL   C29243370   5.771   0.037   3.458 -0.2360  0.5738 -0.2339
  120MOL   C29343371   5.724   0.186   3.465 -0.4958  1.0279  0.2264
  120MOL   C29443372   5.678   0.231   3.321 -0.1433  0.7205 -0.0913
  120MOL   C29543373   5.610   0.206   3.562  0.0418  0.6328 -0.2540
  120MOL   H29643374   5.911   7.566   3.440  1.5335  0.2758  1.0880
  120MOL   H29743375   6.051   7.619   3.353 -0.2201 -1.6453  0.9681
  120MOL   H29843376   5.950   0.094   3.332  2.4463 -1.9971 -1.3501
  120MOL   H29943377   5.762   0.005   3.562  1.6504 -0.2608 -0.2922
  120MOL   H30043378   5.709   7.726   3.394 -0.7307 -0.1747  0.9785
  120MOL   H30143379   5.805   0.249   3.500 -0.2683 -1.1361  3.8165
  120MOL   H30243380   5.619   0.322   3.323 -1.4359 -0.0211 -2.7410
  120MOL   H30343381   5.600   0.162   3.290 -2.3746  1.7003  3.1103
  120MOL   H30443382   5.751   0.244   3.241  2.3106  0.0579  1.9666
  120MOL   H30543383   5.624   0.151   3.656 -1.8225  1.2560  0.4157
  120MOL   H30643384   5.514   0.176   3.520  0.2042  1.8642 -1.5195
  120MOL   H30743385   5.595   0.311   3.589 -1.6414  1.0485 -2.6412
  120MOL   C30843386   6.006   0.049   3.536 -0.0721  0.5205 -0.2617
  120MOL   C30943387   6.165   0.059   3.525  0.8353 -0.4542  0.0423
  120MOL   C31043388   6.193   0.203   3.476 -0.0378  0.3560  0.1382
  120MOL   C31143389   6.334   0.230   3.411 -0.4077 -0.0199 -0.4691
  120MOL   C31243390   6.372   0.121   3.311 -0.2619 -0.0458  0.4145
  120MOL   C31343391   6.347   0.375   3.360  0.0510  0.3954  0.0565
  120MOL   H31443392   5.980   0.143   3.583 -1.3868 -0.9005  1.9645
  120MOL   H31543393   5.991   7.718   3.604  1.8268 -0.3007 -0.8281
  120MOL   H31643394   6.187   7.736   3.449 -0.5420  0.7302 -1.5545
  120MOL   H31743395   6.165   0.286   3.540  3.2779  0.3871  1.6635
  120MOL   H31843396   6.126   0.222   3.392  0.7148  0.6293 -0.4114
  120MOL   H31943397   6.403   0.228   3.495 -1.1406 -0.3684  0.1237
  120MOL   H32043398   6.455   0.162   3.254 -1.1179 -0.2220 -1.0047
  120MOL   H32143399   6.288   0.103   3.242 -1.1513  0.1414  1.4327
  120MOL   H32243400   6.392   0.023   3.355  1.2497 -0.5245 -1.2702
  120MOL   H32343401   6.273   0.399   3.283  0.9354  0.8798 -0.6492
  120MOL   H32443402   6.325   0.439   3.445  0.2167  1.1839 -0.4949
  120MOL   H32543403   6.444   0.398   3.315 -0.5750 -1.0009 -2.1102
  120MOL   C32643404   6.255   0.029   3.653  0.3872 -0.0850  0.1580
  120MOL   C32743405   6.236   7.646   3.731 -0.0705 -0.6006 -0.2017
  120MOL   C32843406   6.349   7.630   3.835  0.0201  0.5825 -0.4174
  120MOL   C32943407   6.309   7.550   3.956 -0.7331  1.0548 -0.9777
  120MOL   C33043408   6.433   7.513   4.038  0.4867  0.4434 -0.3027
  120MOL   C33143409   6.211   7.625   4.048  0.1496  0.0308 -0.0820
  120MOL   H33243410   6.220   0.110   3.717  0.1722  0.2104 -0.3325
  120MOL   H33343411   6.361   0.044   3.634  0.2714  0.2316 -0.2356
  120MOL   H33443412   6.147   7.666   3.790  0.9607  1.8259  0.5849
  120MOL   H33543413   6.429   7.567   3.795  2.6831  2.3947  1.8878
  120MOL   H33643414   6.403   7.723   3.849  0.4961  0.3917 -0.9223
  120MOL   H33743415   6.259   7.457   3.927 -2.4824  0.5207  3.3680
  120MOL   H33843416   6.409   7.488   4.141  1.6847 -1.3781 -0.4472
  120MOL   H33943417   6.514   7.587   4.035 -0.0662  1.0543 -0.3787
  120MOL   H34043418   6.487   7.425   4.004  0.2374 -1.2595  3.4509
  120MOL   H34143419   6.221   7.732   4.063 -3.0316  0.0089  3.0937
  120MOL   H34243420   6.108   7.613   4.014  0.5024  0.3430 -1.2844
  120MOL   H34343421   6.204   7.576   4.146 -0.1243  1.1489  0.4645
  120MOL   C34443422   6.207   7.520   3.651 -0.1124 -0.1929 -0.7870
  120MOL   C34543423   6.315   7.496   3.539  0.3377  0.0439  0.4832
  120MOL   C34643424   6.264   7.388   3.447 -0.0331 -0.4957 -0.2019
  120MOL   C34743425   6.340   7.365   3.314  0.0441 -0.4950  0.2687
  120MOL   C34843426   6.363   7.496   3.235  0.2603 -0.1120 -0.5228
  120MOL   C34943427   6.258   7.279   3.218 -0.0268 -0.5282  0.2945
  120MOL   H35043428   6.111   7.527   3.600  0.2287  0.4142 -1.3655
  120MOL   H35143429   6.210   7.432   3.714  0.6290 -0.5597 -1.3332
  120MOL   H35243430   6.409   7.460   3.580 -0.2859  0.0189  1.9487
  120MOL   H35343431   6.239   7.295   3.498 -0.8742 -0.2667 -0.1755
  120MOL   H35443432   6.157   7.406   3.433  0.2226  1.0746 -0.1924
  120MOL   H35543433   6.430   7.314   3.349 -1.4061 -1.3236  2.8581
  120MOL   H35643434   6.419   7.482   3.143  0.7569 -0.5535 -0.1555
  120MOL   H35743435   6.271   7.551   3.214  2.6086  3.8136 -0.9530
  120MOL   H35843436   6.422   7.567   3.293  3.3312 -2.2608 -0.8980
  120MOL   H35943437   6.158   7.318   3.198  0.9995  0.7799 -2.5034
  120MOL   H36043438   6.236   7.179   3.257  0.1469 -0.7574 -0.1816
  120MOL   H36143439   6.299   7.264   3.118  0.7675 -0.2206  0.5772
  120MOL   H36243440   6.329   7.592   3.489 -0.8963  1.1017  2.1068
  121MOL     C143441   5.139   5.226   0.542 -0.0392  0.5181  0.2280
  121MOL     C243442   5.242   5.111   0.516 -0.1872 -0.6534 -0.6683
  121MOL     C343443   5.338   5.121   0.634  0.4423  0.1260 -0.5629
  121MOL     C443444   5.290   5.070   0.770 -0.5912 -0.4429 -0.0163
  121MOL     C543445   5.391   5.115   0.872  0.3119  0.1930 -0.2627
  121MOL     C643446   5.284   4.915   0.767 -0.5478  0.5517 -0.3740
  121MOL     H743447   5.082   5.222   0.636 -1.9596 -1.8244 -0.9888
  121MOL     H843448   5.182   5.326   0.534  0.9783  0.0071 -0.7213
  121MOL     H943449   5.182   5.021   0.530 -1.6246  0.5857  1.5471
  121MOL    H1043450   5.417   5.052   0.605 -0.6200 -1.4236  0.1777
  121MOL    H1143451   5.375   5.223   0.639 -1.2378  0.7614 -0.8045
  121MOL    H1243452   5.191   5.107   0.795 -1.5226 -1.1850 -2.4213
  121MOL    H1343453   5.377   5.066   0.968  0.6832 -1.2001 -0.9033
  121MOL    H1443454   5.494   5.091   0.844  0.8863  0.3322  1.6705
  121MOL    H1543455   5.376   5.220   0.896 -1.8534 -0.2794  0.5615
  121MOL    H1643456   5.378   4.874   0.729 -0.8353 -0.1283 -0.3548
  121MOL    H1743457   5.204   4.877   0.704 -1.4117 -0.0492  1.0451
  121MOL    H1843458   5.271   4.882   0.870  2.1993 -1.7296 -0.6858
  121MOL    H1943459   5.061   5.223   0.466  2.7732 -0.1825 -2.6911
  121MOL    C2043460   5.315   5.115   0.384 -0.1079 -0.0247 -0.1843
  121MOL    C2143461   5.242   5.081   0.255  0.2795  0.4165 -0.2165
  121MOL    C2243462   5.329   5.127   0.136  0.7001 -0.1079  0.1557
  121MOL    C2343463   5.327   5.276   0.097  0.5149  0.1667 -0.2667
  121MOL    C2443464   5.434   5.312   7.750  0.1157 -0.0491 -0.0204
  121MOL    C2543465   5.186   5.308   0.040 -0.4975  0.0469 -0.9521
  121MOL    H2643466   5.371   5.207   0.365  2.4203 -1.5475 -0.1886
  121MOL    H2743467   5.396   5.043   0.387 -0.9931 -1.0733 -0.8749
  121MOL    H2843468   5.161   5.153   0.246  1.5602  1.8503 -0.5121
  121MOL    H2943469   5.318   5.065   0.046 -0.4143 -1.3625  1.1404
  121MOL    H3043470   5.432   5.096   0.152  0.6843 -0.4974 -0.4635
  121MOL    H3143471   5.345   5.335   0.187  3.0767 -0.2630 -0.4746
  121MOL    H3243472   5.533   5.283   0.032  1.3620  0.8305 -2.7273
  121MOL    H3343473   5.439   5.418   7.725  0.5643  0.3754  1.7706
  121MOL    H3443474   5.417   5.259   7.656 -2.1904  0.7199 -0.0681
  121MOL    H3543475   5.187   5.404   7.740 -0.7212  0.3353 -0.4234
  121MOL    H3643476   5.136   5.238   7.726 -2.5501  0.4124  0.1613
  121MOL    H3743477   5.116   5.326   0.122  0.6818 -0.7972  0.2681
  121MOL    C3843478   5.194   4.932   0.249 -0.8942 -0.6308  0.2005
  121MOL    C3943479   5.049   4.906   0.219  0.0122  0.2519 -0.1054
  121MOL    C4043480   5.013   4.956   0.073  0.0422  1.4863  0.3080
  121MOL    C4143481   5.055   4.861   7.704  0.3771 -0.2105  0.3299
  121MOL    C4243482   5.046   4.932   7.571 -0.4476 -0.1748  0.8217
  121MOL    C4343483   4.977   4.723   7.696  0.5252  0.0801  0.4594
  121MOL    H4443484   5.217   4.889   0.346 -0.1523 -0.1931  0.2257
  121MOL    H4543485   5.257   4.877   0.179 -1.1987  0.1851 -0.7329
  121MOL    H4643486   5.040   4.798   0.216  3.7129 -0.0698 -2.1024
  121MOL    H4743487   5.046   5.059   0.059 -2.4388  2.4101  1.0716
  121MOL    H4843488   4.904   4.957   0.068 -0.0621 -0.6468  1.6313
  121MOL    H4943489   5.163   4.844   7.707  0.3223 -1.4626 -2.9322
  121MOL    H5043490   5.099   5.027   7.576 -0.5961 -0.0171 -0.5067
  121MOL    H5143491   5.078   4.868   7.489 -0.2868 -0.2745  0.9617
  121MOL    H5243492   4.944   4.959   7.543  0.8093  1.1504 -2.7639
  121MOL    H5343493   4.871   4.747   7.682  0.6538 -0.0895 -0.9305
  121MOL    H5443494   4.999   4.661   0.031  1.5201 -0.0778  0.1037
  121MOL    H5543495   5.003   4.672   7.603 -3.0550  0.4212 -0.8023
  121MOL    C5643496   4.955   4.979   0.327 -0.6632  0.8259  0.2455
  121MOL    C5743497   4.815   4.919   0.331 -0.1064  0.0207  0.9599
  121MOL    C5843498   4.706   5.017   0.376 -0.2187 -0.5676 -0.0976
  121MOL    C5943499   4.682   5.140   0.291 -0.5416 -0.4879 -0.3820
  121MOL    C6043500   4.578   5.222   0.361 -0.8783 -0.0100  0.1886
  121MOL    C6143501   4.642   5.109   0.153  0.4226 -0.0944  0.6541
  121MOL    H6243502   4.959   5.085   0.303  0.1255  0.8523  0.4721
  121MOL    H6343503   4.993   4.961   0.427  0.7836 -1.8881 -0.7175
  121MOL    H6443504   4.778   4.892   0.232  0.6242  0.9449  0.4215
  121MOL    H6543505   4.611   4.964   0.375 -0.8395  0.5372 -0.7547
  121MOL    H6643506   4.739   5.055   0.473 -0.7081  0.9727 -0.5122
  121MOL    H6743507   4.772   5.201   0.293  0.1278 -1.2745 -3.9483
  121MOL    H6843508   4.605   5.259   0.460  0.1411  1.9846 -0.8352
  121MOL    H6943509   4.484   5.170   0.380 -0.7204 -0.1683  0.5413
  121MOL    H7043510   4.550   5.307   0.299  1.7649  1.3191  0.7770
  121MOL    H7143511   4.650   5.205   0.102 -2.0394  2.2844  4.4801
  121MOL    H7243512   4.544   5.060   0.153  0.7275 -0.7131 -0.0300
  121MOL    H7343513   4.709   5.032   0.114  0.0960  0.7786 -1.7023
  121MOL    C7443514   4.820   4.801   0.434  0.7330 -0.1871 -0.4275
  121MOL    C7543515   4.720   4.684   0.401  0.7488 -0.2418  0.0609
  121MOL    C7643516   4.691   4.585   0.518  0.4941  0.1940 -0.1872
  121MOL    C7743517   4.613   4.630   0.647  0.2863 -0.4527  0.7504
  121MOL    C7843518   4.633   4.532   0.762  0.2071  0.4218  0.2038
  121MOL    C7943519   4.465   4.644   0.621 -0.2166 -0.6561 -0.1330
  121MOL    H8043520   4.795   4.832   0.536 -0.2665 -1.0878 -0.3866
  121MOL    H8143521   4.920   4.760   0.443  0.1840 -1.1713  1.3296
  121MOL    H8243522   4.627   4.732   0.370  0.7270 -0.0830  0.3715
  121MOL    H8343523   4.636   4.498   0.483  0.8862 -0.1088 -0.0530
  121MOL    H8443524   4.787   4.547   0.552  1.1669  1.0555 -1.0807
  121MOL    H8543525   4.651   4.730   0.668 -0.8491 -0.0687  0.9967
  121MOL    H8643526   4.737   4.511   0.785 -0.0591  1.3105  2.3427
  121MOL    H8743527   4.600   4.430   0.743  1.8954 -0.3122  1.0816
  121MOL    H8843528   4.572   4.570   0.844 -1.4703 -0.2517 -0.7044
  121MOL    H8943529   4.430   4.570   0.549 -0.8688 -2.4403  1.9570
  121MOL    H9043530   4.395   4.652   0.704  0.2809 -1.5364  0.3869
  121MOL    H9143531   4.461   4.743   0.577  0.9458 -0.7063 -0.3714
  121MOL    C9243532   4.783   4.598   0.291 -0.9058 -0.1244 -0.2639
  121MOL    C9343533   4.673   4.536   0.193 -0.2924  0.0253  0.7966
  121MOL    C9443534   4.617   4.629   0.085 -0.5679 -0.0241  0.0843
  121MOL    C9543535   4.465   4.662   0.078  0.2602  0.1412 -0.5827
  121MOL    C9643536   4.410   4.745   0.196 -0.5668  0.1185 -0.7595
  121MOL    C9743537   4.421   4.721   7.699  0.3629  0.2585 -0.3173
  121MOL    H9843538   4.835   4.671   0.228 -1.1349  0.0606 -0.2403
  121MOL    H9943539   4.854   4.523   0.326 -2.1901 -1.0623  0.3661
  121MOL   H10043540   4.590   4.514   0.260 -1.2115 -0.9566 -0.6454
  121MOL   H10143541   4.646   4.580   7.744 -3.8864 -1.0791 -0.4259
  121MOL   H10243542   4.660   4.729   0.096  0.3104 -0.3653 -0.1696
  121MOL   H10343543   4.401   4.574   0.088 -1.5572  1.7016  1.9928
  121MOL   H10443544   4.453   4.845   0.195  0.7563 -0.4300 -0.1363
  121MOL   H10543545   4.414   4.696   0.293  1.0435  0.8632 -0.4428
  121MOL   H10643546   4.303   4.749   0.178 -0.6443  2.4126  0.0649
  121MOL   H10743547   4.470   4.681   7.610  0.5421  2.2584 -1.1494
  121MOL   H10843548   4.453   4.826   7.698  1.1603  0.0289  0.2964
  121MOL   H10943549   4.313   4.714   7.692  0.2373  0.8919  0.9239
  121MOL   C11043550   4.709   4.395   0.146 -0.0178 -0.2072 -0.5368
  121MOL   C11143551   4.599   4.316   0.069  0.2162  0.6762  0.1435
  121MOL   C11243552   4.661   4.222   7.713 -0.5597 -0.6389  0.0433
  121MOL   C11343553   4.766   4.112   0.010 -0.6030  0.0456  0.3631
  121MOL   C11443554   4.873   4.077   7.646  0.6138 -0.3258  0.0633
  121MOL   C11543555   4.705   3.972   0.040 -0.2445  0.6039 -0.8190
  121MOL   H11643556   4.746   4.340   0.232  0.4465  0.8118 -0.0752
  121MOL   H11743557   4.791   4.414   0.078  0.0602  1.4928  0.0074
  121MOL   H11843558   4.544   4.395   0.017 -1.9008 -0.8219  0.0597
  121MOL   H11943559   4.708   4.285   7.637  0.1475 -1.5402 -0.2734
  121MOL   H12043560   4.578   4.182   7.655  0.5288 -0.7022 -1.5084
  121MOL   H12143561   4.824   4.145   0.096 -1.4024 -0.0608  0.9451
  121MOL   H12243562   4.922   4.174   7.634  1.4942 -0.9086 -1.0978
  121MOL   H12343563   4.816   4.063   7.554  0.2837  2.9392 -0.2976
  121MOL   H12443564   4.950   4.007   7.678  0.9077  0.2590  0.6640
  121MOL   H12543565   4.643   3.974   0.129  2.9029 -0.1319  1.4812
  121MOL   H12643566   4.780   3.897   0.064 -1.0788 -0.2180 -0.7577
  121MOL   H12743567   4.636   3.928   7.721 -1.4426  0.6950  0.2759
  121MOL   C12843568   4.496   4.243   0.164 -0.8140 -0.9250  0.3104
  121MOL   C12943569   4.367   4.192   0.103 -0.9558  0.4943 -0.3696
  121MOL   C13043570   4.283   4.296   0.033  1.1272  0.0980 -0.4241
  121MOL   C13143571   4.301   4.290   7.631  0.1864 -0.5083  0.7742
  121MOL   C13243572   4.225   4.173   7.572  0.1195 -0.7539 -0.0397
  121MOL   C13343573   4.243   4.427   7.575  0.1496 -0.0849 -0.0915
  121MOL   H13443574   4.467   4.313   0.243 -0.1304  1.2643 -1.3285
  121MOL   H13543575   4.557   4.172   0.219  1.3675 -0.2711 -1.1849
  121MOL   H13643576   4.404   4.118   0.034 -1.2844 -0.1639  0.1509
  121MOL   H13743577   4.178   4.272   0.050  2.0258 -2.1820  2.1386
  121MOL   H13843578   4.292   4.396   0.076 -0.2345  0.4109 -0.8180
  121MOL   H13943579   4.408   4.290   7.612 -0.1052 -0.9835 -0.9285
  121MOL   H14043580   4.119   4.158   7.594 -0.4170  1.8267 -0.7220
  121MOL   H14143581   4.276   4.084   7.610 -1.4182 -0.6301  2.4345
  121MOL   H14243582   4.233   4.175   7.464 -0.3083  1.0939 -0.0573
  121MOL   H14343583   4.269   4.510   7.641  0.5566  1.3347 -1.9850
  121MOL   H14443584   4.288   4.450   7.478 -0.5240  0.8913 -0.1905
  121MOL   H14543585   4.138   4.421   7.546 -0.2016  2.6856  0.4373
  121MOL   C14643586   4.289   4.122   0.219  0.1918 -0.1313  0.5362
  121MOL   C14743587   4.175   4.026   0.171  0.4551  0.6813 -0.4107
  121MOL   C14843588   4.035   4.059   0.227 -0.0369 -0.1605 -0.2172
  121MOL   C14943589   3.910   3.997   0.151 -0.0166  0.4987 -0.2346
  121MOL   C15043590   3.790   4.070   0.220 -0.4267 -0.6706  0.3358
  121MOL   C15143591   3.908   4.026   7.745 -0.2331 -0.2702  0.0927
  121MOL   H15243592   4.248   4.201   0.282  0.3932  1.3469 -1.1727
  121MOL   H15343593   4.355   4.079   0.295  2.6670 -0.7503 -1.8810
  121MOL   H15443594   4.163   4.033   0.063  1.1232 -1.4063 -0.6542
  121MOL   H15543595   4.042   4.036   0.334  2.1601  0.1020 -0.2709
  121MOL   H15643596   4.034   4.168   0.227 -1.2144 -0.1596  0.0933
  121MOL   H15743597   3.904   3.890   0.169  0.3083  0.3851 -0.7913
  121MOL   H15843598   3.807   4.178   0.222  2.0902 -1.0182 -0.2759
  121MOL   H15943599   3.773   4.032   0.321  1.3486 -0.9462  0.5513
  121MOL   H16043600   3.704   4.043   0.159  1.0104 -0.8449 -1.6561
  121MOL   H16143601   3.930   4.132   7.733 -0.4983 -0.2237  0.0299
  121MOL   H16243602   3.813   4.007   7.694 -0.8305  0.4865  0.9189
  121MOL   H16343603   3.981   3.962   7.694  1.3520  0.0094  1.9706
  121MOL   C16443604   4.215   3.880   0.200 -0.3333  0.4255  0.8638
  121MOL   C16543605   4.325   3.814   0.118 -0.2768  0.3554 -0.3350
  121MOL   C16643606   4.403   3.702   0.201  0.9073 -0.2684 -0.0054
  121MOL   C16743607   4.495   3.741   0.312 -0.7112 -0.2279 -0.1387
  121MOL   C16843608   4.442   3.739   0.456 -0.1048  0.4557 -0.0197
  121MOL   C16943609   4.636   3.688   0.307  0.1488 -0.4940  1.0114
  121MOL   H17043610   4.240   3.871   0.306  0.4496 -0.5631  0.6121
  121MOL   H17143611   4.120   3.827   0.198 -0.2995  0.4026 -0.7949
  121MOL   H17243612   4.398   3.888   0.085 -1.5653  1.4280 -0.8476
  121MOL   H17343613   4.346   3.618   0.242  0.5473 -0.4541 -0.8889
  121MOL   H17443614   4.472   3.657   0.130 -1.1234 -1.0233 -1.5406
  121MOL   H17543615   4.524   3.843   0.287  0.6349 -0.0510  1.9801
  121MOL   H17643616   4.507   3.777   0.535 -0.8084  0.5679  0.5055
  121MOL   H17743617   4.415   3.636   0.480 -1.3273  1.1089  1.4678
  121MOL   H17843618   4.353   3.800   0.468  0.4168  0.8437  2.1261
  121MOL   H17943619   4.672   3.694   0.205  0.6456 -1.1490  1.1474
  121MOL   H18043620   4.650   3.587   0.344  0.8939 -0.0363  2.0277
  121MOL   H18143621   4.701   3.765   0.350  3.0403 -1.9258 -0.6160
  121MOL   C18243622   4.269   3.766   7.737 -0.4691  0.0015  0.3777
  121MOL   C18343623   4.188   3.622   7.749 -0.0444 -0.3699  0.9083
  121MOL   C18443624   4.063   3.613   7.659 -1.0201 -0.8641 -0.3096
  121MOL   C18543625   4.087   3.605   7.507 -0.6917 -0.1858  1.0867
  121MOL   C18643626   3.961   3.571   7.420 -0.3367 -0.0687 -0.3866
  121MOL   C18743627   4.148   3.733   7.451  0.5021  0.3942 -0.1641
  121MOL   H18843628   4.358   3.759   7.674 -2.0949  0.4618 -1.9817
  121MOL   H18943629   4.214   3.850   7.697  2.9412  1.8053 -0.7257
  121MOL   H19043630   4.153   3.607   0.099  0.7304  0.4899  1.3074
  121MOL   H19143631   3.992   3.691   7.688  0.6957  0.5102  0.3289
  121MOL   H19243632   4.008   3.520   7.676  0.3113 -1.4425  0.9469
  121MOL   H19343633   4.165   3.533   7.484 -1.1971 -1.1964  2.4246
  121MOL   H19443634   3.989   3.566   7.315 -0.8267  0.3727 -0.5410
  121MOL   H19543635   3.883   3.646   7.433  1.3852  1.6560  0.4232
  121MOL   H19643636   3.907   3.481   7.446 -0.1763 -0.0252  0.1064
  121MOL   H19743637   4.141   3.745   7.343  2.0661  2.4939 -0.0819
  121MOL   H19843638   4.252   3.740   7.485  0.6730  0.0612 -0.6199
  121MOL   H19943639   4.085   3.814   7.489 -0.1412 -0.9634  1.7651
  121MOL   C20043640   4.274   3.496   7.733 -0.9093  0.8068  0.1427
  121MOL   C20143641   4.207   3.355   0.009  0.0968 -0.6305 -0.2481
  121MOL   C20243642   4.165   3.339   0.155  0.4895 -0.0700 -0.2178
  121MOL   C20343643   4.063   3.226   0.184 -0.4275  0.1487 -0.2585
  121MOL   C20443644   4.050   3.187   0.327  0.2001  0.5040 -0.7664
  121MOL   C20543645   3.924   3.268   0.116  0.1999  0.1300 -0.1257
  121MOL   H20643646   4.359   3.503   0.049 -1.0438 -0.2860  0.4278
  121MOL   H20743647   4.312   3.491   7.631 -1.3138  0.1600  0.0245
  121MOL   H20843648   4.119   3.343   7.698 -0.1509  3.3635 -0.7930
  121MOL   H20943649   4.257   3.324   0.212  0.7689  1.2302 -0.3075
  121MOL   H21043650   4.132   3.437   0.189 -0.4537 -0.6941  0.7003
  121MOL   H21143651   4.089   3.134   0.132 -0.9702 -1.1887  1.7804
  121MOL   H21243652   4.148   3.160   0.368  0.6735  0.7137 -1.7489
  121MOL   H21343653   3.994   3.094   0.339  2.6237 -0.9688 -0.5061
  121MOL   H21443654   4.019   3.265   0.397  4.2152  1.2158  0.3771
  121MOL   H21543655   3.924   3.283   0.008  0.3384 -1.0492 -0.2990
  121MOL   H21643656   3.907   3.374   0.131  0.3678  0.3057 -1.1726
  121MOL   H21743657   3.842   3.204   0.150 -0.3331  0.7695 -0.1840
  121MOL   C21843658   4.311   3.245   7.726 -0.4912  0.4932 -0.2823
  121MOL   C21943659   4.338   3.221   7.577  0.4829  0.3338  0.0150
  121MOL   C22043660   4.246   3.104   7.526  1.0011 -0.1261  0.2884
  121MOL   C22143661   4.207   3.117   7.379  0.5075 -0.1986  0.9328
  121MOL   C22243662   4.158   2.989   7.322 -1.4040 -0.0813  0.1570
  121MOL   C22343663   4.107   3.232   7.367  0.1366 -0.8523  0.2607
  121MOL   H22443664   4.411   3.262   0.013 -0.1720 -2.0897  0.1545
  121MOL   H22543665   4.292   3.151   0.027  1.2792  0.5592  0.5083
  121MOL   H22643666   4.323   3.315   7.525 -0.7369  0.2193  0.1572
  121MOL   H22743667   4.288   3.005   7.542  0.0170 -0.8651 -1.5784
  121MOL   H22843668   4.151   3.092   7.578  0.4315 -0.6574 -0.8768
  121MOL   H22943669   4.293   3.152   7.322 -0.4066  1.3090  0.4577
  121MOL   H23043670   4.226   2.908   7.347 -2.1797 -0.8747 -0.2908
  121MOL   H23143671   4.068   2.977   7.382 -1.4139  0.7018  0.3105
  121MOL   H23243672   4.140   2.996   7.215  0.8700  0.1389 -0.2484
  121MOL   H23343673   4.010   3.194   7.399  0.4462 -0.4466  1.7384
  121MOL   H23443674   4.125   3.318   7.431  0.5766 -1.3719  0.8362
  121MOL   H23543675   4.089   3.263   7.265 -0.3368 -1.9331  0.0055
  121MOL   C23643676   4.484   3.175   7.554  0.1220 -0.1042 -0.1605
  121MOL   C23743677   4.597   3.279   7.573 -0.3979  0.4551  0.2070
  121MOL   C23843678   4.595   3.375   7.461 -0.0968 -0.4265  0.4063
  121MOL   C23943679   4.665   3.499   7.492  0.2822  0.6693  0.6926
  121MOL   C24043680   4.722   3.568   7.365 -0.1063 -0.3708  0.2711
  121MOL   C24143681   4.579   3.602   7.574  0.4885 -0.2738 -0.0291
  121MOL   H24243682   4.493   3.151   7.448  0.2584 -0.5332 -0.0495
  121MOL   H24343683   4.501   3.087   7.615  0.2443  0.1909  0.2339
  121MOL   H24443684   4.586   3.320   7.673 -1.5569 -0.7536  0.5849
  121MOL   H24543685   4.491   3.400   7.437 -0.0241  0.2883  0.8282
  121MOL   H24643686   4.636   3.334   7.369  1.4998  1.7100  0.1252
  121MOL   H24743687   4.741   3.481   7.568  2.5878  3.0583 -0.9283
  121MOL   H24843688   4.742   3.675   7.370 -0.3783 -0.3744  1.6868
  121MOL   H24943689   4.645   3.564   7.288 -0.1211  0.3972  0.2426
  121MOL   H25043690   4.803   3.513   7.315 -0.0405  0.1002 -0.1453
  121MOL   H25143691   4.643   3.690   7.581 -0.2828  0.5510 -2.8172
  121MOL   H25243692   4.557   3.563   7.673 -0.1790  0.1541  0.0004
  121MOL   H25343693   4.480   3.620   7.533  0.0201 -0.7893  0.8652
  121MOL   C25443694   4.732   3.191   7.578  0.2170 -0.0326 -0.1641
  121MOL   C25543695   4.806   3.215   7.714 -0.4237 -0.1886 -0.0025
  121MOL   C25643696   4.740   3.123   0.071 -0.5075 -0.3782 -0.0995
  121MOL   C25743697   4.760   3.169   0.218  0.1892  0.1276 -0.8509
  121MOL   C25843698   4.703   3.064   0.317  0.3497  0.8698 -0.0150
  121MOL   C25943699   4.693   3.305   0.243  0.3861 -0.1807  0.7197
  121MOL   H26043700   4.717   3.083   7.577 -0.5399  0.0061  2.5439
  121MOL   H26143701   4.788   3.224   7.490 -0.4966  1.3511 -0.1250
  121MOL   H26243702   4.779   3.315   7.748  2.1009  0.2287  0.8593
  121MOL   H26343703   4.777   3.022   0.055 -0.8237 -0.3815 -0.8133
  121MOL   H26443704   4.632   3.116   0.065 -0.4533 -1.5143  0.1381
  121MOL   H26543705   4.868   3.179   0.227  0.3607 -1.9226 -0.2838
  121MOL   H26643706   4.738   2.961   0.307  0.0772  0.9361 -1.7118
  121MOL   H26743707   4.598   3.052   0.291 -0.1091 -3.0438  3.0133
  121MOL   H26843708   4.720   3.104   0.417 -0.5215  1.6222 -0.1562
  121MOL   H26943709   4.740   3.384   0.185 -1.0414  0.9642  1.0774
  121MOL   H27043710   4.593   3.313   0.200  0.7611 -0.9951 -0.3267
  121MOL   H27143711   4.707   3.335   0.347  0.5699  0.2865  0.5614
  121MOL   C27243712   4.960   3.198   7.709 -0.3009  0.5341 -0.2851
  121MOL   C27343713   5.040   3.323   7.640 -0.3059  0.5773 -1.0270
  121MOL   C27443714   5.044   3.443   7.736 -0.4076  0.2396 -0.0007
  121MOL   C27543715   5.073   3.584   7.691  0.3072 -0.0995 -1.0509
  121MOL   C27643716   5.099   3.682   0.052 -0.6867  0.3845 -0.0831
  121MOL   C27743717   4.958   3.642   7.608 -0.7029  0.4628  0.2693
  121MOL   H27843718   5.006   3.190   0.055 -2.3766 -0.7281  0.6238
  121MOL   H27943719   4.987   3.113   7.648 -0.1581  1.4120 -1.4490
  121MOL   H28043720   4.974   3.349   7.558  0.0013  1.4047 -1.0155
  121MOL   H28143721   5.113   3.421   0.066 -0.1797 -2.0199 -0.7652
  121MOL   H28243722   4.942   3.450   0.021 -0.3773  2.1731 -0.2212
  121MOL   H28343723   5.160   3.579   7.627 -0.2273  0.3380 -1.8216
  121MOL   H28443724   5.005   3.681   0.106  0.3839 -0.8539  1.8299
  121MOL   H28543725   5.184   3.652   0.114 -1.4967 -1.3399  0.2052
  121MOL   H28643726   5.105   3.784   0.015 -1.2287  0.3600 -0.2353
  121MOL   H28743727   4.864   3.638   7.664 -0.5143  1.1485  0.6443
  121MOL   H28843728   4.969   3.744   7.572  2.0170 -0.3476 -1.3239
  121MOL   H28943729   4.941   3.580   7.520  0.6001  1.0564 -0.4070
  121MOL   C29043730   5.174   3.279   7.582 -0.0945 -0.5118 -0.7181
  121MOL   C29143731   5.170   3.210   7.446 -0.1764  0.1591  0.3267
  121MOL   C29243732   5.177   3.319   7.331 -0.1232  0.2211 -0.4836
  121MOL   C29343733   5.131   3.265   7.196  0.3173  0.3785 -0.2197
  121MOL   C29443734   4.984   3.227   7.190 -0.5305 -0.5145 -1.0622
  121MOL   C29543735   5.156   3.377   7.093 -0.1699 -0.0450  1.1548
  121MOL   H29643736   5.250   3.356   7.576  1.1054 -1.3050  3.3692
  121MOL   H29743737   5.210   3.219   7.665 -0.5766  2.3864  1.6502
  121MOL   H29843738   5.077   3.154   7.440  2.3928 -4.3284  0.6781
  121MOL   H29943739   5.279   3.356   7.315  0.3191 -0.9445 -0.3875
  121MOL   H30043740   5.123   3.413   7.341 -0.2607  0.0278  0.6859
  121MOL   H30143741   5.190   3.177   7.170  0.9547  1.1503 -1.4065
  121MOL   H30243742   4.960   3.177   7.095  1.3103 -0.9723 -1.3050
  121MOL   H30343743   4.914   3.307   7.211  1.0792  0.6305  0.0055
  121MOL   H30443744   4.951   3.148   7.257  0.5155 -1.1256 -1.2600
  121MOL   H30543745   5.081   3.456   7.106 -1.5521 -1.6310  3.0653
  121MOL   H30643746   5.139   3.342   6.991  0.7164  4.1929 -0.5534
  121MOL   H30743747   5.256   3.418   7.103 -0.1719  0.3043 -0.1601
  121MOL   C30843748   5.274   3.102   7.434  0.0148  0.0723  0.8277
  121MOL   C30943749   5.254   2.961   7.503 -0.4305 -0.4043  0.2604
  121MOL   C31043750   5.158   2.874   7.424 -0.1946 -0.7348  0.0214
  121MOL   C31143751   5.093   2.761   7.504 -0.5985 -0.3262 -0.3281
  121MOL   C31243752   5.008   2.811   7.623  0.0029 -0.3393 -0.4854
  121MOL   C31343753   5.005   2.669   7.410  0.1508 -0.2383 -0.3365
  121MOL   H31443754   5.277   3.083   7.327  1.0031  3.5534  0.1879
  121MOL   H31543755   5.371   3.143   7.460 -0.1534  1.2374 -0.3521
  121MOL   H31643756   5.212   2.975   7.603 -0.7695 -3.1042  0.5106
  121MOL   H31743757   5.215   2.812   7.355  0.1985 -0.2048 -0.1307
  121MOL   H31843758   5.076   2.930   7.381  0.2261 -0.1846 -0.0661
  121MOL   H31943759   5.175   2.716   7.560  0.6606  3.0036  0.6723
  121MOL   H32043760   5.057   2.872   7.699  0.2777 -1.1042 -0.0538
  121MOL   H32143761   4.968   2.737   7.692 -1.5711 -1.0972 -2.1788
  121MOL   H32243762   4.928   2.878   7.591 -0.4206 -1.2194 -1.2972
  121MOL   H32343763   4.948   2.720   7.332  1.9283  1.5769 -0.5032
  121MOL   H32443764   5.071   2.603   7.354 -1.7971 -1.1206 -1.6727
  121MOL   H32543765   4.940   2.607   7.471  1.2025 -0.7060  0.3154
  121MOL   C32643766   5.399   2.891   7.525  0.3686 -0.4595 -0.5835
  121MOL   C32743767   5.483   2.952   7.635  0.1206  0.0383 -0.1328
  121MOL   C32843768   5.627   2.991   7.602 -0.2191 -0.3807 -0.0284
  121MOL   C32943769   5.702   3.098   7.684 -0.0125  0.3413  0.5187
  121MOL   C33043770   5.847   3.058   7.681 -0.5576  0.5206 -0.4032
  121MOL   C33143771   5.685   3.241   7.623 -0.5228  0.0264  0.5354
  121MOL   H33243772   5.450   2.893   7.429 -1.2373 -0.8400 -1.4591
  121MOL   H33343773   5.378   2.787   7.552  0.2571 -0.5001 -0.8253
  121MOL   H33443774   5.437   3.048   7.658 -0.5611 -0.1314 -0.7561
  121MOL   H33543775   5.679   2.896   7.590 -0.1635 -0.6725  2.2827
  121MOL   H33643776   5.620   3.042   7.506  0.9998 -0.8757 -0.3808
  121MOL   H33743777   5.667   3.100   0.035 -1.6130 -1.8043  0.0617
  121MOL   H33843778   5.853   2.951   7.701 -1.2823  0.4016 -0.7943
  121MOL   H33943779   5.901   3.105   0.011 -0.8112  0.6002 -0.2791
  121MOL   H34043780   5.891   3.079   7.584 -1.0753 -1.1506 -1.0031
  121MOL   H34143781   5.583   3.279   7.630 -0.9926 -0.9646 -0.6234
  121MOL   H34243782   5.756   3.307   7.672 -0.1694 -2.7611  3.9959
  121MOL   H34343783   5.708   3.251   7.517  0.3376 -0.3673  0.6824
  121MOL   C34443784   5.480   2.870   0.010  0.1103  0.1481 -0.1004
  121MOL   C34543785   5.348   2.865   0.086  0.2058  0.0850 -0.5854
  121MOL   C34643786   5.358   2.797   0.226  0.0427  0.5463  0.8405
  121MOL   C34743787   5.226   2.795   0.305  0.0628  1.1185 -0.2752
  121MOL   C34843788   5.235   2.740   0.443 -0.2587  0.3148  0.0340
  121MOL   C34943789   5.114   2.714   0.232 -0.0919 -0.6241 -0.0146
  121MOL   H35043790   5.565   2.910   0.066 -1.2903  2.3162  0.5269
  121MOL   H35143791   5.510   2.770   7.730 -0.5311  0.3141 -1.2044
  121MOL   H35243792   5.278   2.815   0.019  3.2022 -1.7994 -2.3897
  121MOL   H35343793   5.380   2.693   0.202 -1.3703  0.6687 -1.0893
  121MOL   H35443794   5.439   2.836   0.287  0.7507  0.9192 -0.3253
  121MOL   H35543795   5.201   2.901   0.309 -3.4276  0.3034  2.9021
  121MOL   H35643796   5.328   2.767   0.492  0.4006  0.2249 -1.1543
  121MOL   H35743797   5.151   2.780   0.501 -0.8264 -1.0899  0.1866
  121MOL   H35843798   5.227   2.632   0.453 -0.0335  0.2359 -0.5803
  121MOL   H35943799   5.141   2.608   0.223  0.1934 -0.4200 -1.6723
  121MOL   H36043800   5.091   2.744   0.130  3.2727 -0.1205 -0.6841
  121MOL   H36143801   5.016   2.695   0.276  0.0437 -0.4968  0.3430
  121MOL   H36243802   5.316   2.969   0.088  0.0050  0.0534 -1.7186
  122MOL     C143803   4.429   3.710   4.234 -0.0376  0.3673  1.1444
  122MOL     C243804   4.503   3.605   4.324 -0.1069 -0.0025 -0.8935
  122MOL     C343805   4.411   3.490   4.369  0.0903  0.2185  0.2233
  122MOL     C443806   4.367   3.397   4.254 -0.5512  0.0448  0.6360
  122MOL     C543807   4.266   3.291   4.295 -0.5538 -0.4241 -0.1252
  122MOL     C643808   4.472   3.320   4.171  0.5663 -0.2225 -0.2823
  122MOL     H743809   4.322   3.720   4.248  0.1774  0.5305  2.7257
  122MOL     H843810   4.470   3.810   4.247 -0.0178  0.3099  1.5250
  122MOL     H943811   4.588   3.572   4.263 -1.8021  0.0362 -3.3591
  122MOL    H1043812   4.471   3.431   4.438 -2.1480 -0.0396  2.0271
  122MOL    H1143813   4.334   3.513   4.443  0.3249 -0.5819  0.7254
  122MOL    H1243814   4.314   3.460   4.183  0.4109  0.9918  0.7420
  122MOL    H1343815   4.238   3.227   4.211  1.3213 -1.6786  0.1705
  122MOL    H1443816   4.301   3.230   4.378 -3.2633  0.6601  1.8602
  122MOL    H1543817   4.174   3.345   4.318 -0.2504  0.6693 -1.4022
  122MOL    H1643818   4.490   3.217   4.202 -1.3840 -0.7250 -0.7275
  122MOL    H1743819   4.567   3.368   4.151  0.0780  1.5118  1.4015
  122MOL    H1843820   4.435   3.295   4.072 -0.6449 -0.4750  0.2116
  122MOL    H1943821   4.443   3.671   4.133 -4.0239 -0.7467  0.9349
  122MOL    C2043822   4.578   3.672   4.445  0.1535 -0.2628  0.1207
  122MOL    C2143823   4.708   3.599   4.505 -0.3107 -0.0282  0.0993
  122MOL    C2243824   4.828   3.616   4.410 -0.2588  0.3659  0.2455
  122MOL    C2343825   4.941   3.517   4.452 -0.7021 -0.4693  0.1230
  122MOL    C2443826   4.903   3.374   4.399 -0.3692 -0.0853 -0.0117
  122MOL    C2543827   5.073   3.560   4.398 -0.2295  0.0532 -0.3689
  122MOL    H2643828   4.595   3.777   4.425 -0.8200 -0.4951 -2.0632
  122MOL    H2743829   4.499   3.672   4.521 -0.5040 -2.5649 -0.5195
  122MOL    H2843830   4.681   3.494   4.495  2.1093 -0.9159  2.2820
  122MOL    H2943831   4.864   3.719   4.411  2.0877 -0.4207  0.9184
  122MOL    H3043832   4.797   3.599   4.307 -2.0885  0.7766  0.7106
  122MOL    H3143833   4.954   3.508   4.560 -1.2643  1.2261  0.3523
  122MOL    H3243834   4.970   3.291   4.423 -1.3071 -0.3526  1.7552
  122MOL    H3343835   4.901   3.374   4.290 -2.4745 -1.4363 -0.0177
  122MOL    H3443836   4.802   3.344   4.428 -0.6693  1.3429  0.4625
  122MOL    H3543837   5.076   3.564   4.289  0.0833 -0.4560 -0.3817
  122MOL    H3643838   5.099   3.655   4.444 -0.0791  0.3690 -1.0955
  122MOL    H3743839   5.145   3.485   4.432 -0.1066  1.0401  1.5916
  122MOL    C3843840   4.725   3.630   4.656 -0.3743  0.1468  0.0421
  122MOL    C3943841   4.729   3.501   4.738  0.3498  0.5248  0.2748
  122MOL    C4043842   4.594   3.426   4.746 -0.1119  0.4416  0.5027
  122MOL    C4143843   4.598   3.275   4.767 -0.2128  0.4668 -0.4573
  122MOL    C4243844   4.660   3.200   4.648 -0.0834  0.7001 -0.4147
  122MOL    C4343845   4.462   3.219   4.804 -0.4902 -0.1703  0.7472
  122MOL    H4443846   4.649   3.693   4.701  0.0420 -0.6098  1.8575
  122MOL    H4543847   4.813   3.691   4.675  0.5499 -0.6858 -1.4278
  122MOL    H4643848   4.793   3.429   4.688 -1.0025 -1.9684  1.9947
  122MOL    H4743849   4.529   3.453   4.663  2.4065 -0.6261 -1.8998
  122MOL    H4843850   4.546   3.459   4.838  2.2973  2.1265  1.2245
  122MOL    H4943851   4.663   3.268   4.854  0.0350 -2.2874 -0.8382
  122MOL    H5043852   4.638   3.094   4.662  1.0188  0.3821 -1.0882
  122MOL    H5143853   4.607   3.234   4.558 -0.0741  2.2990  0.1731
  122MOL    H5243854   4.767   3.207   4.633 -0.1095 -2.4380 -2.6795
  122MOL    H5343855   4.399   3.291   4.856 -0.8892  0.4526 -0.5921
  122MOL    H5443856   4.460   3.122   4.856  0.1864 -0.6936 -0.1903
  122MOL    H5543857   4.402   3.204   4.714  2.4325 -0.8993 -1.1578
  122MOL    C5643858   4.790   3.525   4.873  0.1192  0.2113  0.8587
  122MOL    C5743859   4.937   3.486   4.886 -0.3614  0.8063  0.0442
  122MOL    C5843860   4.941   3.334   4.890  0.6374  0.3105 -0.2807
  122MOL    C5943861   5.080   3.271   4.876 -0.2586 -0.2217  0.0934
  122MOL    C6043862   5.126   3.270   4.728 -0.5242 -1.1320 -0.5160
  122MOL    C6143863   5.083   3.130   4.924  0.3720 -0.0039 -0.3825
  122MOL    H6243864   4.732   3.488   4.958 -1.2977  0.6641  0.1164
  122MOL    H6343865   4.768   3.629   4.895 -0.2683  0.0186  1.4008
  122MOL    H6443866   5.004   3.522   4.809  0.8453 -0.6504  0.3813
  122MOL    H6543867   4.903   3.304   4.988 -1.2304 -0.9650 -1.3675
  122MOL    H6643868   4.875   3.280   4.822  1.6086 -0.6526 -0.4830
  122MOL    H6743869   5.153   3.322   4.939  1.3941 -3.9558  1.3330
  122MOL    H6843870   5.072   3.201   4.663  1.3354 -2.6763 -0.4633
  122MOL    H6943871   5.233   3.249   4.724 -0.4728 -0.5095 -3.2881
  122MOL    H7043872   5.115   3.371   4.687  1.4563  0.2564  2.1469
  122MOL    H7143873   5.045   3.130   5.026 -2.5732 -0.7141 -1.4453
  122MOL    H7243874   5.181   3.083   4.939 -0.3530 -1.9008 -1.4185
  122MOL    H7343875   5.026   3.059   4.865  0.0380 -1.0958  1.2156
  122MOL    C7443876   4.996   3.542   5.020 -0.5089 -0.5075 -0.6289
  122MOL    C7543877   5.112   3.639   5.009  0.3431 -0.0890  0.0442
  122MOL    C7643878   5.213   3.607   5.120  0.1461 -0.2751 -0.1843
  122MOL    C7743879   5.175   3.641   5.262  0.5300 -0.6284 -0.0218
  122MOL    C7843880   5.240   3.772   5.311 -0.1635 -0.0277  0.2547
  122MOL    C7943881   5.210   3.540   5.365 -0.3567  0.7058 -0.6368
  122MOL    H8043882   5.032   3.455   5.076  0.9000  0.8586  0.6037
  122MOL    H8143883   4.926   3.585   5.092  1.7217  0.5853  0.9102
  122MOL    H8243884   5.171   3.620   4.920 -0.1114  1.6198 -0.6470
  122MOL    H8343885   5.235   3.500   5.112  1.0492 -0.0530 -0.8005
  122MOL    H8443886   5.309   3.654   5.094 -0.7628 -0.1162 -3.5262
  122MOL    H8543887   5.067   3.650   5.268  0.6080 -0.5389  1.7268
  122MOL    H8643888   5.223   3.796   5.416 -1.0688  0.4446  0.0041
  122MOL    H8743889   5.204   3.867   5.270 -1.9075 -0.6846  0.2109
  122MOL    H8843890   5.348   3.785   5.306 -0.2502  1.3898  1.4846
  122MOL    H8943891   5.147   3.451   5.354  0.9292 -0.7950  3.2397
  122MOL    H9043892   5.314   3.510   5.369 -0.4253  0.6887  1.3790
  122MOL    H9143893   5.177   3.579   5.461  1.6297  0.2337  0.2477
  122MOL    C9243894   5.058   3.778   5.005 -0.0097 -0.3501 -0.7249
  122MOL    C9343895   5.128   3.870   4.904 -0.2824 -1.2726 -0.3386
  122MOL    C9443896   5.030   3.976   4.859  0.1564 -0.3383  0.1650
  122MOL    C9543897   4.922   3.930   4.757 -0.9062 -0.0503 -0.0677
  122MOL    C9643898   4.808   4.033   4.743 -0.1175 -0.2338  0.1505
  122MOL    C9743899   4.991   3.889   4.626  0.6575 -0.5802 -0.7075
  122MOL    H9843900   4.952   3.769   4.982  0.2429 -1.9277 -1.3230
  122MOL    H9943901   5.049   3.820   5.106  1.2766 -0.7261 -0.4420
  122MOL   H10043902   5.171   3.806   4.827  1.3959 -0.5023 -0.0812
  122MOL   H10143903   5.079   4.064   4.816  2.6408 -2.1378 -0.7782
  122MOL   H10243904   4.975   4.020   4.943  1.7003  2.5090 -0.2366
  122MOL   H10343905   4.883   3.837   4.799 -1.1104 -0.7934 -1.8386
  122MOL   H10443906   4.728   3.988   4.685  2.1157  0.5378 -3.6605
  122MOL   H10543907   4.830   4.126   4.690  0.8885 -1.3435 -1.4060
  122MOL   H10643908   4.753   4.053   4.836 -1.5648 -1.3285 -0.4566
  122MOL   H10743909   4.912   3.878   4.552 -0.7396  1.8397  0.3559
  122MOL   H10843910   5.049   3.798   4.641  0.9666 -0.4532 -1.1374
  122MOL   H10943911   5.056   3.972   4.598  0.9594 -0.9874 -1.2235
  122MOL   C11043912   5.257   3.939   4.969  0.5256  0.4602 -0.0314
  122MOL   C11143913   5.332   4.051   4.893  0.3675  0.0745  0.6269
  122MOL   C11243914   5.464   4.096   4.969 -0.5730 -0.1315  1.0712
  122MOL   C11343915   5.486   4.250   4.972 -0.3827 -0.0323 -0.5841
  122MOL   C11443916   5.635   4.280   4.958  0.6943 -0.3118 -0.1443
  122MOL   C11543917   5.431   4.307   5.101  0.4510  0.0193  0.2174
  122MOL   H11643918   5.336   3.867   4.991  0.9014  0.9640  0.3085
  122MOL   H11743919   5.230   3.988   5.063 -1.6023 -0.8778  0.0821
  122MOL   H11843920   5.265   4.137   4.907 -0.3068 -0.1614 -1.0343
  122MOL   H11943921   5.553   4.045   4.933 -0.2524  1.1808 -0.0495
  122MOL   H12043922   5.455   4.063   5.072 -1.9653  2.3893  1.8086
  122MOL   H12143923   5.432   4.310   4.898  1.3315  3.4142  0.8125
  122MOL   H12243924   5.671   4.298   4.857  0.5536 -1.6989 -0.4576
  122MOL   H12343925   5.705   4.212   5.008 -1.1357 -0.7571  1.9015
  122MOL   H12443926   5.658   4.377   5.003 -0.6739 -0.2533  0.4549
  122MOL   H12543927   5.430   4.416   5.105  2.5161  0.1399 -1.3458
  122MOL   H12643928   5.490   4.275   5.187 -1.6773  0.9231  2.0315
  122MOL   H12743929   5.328   4.281   5.125  0.3393 -0.4929 -0.7748
  122MOL   C12843930   5.349   4.020   4.739 -0.1719  0.0156 -0.1487
  122MOL   C12943931   5.394   4.142   4.653  0.3903 -0.7944  0.1897
  122MOL   C13043932   5.293   4.251   4.640  0.6430  0.0054 -0.5689
  122MOL   C13143933   5.336   4.384   4.576 -0.0883 -0.2768  0.0220
  122MOL   C13243934   5.231   4.494   4.607 -0.5744  0.0814  0.1435
  122MOL   C13343935   5.473   4.434   4.623  0.2119  0.3846  0.1088
  122MOL   H13443936   5.251   3.990   4.703 -0.6871 -0.2378  1.4140
  122MOL   H13543937   5.423   3.940   4.736  0.5735  0.6669  0.5093
  122MOL   H13643938   5.479   4.188   4.704 -1.6439  2.4074  0.8465
  122MOL   H13743939   5.212   4.215   4.577 -0.6806  0.0992  1.0374
  122MOL   H13843940   5.242   4.282   4.732  1.7126  0.7741 -0.2265
  122MOL   H13943941   5.342   4.374   4.468  4.4090 -0.7336  0.2153
  122MOL   H14043942   5.127   4.468   4.588 -0.9053  0.6514  1.1956
  122MOL   H14143943   5.272   4.577   4.550  0.7460  0.5524  1.7466
  122MOL   H14243944   5.245   4.524   4.710  1.7585  4.6465 -1.3770
  122MOL   H14343945   5.556   4.373   4.589 -0.0207  0.0446  0.1542
  122MOL   H14443946   5.481   4.527   4.566 -1.2135 -0.9592 -2.3503
  122MOL   H14543947   5.465   4.453   4.730 -1.0158  0.8132 -0.0495
  122MOL   C14643948   5.451   4.094   4.521  0.3824 -0.3301  0.7776
  122MOL   C14743949   5.573   3.998   4.523  0.4714 -0.7468 -0.2786
  122MOL   C14843950   5.706   4.071   4.489 -0.3203  0.5697  0.5505
  122MOL   C14943951   5.777   4.136   4.612 -0.1347 -0.4396  1.0846
  122MOL   C15043952   5.849   4.028   4.687  0.4997  0.1725  0.4749
  122MOL   C15143953   5.858   4.267   4.586  0.1836 -0.4203 -0.5657
  122MOL   H15243954   5.482   4.182   4.464 -1.0083  0.3488  1.0592
  122MOL   H15343955   5.362   4.052   4.474  0.7534 -1.9897  1.5225
  122MOL   H15443956   5.580   3.953   4.622  0.4967 -0.8884 -0.3443
  122MOL   H15543957   5.777   3.996   4.455 -1.9739 -0.3763 -0.8881
  122MOL   H15643958   5.694   4.150   4.415  0.4693  1.9568  1.8602
  122MOL   H15743959   5.690   4.167   4.671 -0.1109  1.0780  0.3617
  122MOL   H15843960   5.776   3.953   4.720  1.0002 -0.8426 -0.6849
  122MOL   H15943961   5.900   4.058   4.779  0.9062 -2.8965  1.3121
  122MOL   H16043962   5.921   3.968   4.631 -1.2682 -0.3552 -1.2984
  122MOL   H16143963   5.879   4.313   4.682  0.8982  0.5760 -1.1893
  122MOL   H16243964   5.803   4.339   4.525  2.4819  0.6712 -1.4055
  122MOL   H16343965   5.953   4.239   4.541 -0.0913  0.0336 -1.4455
  122MOL   C16443966   5.551   3.876   4.428  0.0537 -0.5279 -0.3371
  122MOL   C16543967   5.653   3.752   4.446  0.4131 -0.5211  0.6950
  122MOL   C16643968   5.639   3.669   4.572 -0.1309 -0.1888  0.1727
  122MOL   C16743969   5.541   3.555   4.586  0.0896  0.4255  0.6031
  122MOL   C16843970   5.549   3.500   4.728  0.4773  0.1113  0.6099
  122MOL   C16943971   5.398   3.600   4.552  0.0059 -0.0056 -0.7297
  122MOL   H17043972   5.453   3.836   4.453 -0.2850  1.1453  1.0875
  122MOL   H17143973   5.556   3.913   4.326 -2.3634  0.3416 -0.1695
  122MOL   H17243974   5.754   3.792   4.446  0.0956  0.2966 -1.7553
  122MOL   H17343975   5.737   3.624   4.584  1.9185  4.4621  2.0755
  122MOL   H17443976   5.632   3.731   4.662  1.7333 -1.3885  1.1868
  122MOL   H17543977   5.570   3.483   4.510  0.4690  0.3104  0.8583
  122MOL   H17643978   5.650   3.477   4.763  0.2030 -2.5718 -0.2169
  122MOL   H17743979   5.493   3.407   4.720 -1.1848  1.2810 -1.8571
  122MOL   H17843980   5.494   3.561   4.799  0.3426  0.9295 -0.1865
  122MOL   H17943981   5.374   3.608   4.446  1.1092  1.6839 -0.8713
  122MOL   H18043982   5.359   3.688   4.603 -0.6775 -0.5058 -0.3783
  122MOL   H18143983   5.326   3.527   4.590 -2.3016  2.8782  0.7061
  122MOL   C18243984   5.653   3.660   4.322  0.2621 -0.2555 -0.1702
  122MOL   C18343985   5.725   3.725   4.207  0.0910 -0.3264 -0.3731
  122MOL   C18443986   5.879   3.711   4.213 -0.7593  0.0349  0.1507
  122MOL   C18543987   5.971   3.798   4.133 -0.2962  0.4550 -0.0464
  122MOL   C18643988   5.985   3.936   4.198  0.1464  0.3583  0.4699
  122MOL   C18743989   6.111   3.733   4.110  0.1357  0.7195 -0.2204
  122MOL   H18843990   5.548   3.641   4.303  0.1100  0.2314  0.1929
  122MOL   H18943991   5.693   3.560   4.339 -0.3698 -0.1419  2.1688
  122MOL   H19043992   5.695   3.830   4.204 -1.8327 -0.8916 -1.5900
  122MOL   H19143993   5.896   3.607   4.186 -3.6592 -0.7955  1.3767
  122MOL   H19243994   5.922   3.707   4.313 -0.9478  3.9456  0.4887
  122MOL   H19343995   5.934   3.809   4.032  2.1994  1.2371 -0.9273
  122MOL   H19443996   6.013   3.930   4.303 -1.8555 -2.5173  0.9051
  122MOL   H19543997   5.884   3.978   4.200 -0.1985 -0.4333  0.0493
  122MOL   H19643998   6.044   4.007   4.139 -2.8966  2.9637  0.4016
  122MOL   H19743999   6.141   3.669   4.193  0.8761 -1.0429 -1.8161
  122MOL   H19844000   6.192   3.806   4.100 -0.1619  0.7250 -2.9961
  122MOL   H19944001   6.118   3.677   4.017 -0.7480  1.9332 -1.0289
  122MOL   C20044002   5.674   3.674   4.068  0.0061 -0.6200 -0.2612
  122MOL   C20144003   5.553   3.747   4.004 -0.2539  0.5487  0.6738
  122MOL   C20244004   5.602   3.893   3.954  0.2213 -0.0723  0.2692
  122MOL   C20344005   5.671   3.893   3.815  0.1555 -0.1764  0.0863
  122MOL   C20444006   5.564   3.869   3.693  0.5711  0.2937  0.7145
  122MOL   C20544007   5.736   4.027   3.799 -0.7969  0.0494 -0.2463
  122MOL   H20644008   5.656   3.567   4.060 -0.0047 -0.5640 -0.9970
  122MOL   H20744009   5.745   3.681   3.985 -1.1204 -1.6900 -1.3392
  122MOL   H20844010   5.523   3.685   3.919 -2.2214  0.5420  1.3330
  122MOL   H20944011   5.510   3.951   3.942  0.3323  0.0409 -0.0498
  122MOL   H21044012   5.666   3.944   4.025 -0.5752  2.5390 -0.8166
  122MOL   H21144013   5.733   3.804   3.813 -0.1360 -0.3598 -0.8404
  122MOL   H21244014   5.549   3.761   3.685 -1.0291  0.5628 -0.1351
  122MOL   H21344015   5.617   3.878   3.598  1.6172 -0.5425  1.1962
  122MOL   H21444016   5.468   3.915   3.712  0.4680  0.1812  0.4770
  122MOL   H21544017   5.796   4.037   3.709 -0.1048  2.6367  0.4893
  122MOL   H21644018   5.796   4.065   3.881 -1.9873 -1.7108  1.5182
  122MOL   H21744019   5.651   4.094   3.789 -0.1002  0.5864 -2.7506
  122MOL   C21844020   5.424   3.750   4.093 -0.6188 -0.2274  0.3428
  122MOL   C21944021   5.291   3.771   4.012  0.0632 -1.0869 -0.5552
  122MOL   C22044022   5.199   3.863   4.097 -0.1432  0.2425 -0.4030
  122MOL   C22144023   5.244   4.006   4.092  0.2509 -0.1934 -0.2135
  122MOL   C22244024   5.227   4.080   3.967  0.0462  0.0604  0.4189
  122MOL   C22344025   5.169   4.079   4.205 -0.0888 -0.3094 -0.3838
  122MOL   H22444026   5.408   3.655   4.144 -0.6863 -0.4297 -0.0513
  122MOL   H22544027   5.446   3.827   4.167  3.5513 -1.0802  0.1192
  122MOL   H22644028   5.336   3.812   3.922 -0.4625  1.3074  0.2376
  122MOL   H22744029   5.093   3.844   4.084 -0.2972  0.3153  0.6995
  122MOL   H22844030   5.218   3.829   4.199  0.9596  0.9997 -0.3450
  122MOL   H22944031   5.350   4.006   4.118 -0.8498  2.5480  5.0875
  122MOL   H23044032   5.271   4.019   3.887  1.2944 -0.6174  1.5967
  122MOL   H23144033   5.122   4.095   3.940  0.2981  2.8667  0.9482
  122MOL   H23244034   5.267   4.181   3.965  0.2549 -0.0286 -0.9129
  122MOL   H23344035   5.060   4.083   4.197 -0.1364 -1.4196 -0.2623
  122MOL   H23444036   5.187   4.033   4.302  0.1533  0.6633  0.0406
  122MOL   H23544037   5.193   4.186   4.210  0.0327 -0.4132  1.8315
  122MOL   C23644038   5.226   3.640   3.970 -1.3633 -0.6886 -0.7002
  122MOL   C23744039   5.128   3.651   3.850  0.6962  0.4789 -0.2613
  122MOL   C23844040   5.022   3.539   3.858 -0.0656  0.3410  0.8510
  122MOL   C23944041   4.924   3.536   3.986 -0.5297  0.5148  0.2474
  122MOL   C24044042   4.821   3.651   3.969  0.0200 -0.3630  0.5278
  122MOL   C24144043   4.854   3.396   4.001 -0.5309 -0.0118 -0.3513
  122MOL   H24244044   5.178   3.588   4.052 -2.6785  1.5188 -0.0354
  122MOL   H24344045   5.304   3.572   3.938 -0.2452 -1.2199  2.9350
  122MOL   H24444046   5.077   3.748   3.854  0.5539  0.4353 -0.9482
  122MOL   H24544047   5.090   3.454   3.863 -2.0524 -1.4129 -0.9134
  122MOL   H24644048   4.966   3.531   3.765 -0.2910 -2.9993  1.1929
  122MOL   H24744049   4.981   3.562   4.075 -0.6541 -1.2944  0.8835
  122MOL   H24844050   4.868   3.749   3.960 -0.4835 -0.3233 -1.7106
  122MOL   H24944051   4.773   3.659   4.067  1.0695 -0.5958  1.0806
  122MOL   H25044052   4.741   3.626   3.901  0.3280  0.0286  0.0201
  122MOL   H25144053   4.778   3.425   4.074  2.6055  1.4792  2.4786
  122MOL   H25244054   4.934   3.330   4.037 -0.2704 -0.1263 -1.1436
  122MOL   H25344055   4.800   3.359   3.914 -3.0454  0.1468  1.1041
  122MOL   C25444056   5.211   3.643   3.721 -0.2065  0.2324  0.0849
  122MOL   C25544057   5.139   3.675   3.592 -0.0147 -0.9122 -0.3692
  122MOL   C25644058   5.181   3.816   3.538 -0.4707 -0.4488  0.2681
  122MOL   C25744059   5.150   3.935   3.627  0.0169 -0.8281 -0.2036
  122MOL   C25844060   4.994   3.959   3.650  0.1556  0.4140  0.0609
  122MOL   C25944061   5.214   4.066   3.578  0.6531 -0.0732  0.5154
  122MOL   H26044062   5.295   3.713   3.724 -0.1725  0.2682 -1.3003
  122MOL   H26144063   5.243   3.540   3.710  0.5396  0.3873  0.7945
  122MOL   H26244064   5.032   3.674   3.613 -0.1645 -0.2071 -1.0670
  122MOL   H26344065   5.153   3.831   3.434  0.9305 -0.1258 -0.0772
  122MOL   H26444066   5.286   3.797   3.515 -0.7913 -1.9977  0.0341
  122MOL   H26544067   5.205   3.899   3.714  0.3286  0.5008  0.1613
  122MOL   H26644068   4.950   3.968   3.550  0.1271  2.1442  0.2108
  122MOL   H26744069   4.968   4.049   3.705 -1.5699 -0.6221  0.9799
  122MOL   H26844070   4.952   3.876   3.706  3.1410 -1.4786 -0.4159
  122MOL   H26944071   5.152   4.120   3.507 -0.9592 -0.8636  1.2761
  122MOL   H27044072   5.224   4.130   3.666 -1.1783  0.2410  0.5130
  122MOL   H27144073   5.307   4.041   3.526  0.2599 -1.8471  0.6274
  122MOL   C27244074   5.160   3.558   3.483  0.5903 -0.4446  0.2491
  122MOL   C27344075   5.075   3.576   3.359  0.2425 -0.4595  0.2253
  122MOL   C27444076   5.166   3.629   3.252  0.1028  0.9348 -0.9534
  122MOL   C27544077   5.108   3.657   3.117 -0.0126 -0.8214 -0.1475
  122MOL   C27644078   5.220   3.654   3.006  0.2135  0.7251  0.1684
  122MOL   C27744079   5.050   3.798   3.111 -0.0964  0.1203  0.0511
  122MOL   H27844080   5.266   3.539   3.465  0.6081 -1.1397  1.0580
  122MOL   H27944081   5.129   3.466   3.532 -1.4799  0.0679 -0.0652
  122MOL   H28044082   4.999   3.652   3.377  0.9789  0.7726 -1.7147
  122MOL   H28144083   5.248   3.557   3.244 -0.8138 -0.3231  0.7129
  122MOL   H28244084   5.229   3.712   3.284 -0.1309  0.7497  0.0014
  122MOL   H28344085   5.025   3.593   3.088 -0.2582 -0.1002 -1.0738
  122MOL   H28444086   5.303   3.722   3.027  0.9686  0.4181 -1.6615
  122MOL   H28544087   5.265   3.555   2.998  0.8314  0.9972  0.1976
  122MOL   H28644088   5.170   3.679   2.913 -1.5107 -0.6476  0.7109
  122MOL   H28744089   4.974   3.805   3.033 -0.3117  0.4003  0.2853
  122MOL   H28844090   5.009   3.823   3.209  0.5295  2.3419 -0.2156
  122MOL   H28944091   5.124   3.876   3.093  1.4257 -0.8126  2.1413
  122MOL   C29044092   5.012   3.441   3.319  0.1934  0.7447  0.3180
  122MOL   C29144093   4.887   3.385   3.389  0.2593 -0.0864  0.1347
  122MOL   C29244094   4.764   3.471   3.373  0.2457 -0.0057  0.3270
  122MOL   C29344095   4.653   3.473   3.484  0.8632  0.3393  0.2349
  122MOL   C29444096   4.685   3.522   3.626 -0.1464 -1.1415  0.7073
  122MOL   C29544097   4.528   3.555   3.430  0.4197 -0.6061  1.1585
  122MOL   H29644098   4.983   3.450   3.215 -0.3818 -1.2604  0.2745
  122MOL   H29744099   5.084   3.361   3.305  0.7821  1.5956 -1.6079
  122MOL   H29844100   4.913   3.393   3.495 -2.9633 -1.2839  1.0526
  122MOL   H29944101   4.725   3.449   3.273  0.7784  0.6390 -0.0281
  122MOL   H30044102   4.797   3.575   3.359  1.1303 -0.5029 -1.5018
  122MOL   H30144103   4.638   3.365   3.479 -0.1912  0.5433 -1.2933
  122MOL   H30244104   4.740   3.616   3.627 -2.5546  0.3059  1.7276
  122MOL   H30344105   4.743   3.453   3.687 -1.5351 -2.0259  1.0451
  122MOL   H30444106   4.594   3.551   3.679 -0.6656 -2.3683  0.4808
  122MOL   H30544107   4.435   3.542   3.485 -0.7926 -0.8503 -0.9080
  122MOL   H30644108   4.495   3.513   3.335 -0.1511 -3.5265  2.6019
  122MOL   H30744109   4.555   3.659   3.411 -1.0528 -0.1409  1.5685
  122MOL   C30844110   4.859   3.238   3.349  0.2441 -0.3614 -0.2937
  122MOL   C30944111   4.943   3.138   3.438 -0.8929 -0.5432  0.7755
  122MOL   C31044112   4.874   3.115   3.569  0.1776  0.2502  0.8504
  122MOL   C31144113   4.968   3.066   3.682  0.2986  0.5579 -0.4993
  122MOL   C31244114   5.075   3.167   3.724 -0.2052 -0.5178  0.1449
  122MOL   C31344115   4.887   3.033   3.803  0.4153 -0.2930 -0.6462
  122MOL   H31444116   4.755   3.208   3.358 -0.1416  0.7739 -0.9579
  122MOL   H31544117   4.885   3.216   3.246  1.9913 -1.9910  0.4471
  122MOL   H31644118   5.043   3.181   3.451 -0.8191 -0.1639 -0.9759
  122MOL   H31744119   4.790   3.048   3.553 -0.1825  0.6250  1.1808
  122MOL   H31844120   4.843   3.217   3.593 -0.2926  0.1084  0.8438
  122MOL   H31944121   5.013   2.970   3.655 -0.7002 -0.1292  0.2673
  122MOL   H32044122   5.026   3.259   3.754 -1.4224 -1.5356  1.3535
  122MOL   H32144123   5.141   3.187   3.639  1.3305  1.1431  1.6981
  122MOL   H32244124   5.133   3.131   3.809 -0.8159  1.4887  1.4392
  122MOL   H32344125   4.943   2.981   3.880  0.5264 -0.5324 -0.8898
  122MOL   H32444126   4.831   3.121   3.837  1.2827  0.0916 -0.2093
  122MOL   H32544127   4.815   2.966   3.757 -0.0985  1.1001 -1.9425
  122MOL   C32644128   4.963   2.999   3.364  0.5281  0.1674  0.0201
  122MOL   C32744129   5.072   3.010   3.247 -0.3172  0.2828  0.2344
  122MOL   C32844130   5.005   2.954   3.121 -0.9100 -0.3253  0.3075
  122MOL   C32944131   5.074   3.005   2.996  0.4059 -0.7981  0.2909
  122MOL   C33044132   5.089   2.898   2.887 -0.5035  0.4570  0.4190
  122MOL   C33144133   5.015   3.131   2.927 -0.3395  0.6094  0.2598
  122MOL   H33244134   4.869   2.956   3.328  1.2083 -0.7599 -0.6904
  122MOL   H33344135   5.000   2.930   3.439 -1.1681 -0.8940 -0.0752
  122MOL   H33444136   5.108   3.111   3.230 -1.2384  0.4763 -0.6518
  122MOL   H33544137   5.009   2.846   3.126  3.7195 -0.3453 -1.2460
  122MOL   H33644138   4.900   2.984   3.119 -0.6672  0.8067  2.2799
  122MOL   H33744139   5.179   3.016   3.023  0.3362  0.9054 -0.0803
  122MOL   H33844140   4.991   2.868   2.852 -0.6247  2.5035 -1.0523
  122MOL   H33944141   5.140   2.809   2.927 -1.2239 -1.1276 -2.0995
  122MOL   H34044142   5.132   2.933   2.793 -1.8672 -0.7945 -0.6886
  122MOL   H34144143   5.097   3.183   2.876  0.3690 -0.6103  0.1427
  122MOL   H34244144   4.929   3.116   2.862 -1.0411 -0.9506  1.5352
  122MOL   H34344145   4.976   3.196   3.006 -0.0753  0.2910  0.6545
  122MOL   C34444146   5.200   2.923   3.269  0.0812  0.0004  0.3889
  122MOL   C34544147   5.297   2.957   3.383 -0.2454  0.4378 -0.0313
  122MOL   C34644148   5.398   2.849   3.410  0.8941  0.0936  0.5423
  122MOL   C34744149   5.494   2.858   3.533  0.3140  0.7064 -0.5456
  122MOL   C34844150   5.419   2.882   3.665  0.6142 -0.1118  0.4088
  122MOL   C34944151   5.596   2.969   3.504 -0.2962 -0.3127 -0.2110
  122MOL   H35044152   5.255   2.908   3.176 -0.9828 -0.5257 -0.1496
  122MOL   H35144153   5.166   2.825   3.300  0.1289  0.2491  1.2555
  122MOL   H35244154   5.249   2.973   3.479 -1.9023 -0.2668 -0.7210
  122MOL   H35344155   5.355   2.749   3.417  1.0723 -0.1138 -1.1143
  122MOL   H35444156   5.461   2.842   3.322 -0.0089 -1.1797 -0.0155
  122MOL   H35544157   5.538   2.759   3.545  1.8821  0.9688 -3.6726
  122MOL   H35644158   5.481   2.833   3.740  0.5531 -2.0343 -0.7566
  122MOL   H35744159   5.417   2.986   3.699  0.2894  0.1604 -0.4300
  122MOL   H35844160   5.324   2.830   3.681  1.7327 -1.8451  1.6099
  122MOL   H35944161   5.673   2.963   3.581  0.0090 -0.0309 -0.4936
  122MOL   H36044162   5.545   3.065   3.495 -0.6411 -0.6266 -1.8608
  122MOL   H36144163   5.654   2.956   3.413  0.9164 -0.7823  0.6144
  122MOL   H36244164   5.344   3.053   3.363  1.0634 -0.4308 -1.1971
  123MOL     C144165   6.954   7.324   4.621 -0.1668  0.0502  0.6766
  123MOL     C244166   6.814   7.384   4.658 -0.2864 -0.4676  0.7369
  123MOL     C344167   6.799   7.378   4.814  0.2402  0.1350  0.2107
  123MOL     C444168   6.890   7.478   4.883 -0.3801 -0.4274  0.4205
  123MOL     C544169   6.858   7.470   5.034 -0.4309 -0.0418  0.1148
  123MOL     C644170   6.876   7.628   4.836  0.1230 -0.4496  0.4148
  123MOL     H744171   7.035   7.375   4.674  1.0011 -2.3492  1.2537
  123MOL     H844172   6.957   7.220   4.652  2.0388 -0.0281  0.2487
  123MOL     H944173   6.796   7.482   4.613 -1.5313 -0.0376  2.1431
  123MOL    H1044174   6.695   7.391   4.844 -0.8830 -0.8367 -3.0662
  123MOL    H1144175   6.841   7.284   4.850  0.1692  0.5332  1.3580
  123MOL    H1244176   6.995   7.451   4.873 -0.6577 -0.9620 -1.0817
  123MOL    H1344177   6.758   7.494   5.069  0.0904 -1.1174  2.3927
  123MOL    H1444178   6.891   7.372   5.069 -1.0051 -0.6787 -1.0719
  123MOL    H1544179   6.920   7.540   5.090  1.0680 -2.2652  1.3037
  123MOL    H1644180   6.911   7.636   4.734  1.6303  0.0386  0.9569
  123MOL    H1744181   6.948   7.683   4.896  1.4892  0.1637 -1.7560
  123MOL    H1844182   6.777   7.673   4.846  0.3519 -0.0987  1.1587
  123MOL    H1944183   6.974   7.321   4.514  0.7555 -0.7913  0.8643
  123MOL    C2044184   6.704   7.301   4.589  0.3434 -0.8681 -0.1371
  123MOL    C2144185   6.573   7.372   4.571  1.0329  0.2883  0.8883
  123MOL    C2244186   6.581   7.486   4.459  0.3142  0.9951 -0.3114
  123MOL    C2344187   6.530   7.624   4.496 -0.4942  0.5312  0.3273
  123MOL    C2444188   6.615   7.683   4.619 -0.4252 -0.0281 -0.0664
  123MOL    C2544189   6.533   7.713   4.376 -0.5022 -0.1334  0.3558
  123MOL    H2644190   6.739   7.256   4.496 -1.3706 -1.7097 -0.3772
  123MOL    H2744191   6.689   7.215   4.654  0.8945  0.2232  1.4677
  123MOL    H2844192   6.548   7.426   4.662 -1.4486  0.2689  0.2797
  123MOL    H2944193   6.535   7.454   4.365 -0.5256 -1.8545  0.9987
  123MOL    H3044194   6.684   7.492   4.422  0.1347  3.7101 -0.4202
  123MOL    H3144195   6.427   7.601   4.523  0.3275  0.0923  3.3295
  123MOL    H3244196   6.615   7.631   4.715  2.1516  1.1241  0.6200
  123MOL    H3344197   6.583   0.030   4.650 -1.1463 -0.1193 -0.5248
  123MOL    H3444198   6.722   7.688   4.598 -0.9557  0.5461 -2.8426
  123MOL    H3544199   6.486   7.673   4.286 -1.5631  1.1531  0.3215
  123MOL    H3644200   6.482   0.055   4.396 -1.0913 -0.3020 -0.3649
  123MOL    H3744201   6.634   7.728   4.336 -1.1313  1.7719 -0.6119
  123MOL    C3844202   6.453   7.280   4.536  0.4955  0.3151  0.2804
  123MOL    C3944203   6.403   7.174   4.641  0.2319 -0.7283 -0.3013
  123MOL    C4044204   6.406   7.215   4.790  0.3616  0.1492  0.3667
  123MOL    C4144205   6.325   7.337   4.830 -0.1324  0.2763 -0.0141
  123MOL    C4244206   6.362   7.356   4.980  0.7042  0.0265 -0.0032
  123MOL    C4344207   6.179   7.330   4.798  0.1426  0.0293 -0.3610
  123MOL    H4444208   6.472   7.225   4.443  2.0537 -1.6205  1.6804
  123MOL    H4544209   6.379   7.357   4.516  1.5538  1.2216 -0.2571
  123MOL    H4644210   6.297   7.149   4.630 -0.5646  1.3377  2.1174
  123MOL    H4744211   6.509   7.228   4.822 -0.0276 -0.1065  1.7546
  123MOL    H4844212   6.371   7.131   4.850 -0.6730 -0.9941 -1.7808
  123MOL    H4944213   6.368   7.423   4.779  1.1015 -1.9205 -2.8082
  123MOL    H5044214   6.303   7.442   5.010  0.4809  0.6260 -2.0392
  123MOL    H5144215   6.343   7.276   5.052 -2.7194  0.8272  0.0701
  123MOL    H5244216   6.469   7.376   4.988  0.7806  0.6830 -2.3436
  123MOL    H5344217   6.170   7.334   4.690 -0.9053 -0.8213 -0.3071
  123MOL    H5444218   6.114   7.405   4.845  1.2442  0.6039  0.2652
  123MOL    H5544219   6.142   7.231   4.822  1.0792 -0.2616 -0.0989
  123MOL    C5644220   6.475   7.037   4.620  0.3331  0.3161 -0.4011
  123MOL    C5744221   6.404   6.902   4.655 -0.7023  0.0906  0.5789
  123MOL    C5844222   6.507   6.786   4.663 -0.2693  0.1605  0.2944
  123MOL    C5944223   6.523   6.729   4.807 -0.1422 -0.1916 -0.2800
  123MOL    C6044224   6.570   6.830   4.913  0.1372 -0.2082  0.1901
  123MOL    C6144225   6.607   6.601   4.804  0.2975 -0.8812 -0.8598
  123MOL    H6244226   6.563   7.038   4.685 -1.5074  0.7417  2.1494
  123MOL    H6344227   6.517   7.032   4.519 -1.4824  0.9866 -1.2106
  123MOL    H6444228   6.371   6.920   4.757 -2.0933  0.7166  0.0214
  123MOL    H6544229   6.480   6.704   4.597  0.1047  0.4592 -0.2327
  123MOL    H6644230   6.610   6.807   4.635 -0.0867 -1.3281 -0.1809
  123MOL    H6744231   6.424   6.695   4.837 -1.1409  1.6959 -1.3628
  123MOL    H6844232   6.559   6.791   5.015  0.4744 -1.0072 -0.0731
  123MOL    H6944233   6.519   6.926   4.909 -0.9500 -0.7631  0.6941
  123MOL    H7044234   6.676   6.853   4.904  0.0466 -0.8779 -3.0178
  123MOL    H7144235   6.707   6.623   4.765  0.9602  0.2480  1.3742
  123MOL    H7244236   6.576   6.517   4.742  0.1002  0.1778 -2.2295
  123MOL    H7344237   6.635   6.561   4.901  2.0605 -0.5125 -1.1977
  123MOL    C7444238   6.280   6.876   4.568  0.2476  0.8119  0.2798
  123MOL    C7544239   6.173   6.782   4.624  0.2115 -0.0083  0.5992
  123MOL    C7644240   6.090   6.728   4.503 -0.3346 -0.2133  0.6526
  123MOL    C7744241   6.149   6.605   4.421  0.3988  0.1436 -0.5902
  123MOL    C7844242   6.068   6.567   4.307 -0.5979 -0.2996  0.1054
  123MOL    C7944243   6.177   6.482   4.513  0.0298 -0.4935  0.9345
  123MOL    H8044244   6.309   6.833   4.471 -0.3426 -2.0382  1.3302
  123MOL    H8144245   6.226   6.968   4.544 -1.2075 -0.0079  0.4140
  123MOL    H8244246   6.222   6.702   4.680 -0.4565 -0.5785  0.3774
  123MOL    H8344247   5.994   6.690   4.537 -0.4395  0.0039  0.5981
  123MOL    H8444248   6.069   6.813   4.438 -1.2807 -0.6608  0.3706
  123MOL    H8544249   6.243   6.628   4.371  0.6198 -2.3585 -1.3694
  123MOL    H8644250   6.050   6.652   4.242  0.2971  0.6766  1.1220
  123MOL    H8744251   5.972   6.530   4.343 -1.6068 -1.5639 -3.6025
  123MOL    H8844252   6.105   6.483   4.247  0.6121  1.0995 -1.1319
  123MOL    H8944253   6.209   6.393   4.459 -0.5776 -0.5471  0.6471
  123MOL    H9044254   6.262   6.501   4.577  0.3612  2.1226 -0.2418
  123MOL    H9144255   6.081   6.462   4.561 -1.3635 -2.5162 -2.4456
  123MOL    C9244256   6.085   6.835   4.728  0.2824  0.3378 -0.5076
  123MOL    C9344257   6.088   6.771   4.871  0.0359 -0.1025  0.7677
  123MOL    C9444258   6.026   6.866   4.979 -0.6170 -0.1591 -0.1531
  123MOL    C9544259   6.119   6.978   5.028 -0.1533  0.0183 -0.5485
  123MOL    C9644260   6.038   7.091   5.097 -0.1154 -0.3404 -0.1935
  123MOL    C9744261   6.221   6.919   5.123 -0.6323 -0.1584 -0.2377
  123MOL    H9844262   6.107   6.941   4.741  1.1419  0.1201 -0.1742
  123MOL    H9944263   5.983   6.833   4.690  0.0240 -0.6475  0.2253
  123MOL   H10044264   6.189   6.739   4.900 -0.1963 -2.2288 -0.6771
  123MOL   H10144265   5.995   6.798   5.059  2.1254  0.4388  1.4966
  123MOL   H10244266   5.934   6.910   4.944 -1.4980 -1.6128  0.2730
  123MOL   H10344267   6.170   7.021   4.942  1.3621  0.5882  0.6030
  123MOL   H10444268   5.970   7.146   5.032 -0.6412 -1.6804 -0.7953
  123MOL   H10544269   6.110   7.148   5.156 -0.7516  0.5790 -0.2968
  123MOL   H10644270   5.978   7.056   5.180  2.2098 -1.4188  1.0893
  123MOL   H10744271   6.167   6.871   5.205 -0.5974  1.3519  0.6772
  123MOL   H10844272   6.292   6.996   5.151 -1.0104  0.8070 -1.8420
  123MOL   H10944273   6.285   6.846   5.072  1.8761  2.2821 -0.6458
  123MOL   C11044274   6.011   6.644   4.862  0.4023 -0.1975  0.2964
  123MOL   C11144275   6.043   6.534   4.967  0.6340 -0.3333 -0.0461
  123MOL   C11244276   5.925   6.438   4.983 -0.2817  0.1844 -0.5110
  123MOL   C11344277   5.934   6.330   5.089 -0.2161 -0.2116 -0.2161
  123MOL   C11444278   5.822   6.230   5.069  0.0481 -0.5576 -0.4312
  123MOL   C11544279   5.921   6.400   5.231  0.0476 -0.5650  0.1303
  123MOL   H11644280   6.019   6.607   4.760 -1.7210  2.6883 -0.9994
  123MOL   H11744281   5.904   6.665   4.873 -0.0240 -2.0033 -0.2477
  123MOL   H11844282   6.055   6.588   5.061 -0.3130  0.6383 -0.4639
  123MOL   H11944283   5.900   6.392   4.888  1.2788 -1.3815 -0.1775
  123MOL   H12044284   5.848   6.509   5.013 -0.1968 -0.3556  1.0441
  123MOL   H12144285   6.025   6.271   5.086 -0.0144 -0.0635  2.0533
  123MOL   H12244286   5.831   6.148   5.140  1.2129 -1.6768 -1.8389
  123MOL   H12344287   5.825   6.189   4.968  1.0190 -1.0382 -0.2149
  123MOL   H12444288   5.724   6.277   5.075  0.6162  0.8627 -1.8205
  123MOL   H12544289   5.914   6.322   5.307  0.5886  1.6577  2.5359
  123MOL   H12644290   5.832   6.463   5.234  0.1827 -0.4002  0.7421
  123MOL   H12744291   6.001   6.465   5.267 -2.6970  3.1269 -0.1003
  123MOL   C12844292   6.174   6.463   4.932  0.1676 -0.4058 -0.5015
  123MOL   C12944293   6.271   6.424   5.046 -0.2169  0.0436  0.1650
  123MOL   C13044294   6.340   6.547   5.105  0.2613  0.4254 -0.5850
  123MOL   C13144295   6.413   6.518   5.237 -1.0428 -0.2852 -0.1586
  123MOL   C13244296   6.534   6.608   5.259  0.3317  1.0183  0.0548
  123MOL   C13344297   6.329   6.515   5.372  0.1410  0.5662  0.2864
  123MOL   H13444298   6.231   6.519   4.858  0.4898  0.6247  0.5215
  123MOL   H13544299   6.142   6.377   4.872 -0.4520 -0.8534  0.4522
  123MOL   H13644300   6.211   6.378   5.124 -0.3306 -2.1278 -1.1921
  123MOL   H13744301   6.412   6.575   5.028  0.9288 -2.1707 -0.9250
  123MOL   H13844302   6.272   6.631   5.122 -1.7375 -1.3410  0.3995
  123MOL   H13944303   6.461   6.421   5.225  1.7728  1.1163 -0.6089
  123MOL   H14044304   6.582   6.566   5.348  0.7300 -0.8512 -1.0198
  123MOL   H14144305   6.511   6.714   5.275 -0.1956  1.1498 -1.4696
  123MOL   H14244306   6.593   6.593   5.169  0.1706 -1.6797  0.3552
  123MOL   H14344307   6.276   6.609   5.388  0.4079  0.9504 -1.0090
  123MOL   H14444308   6.248   6.443   5.372  1.2885 -0.7941 -1.5041
  123MOL   H14544309   6.389   6.480   5.456  1.4887  0.5803 -0.6515
  123MOL   C14644310   6.384   6.317   4.996  0.3305 -0.4450 -0.4340
  123MOL   C14744311   6.385   6.184   5.075  0.3972 -0.3483 -0.2658
  123MOL   C14844312   6.530   6.116   5.072 -0.0891  0.7922 -0.2888
  123MOL   C14944313   6.634   6.179   5.168 -0.6742  0.6653 -0.0763
  123MOL   C15044314   6.623   6.115   5.313 -0.5457 -0.3214  0.2188
  123MOL   C15144315   6.774   6.151   5.109 -0.0347 -0.2408  0.0428
  123MOL   H15244316   6.482   6.364   5.003 -0.5673  1.6943 -1.8200
  123MOL   H15344317   6.371   6.299   4.890 -0.5188 -0.0209 -0.4100
  123MOL   H15444318   6.367   6.203   5.181 -1.1750  0.0795 -0.5962
  123MOL   H15544319   6.515   6.013   5.104 -1.5103  1.4783  1.3276
  123MOL   H15644320   6.545   6.124   4.964 -1.9512 -2.1928 -0.7979
  123MOL   H15744321   6.636   6.288   5.171 -0.0223  0.6293  0.6769
  123MOL   H15844322   6.650   6.010   5.312 -1.6215 -0.6199  1.7539
  123MOL   H15944323   6.525   6.123   5.359 -0.9260  1.4688 -0.8724
  123MOL   H16044324   6.685   6.165   5.389 -0.4234 -1.6392  0.9934
  123MOL   H16144325   6.846   6.186   5.184  1.4171 -1.3709 -0.8095
  123MOL   H16244326   6.803   6.214   5.026  2.4307  1.8950  2.4282
  123MOL   H16344327   6.785   6.045   5.088  1.3697 -0.3016  0.9801
  123MOL   C16444328   6.262   6.092   5.041  0.5645 -0.0321  0.5548
  123MOL   C16544329   6.223   5.986   5.144 -0.2239  0.6825  0.0636
  123MOL   C16644330   6.153   6.047   5.272 -0.1504  0.6102  0.3919
  123MOL   C16744331   6.149   5.983   5.415  0.7909  0.4682  0.2356
  123MOL   C16844332   6.295   5.967   5.469  0.3209  0.5024  0.1643
  123MOL   C16944333   6.054   6.050   5.511  0.5621 -0.4939  0.3270
  123MOL   H17044334   6.188   6.166   5.012 -0.8579 -1.3632  0.7528
  123MOL   H17144335   6.279   6.047   4.943  0.7044  1.9661 -0.3710
  123MOL   H17244336   6.307   5.928   5.181 -2.1809 -2.5523 -0.3178
  123MOL   H17344337   6.188   6.149   5.289  0.5047  0.7074 -1.4293
  123MOL   H17444338   6.050   6.069   5.241 -0.2275  1.4901  1.2455
  123MOL   H17544339   6.110   5.881   5.411  0.1179  0.7254  0.2419
  123MOL   H17644340   6.297   5.904   5.558  3.0172  0.6722  0.2732
  123MOL   H17744341   6.325   6.067   5.501 -0.7442  0.9079 -0.0753
  123MOL   H17844342   6.371   5.930   5.400 -1.5035  0.1350 -1.6784
  123MOL   H17944343   5.950   6.038   5.481  0.0997  3.2285  0.2104
  123MOL   H18044344   6.067   6.158   5.509 -1.0855 -0.2686  1.3268
  123MOL   H18144345   6.061   6.010   5.612 -1.9248  0.9646  1.1201
  123MOL   C18244346   6.131   5.888   5.066  0.3168  0.2138 -0.3237
  123MOL   C18344347   6.117   5.743   5.128  0.2463 -0.3435 -0.2571
  123MOL   C18444348   5.978   5.686   5.082  0.3647  0.1741 -0.2459
  123MOL   C18544349   5.845   5.740   5.144 -0.1485  0.7904  0.1141
  123MOL   C18644350   5.723   5.678   5.069  0.0340 -0.5902  0.2899
  123MOL   C18744351   5.833   5.701   5.291  0.2027 -0.4436 -0.0432
  123MOL   H18844352   6.168   5.864   4.967  0.1592  0.2497 -0.3919
  123MOL   H18944353   6.033   5.930   5.044  0.0746 -0.9218 -1.4715
  123MOL   H19044354   6.107   5.753   5.236  1.6065 -1.4999 -0.0060
  123MOL   H19144355   5.981   5.578   5.068  0.2813 -0.0738  1.5069
  123MOL   H19244356   5.976   5.709   4.975 -1.0498 -0.5779 -0.3975
  123MOL   H19344357   5.836   5.849   5.143  0.4009  0.8438  0.7025
  123MOL   H19444358   5.726   5.707   4.964 -0.9153 -0.6387  0.2454
  123MOL   H19544359   5.637   5.734   5.106 -0.2875 -0.1110 -1.1709
  123MOL   H19644360   5.708   5.570   5.075  1.9454 -0.9417 -0.9301
  123MOL   H19744361   5.850   5.594   5.289 -1.1627 -0.6699  0.0850
  123MOL   H19844362   5.737   5.716   5.341  0.3816 -0.4960  0.3159
  123MOL   H19944363   5.917   5.737   5.351  0.7484  0.1706 -1.1584
  123MOL   C20044364   6.238   5.663   5.085 -0.6839  0.4532  0.4609
  123MOL   C20144365   6.249   5.516   5.143 -0.2701 -0.3380 -0.2997
  123MOL   C20244366   6.302   5.517   5.292  0.6458  0.5971  0.8586
  123MOL   C20344367   6.226   5.424   5.389 -0.3905  0.1870  1.1347
  123MOL   C20444368   6.304   5.410   5.515 -0.3110 -0.0813  0.7684
  123MOL   C20544369   6.083   5.474   5.424  0.3019 -0.5032 -0.0776
  123MOL   H20644370   6.333   5.711   5.106  0.4506 -0.3854 -2.4532
  123MOL   H20744371   6.243   5.651   4.977  1.2708 -0.4337  0.6272
  123MOL   H20844372   6.150   5.471   5.136 -0.2694 -0.1688 -1.4744
  123MOL   H20944373   6.409   5.495   5.299  0.7860  1.4078  1.3382
  123MOL   H21044374   6.308   5.615   5.338  0.2331  0.7969  0.4940
  123MOL   H21144375   6.212   5.329   5.338 -1.4266  0.4889  0.8333
  123MOL   H21244376   6.242   5.349   5.581  0.3386  0.3341  1.7893
  123MOL   H21344377   6.325   5.502   5.570  1.7946 -0.8967  1.4113
  123MOL   H21444378   6.399   5.360   5.492 -1.4504 -0.7641 -2.7194
  123MOL   H21544379   6.021   5.399   5.474  1.1135 -1.9447 -1.1885
  123MOL   H21644380   6.033   5.504   5.332  0.8054  0.5315 -0.0199
  123MOL   H21744381   6.081   5.572   5.472 -0.4303  0.7422 -2.5468
  123MOL   C21844382   6.334   5.429   5.050 -0.6254 -0.4050  0.7491
  123MOL   C21944383   6.251   5.373   4.926 -0.4941  0.2259 -0.4796
  123MOL   C22044384   6.206   5.228   4.961 -0.2044  0.4015 -0.0083
  123MOL   C22144385   6.094   5.177   4.864 -0.9741  0.7375 -0.1030
  123MOL   C22244386   6.100   5.030   4.845 -0.4030  0.1369 -0.1103
  123MOL   C22344387   5.948   5.212   4.899  0.0540 -0.2272  0.5790
  123MOL   H22444388   6.424   5.488   5.034 -0.3228 -1.1844 -0.4992
  123MOL   H22544389   6.368   5.337   5.097  0.2695 -0.8573 -0.7654
  123MOL   H22644390   6.166   5.440   4.913 -1.6134 -0.7910  1.4127
  123MOL   H22744391   6.293   5.163   4.966  0.0782  0.8390  0.9117
  123MOL   H22844392   6.175   5.218   5.065  3.0675 -0.2184  0.9604
  123MOL   H22944393   6.112   5.205   4.760  0.8861  2.2328  0.6005
  123MOL   H23044394   6.185   4.994   4.788 -0.3633  1.7729 -1.1024
  123MOL   H23144395   6.102   4.992   4.947 -0.4438  0.9141  0.1856
  123MOL   H23244396   6.018   4.990   4.784 -2.7264  1.9631  1.7067
  123MOL   H23344397   5.916   5.172   4.995  0.5215  0.8739  1.1922
  123MOL   H23444398   5.939   5.319   4.914 -0.6529 -0.1187 -0.5242
  123MOL   H23544399   5.882   5.189   4.815  1.7695  1.8199 -1.3882
  123MOL   C23644400   6.346   5.371   4.806 -0.1443  0.0148 -0.4363
  123MOL   C23744401   6.370   5.496   4.722 -0.2306  0.2992 -0.0840
  123MOL   C23844402   6.237   5.517   4.645 -0.8664  0.2104  0.6617
  123MOL   C23944403   6.211   5.657   4.590 -0.3492  0.2169  0.2324
  123MOL   C24044404   6.086   5.652   4.489  0.6735 -0.2511  0.2230
  123MOL   C24144405   6.192   5.762   4.697  0.2987 -0.2019  0.0501
  123MOL   H24244406   6.308   5.291   4.742 -0.0215 -0.1228 -0.3389
  123MOL   H24344407   6.444   5.340   4.844 -0.8233 -1.7204 -0.0559
  123MOL   H24444408   6.385   5.588   4.778 -0.6798  0.3051  0.0301
  123MOL   H24544409   6.154   5.498   4.713 -1.1392  0.9867  0.5447
  123MOL   H24644410   6.237   5.440   4.567  1.1559 -2.7774  3.4882
  123MOL   H24744411   6.299   5.689   4.533  2.0232 -1.2808  2.8712
  123MOL   H24844412   6.122   5.616   4.393 -0.0771 -2.2948  0.6957
  123MOL   H24944413   6.038   5.747   4.465  0.6816  0.0364  1.3117
  123MOL   H25044414   5.997   5.595   4.514 -0.4525  1.5792  0.5109
  123MOL   H25144415   6.276   5.772   4.766 -0.6263  1.1695  1.0268
  123MOL   H25244416   6.107   5.747   4.765 -0.3260 -0.3601 -0.7581
  123MOL   H25344417   6.165   5.856   4.648 -1.6834  0.3066  1.9957
  123MOL   C25444418   6.490   5.495   4.630 -0.1493 -0.4596 -0.1388
  123MOL   C25544419   6.637   5.476   4.682  1.2763  0.7855  0.1617
  123MOL   C25644420   6.669   5.571   4.803  0.0825  0.2708  0.6287
  123MOL   C25744421   6.702   5.717   4.765  0.1137 -0.4016 -0.0388
  123MOL   C25844422   6.845   5.736   4.724  0.2402  0.3073 -0.3049
  123MOL   C25944423   6.656   5.804   4.882  0.1011 -0.2462  0.2069
  123MOL   H26044424   6.470   5.419   4.555  1.3561 -3.0788  2.0229
  123MOL   H26144425   6.502   5.584   4.568  3.0008 -1.0935 -0.5611
  123MOL   H26244426   6.693   5.493   4.590  1.1774 -2.1997 -0.4930
  123MOL   H26344427   6.759   5.535   4.853  0.2365  0.1061  0.2392
  123MOL   H26444428   6.589   5.559   4.876  1.0753  0.8827  1.8230
  123MOL   H26544429   6.637   5.747   4.683 -0.6783 -0.4121  0.5772
  123MOL   H26644430   6.884   5.837   4.713  1.8111 -0.4182 -1.5047
  123MOL   H26744431   6.877   5.682   4.635 -0.3670  0.2484 -0.4923
  123MOL   H26844432   6.907   5.702   4.807  1.0587  2.0780 -0.1664
  123MOL   H26944433   6.685   5.906   4.859  0.8604 -0.5567 -0.2488
  123MOL   H27044434   6.550   5.798   4.906  0.6185 -0.8524  2.5338
  123MOL   H27144435   6.707   5.773   4.974  0.3642  1.2874  0.5937
  123MOL   C27244436   6.661   5.330   4.707  0.4278  0.1415 -0.1176
  123MOL   C27344437   6.786   5.276   4.643 -0.1245 -0.0712 -0.6967
  123MOL   C27444438   6.911   5.339   4.712 -0.1111  0.1825 -0.0157
  123MOL   C27544439   7.055   5.307   4.663 -0.1840  0.4640 -0.1874
  123MOL   C27644440   7.161   5.391   4.741 -0.9844 -0.5479  0.2376
  123MOL   C27744441   7.073   5.311   4.508 -0.5481  0.8550 -0.4747
  123MOL   H27844442   6.673   5.311   4.814 -1.5650 -0.7960 -0.0205
  123MOL   H27944443   6.579   5.258   4.693 -0.6919  1.5974 -1.2234
  123MOL   H28044444   6.783   5.309   4.539 -0.7519  0.3086 -0.5634
  123MOL   H28144445   6.910   5.298   4.813 -1.4793 -0.6471 -0.3472
  123MOL   H28244446   6.899   5.446   4.728 -0.9550  0.1020 -0.0710
  123MOL   H28344447   7.088   5.206   4.688 -1.6877  0.8065  3.4106
  123MOL   H28444448   7.144   5.377   4.848 -2.2264 -2.1221 -0.1468
  123MOL   H28544449   7.263   5.353   4.735 -0.0562  1.6576  1.4158
  123MOL   H28644450   7.157   5.495   4.708 -1.7817 -0.9158 -0.8544
  123MOL   H28744451   7.057   5.412   4.468 -0.0080  1.0661 -0.1610
  123MOL   H28844452   7.175   5.277   4.489 -1.3079 -2.2542  0.7677
  123MOL   H28944453   7.005   5.237   4.466  1.5395 -1.3288 -0.1054
  123MOL   C29044454   6.803   5.124   4.659  0.4502 -0.1352 -0.0617
  123MOL   C29144455   6.697   5.023   4.605 -0.1370 -0.3379 -0.4245
  123MOL   C29244456   6.647   5.025   4.465 -0.4561  0.2308 -0.5546
  123MOL   C29344457   6.533   5.130   4.441 -0.0895  0.2133 -0.2839
  123MOL   C29444458   6.513   5.151   4.285 -1.1786  1.1391 -0.0472
  123MOL   C29544459   6.402   5.085   4.503  0.4995 -0.1805 -0.3212
  123MOL   H29644460   6.890   5.099   4.598 -1.6189 -2.6284 -2.1407
  123MOL   H29744461   6.818   5.095   4.763  0.9819  0.5488  0.0527
  123MOL   H29844462   6.610   5.037   4.669  0.8750  1.3460  0.6124
  123MOL   H29944463   6.618   4.931   4.418  0.9643 -0.8858  0.7458
  123MOL   H30044464   6.739   5.050   4.414  0.9833 -0.8748  1.4051
  123MOL   H30144465   6.556   5.229   4.481 -0.6045 -0.2689  1.2503
  123MOL   H30244466   6.594   5.221   4.264  1.1895 -1.1590  1.1508
  123MOL   H30344467   6.413   5.193   4.277 -1.5015  0.6056  1.1348
  123MOL   H30444468   6.520   5.061   4.226  1.8772  0.6809  0.9158
  123MOL   H30544469   6.406   5.037   4.601  1.6853 -0.6728 -0.6113
  123MOL   H30644470   6.345   5.026   4.432  0.3028 -1.0947  0.5770
  123MOL   H30744471   6.344   5.176   4.521 -0.3500 -0.4293 -1.7817
  123MOL   C30844472   6.756   4.875   4.633 -0.0762 -0.3071  0.8942
  123MOL   C30944473   6.648   4.756   4.631 -0.5498 -0.0929  0.0593
  123MOL   C31044474   6.709   4.615   4.613 -0.3582 -0.2677 -0.4226
  123MOL   C31144475   6.649   4.539   4.498  0.7997  0.0985  0.2013
  123MOL   C31244476   6.693   4.598   4.361 -0.2629  0.4200  0.2157
  123MOL   C31344477   6.684   4.396   4.491 -0.7629 -0.2163 -0.3509
  123MOL   H31444478   6.828   4.851   4.555 -1.7576 -1.0152 -0.4549
  123MOL   H31544479   6.809   4.865   4.728 -0.1416 -1.8618  0.7705
  123MOL   H31644480   6.575   4.774   4.553  1.6195  1.7476 -1.6380
  123MOL   H31744481   6.687   4.550   4.697 -1.7132  2.2304  1.2140
  123MOL   H31844482   6.817   4.616   4.602 -0.5248 -1.2575 -2.3958
  123MOL   H31944483   6.541   4.552   4.505  0.9256  0.4449  1.6166
  123MOL   H32044484   6.669   4.705   4.361 -0.0113  0.4963  2.6283
  123MOL   H32144485   6.654   4.558   4.267 -1.6919  0.1971  0.8918
  123MOL   H32244486   6.801   4.587   4.353 -0.2388  0.7257  0.1009
  123MOL   H32344487   6.630   4.348   4.409 -2.4110  0.6817  0.1933
  123MOL   H32444488   6.791   4.373   4.492 -0.6310  0.4070  0.2029
  123MOL   H32544489   6.646   4.342   4.577  0.1719  0.2203  0.3418
  123MOL   C32644490   6.561   4.759   4.761  0.2659 -0.6002 -0.2962
  123MOL   C32744491   6.447   4.655   4.772 -0.1415 -0.9824  0.0551
  123MOL   C32844492   6.327   4.696   4.682  0.5039  0.4487  0.5163
  123MOL   C32944493   6.236   4.589   4.621  0.1044  0.0627 -0.0519
  123MOL   C33044494   6.173   4.489   4.717 -0.0335 -0.2231 -0.0682
  123MOL   C33144495   6.134   4.641   4.529 -0.2455 -0.0131 -0.0964
  123MOL   H33244496   6.519   4.859   4.776 -1.7340 -1.4313 -0.2314
  123MOL   H33344497   6.629   4.740   4.844  0.2657 -0.7893 -0.3401
  123MOL   H33444498   6.480   4.556   4.742 -1.2367 -1.8994  1.8651
  123MOL   H33544499   6.269   4.771   4.735 -1.4838 -1.0486  0.5078
  123MOL   H33644500   6.363   4.757   4.599 -1.7291  0.1496 -0.6994
  123MOL   H33744501   6.304   4.540   4.552  1.4048 -1.3235  2.1351
  123MOL   H33844502   6.114   4.541   4.791  2.9335  1.4569  1.1917
  123MOL   H33944503   6.260   4.444   4.766  0.2590 -0.2830 -0.6313
  123MOL   H34044504   6.118   4.405   4.673 -0.2150 -0.4617  0.6193
  123MOL   H34144505   6.051   4.675   4.591 -0.7827 -1.0441 -0.2336
  123MOL   H34244506   6.176   4.719   4.466  1.4651 -0.2087  0.7671
  123MOL   H34344507   6.095   4.562   4.465  0.3184 -0.9481  0.6973
  123MOL   C34444508   6.402   4.649   4.914  0.4065  0.2794  0.2828
  123MOL   C34544509   6.475   4.539   4.996 -0.8222 -0.2960 -0.2588
  123MOL   C34644510   6.414   4.527   5.142 -0.2461 -0.0949  0.2740
  123MOL   C34744511   6.508   4.446   5.241  0.2881 -0.0673 -0.6613
  123MOL   C34844512   6.484   4.297   5.232  0.1905  0.3152 -0.4285
  123MOL   C34944513   6.491   4.499   5.386 -0.1249  0.5313 -0.6201
  123MOL   H35044514   6.294   4.646   4.927  0.7309  0.0668  3.2869
  123MOL   H35144515   6.432   4.737   4.971  1.4401 -0.7373  1.3154
  123MOL   H35244516   6.581   4.559   5.005 -0.6937 -0.8083 -0.5834
  123MOL   H35344517   6.404   4.628   5.180 -0.6799  0.1964 -0.5818
  123MOL   H35444518   6.318   4.476   5.126 -0.5591  0.7481 -0.6582
  123MOL   H35544519   6.610   4.473   5.215  0.0406  1.1799 -0.3980
  123MOL   H35644520   6.378   4.282   5.254  0.5428 -0.2365  0.9637
  123MOL   H35744521   6.505   4.257   5.133 -2.2191  0.2385 -0.9318
  123MOL   H35844522   6.550   4.245   5.301  1.3163  1.2458 -0.7977
  123MOL   H35944523   6.564   4.442   5.443 -2.3824 -2.2576 -0.4001
  123MOL   H36044524   6.394   4.476   5.430 -0.3425  0.4214 -1.1469
  123MOL   H36144525   6.506   4.606   5.395  1.4815  0.1816  1.0341
  123MOL   H36244526   6.477   4.445   4.940  1.6610 -0.1647 -0.4101
  124MOL     C144527   4.128   0.490   5.798  0.0685  0.0992 -0.0423
  124MOL     C244528   4.011   0.581   5.760  0.0151  0.0855 -0.4445
  124MOL     C344529   3.948   0.648   5.881 -0.7471 -0.0315 -0.6428
  124MOL     C444530   4.053   0.712   5.979  0.0065 -0.6817 -0.2974
  124MOL     C544531   4.076   0.623   6.106  0.2562  0.6216  0.6345
  124MOL     C644532   4.011   0.858   6.028 -0.1065  0.2610  0.0415
  124MOL     H744533   4.210   0.551   5.836 -0.3964 -0.0852  1.2816
  124MOL     H844534   4.097   0.423   5.879 -0.5936 -0.8411 -1.0497
  124MOL     H944535   4.069   0.654   5.705  0.5927 -0.6649 -0.8392
  124MOL    H1044536   3.881   0.724   5.842  0.3356  1.1702 -0.1992
  124MOL    H1144537   3.889   0.574   5.934 -1.8981  2.4821  1.7217
  124MOL    H1244538   4.151   0.727   5.934  0.6707  1.8703  1.8541
  124MOL    H1344539   4.156   0.656   6.172 -0.3871  1.6097  0.9390
  124MOL    H1444540   3.984   0.616   6.165 -0.4208  1.1113 -0.3404
  124MOL    H1544541   4.092   0.518   6.082 -2.6109 -0.1595  1.8152
  124MOL    H1644542   4.013   0.932   5.949  0.7215 -0.4985 -0.6496
  124MOL    H1744543   4.081   0.894   6.103  0.5388 -0.5876 -0.1469
  124MOL    H1844544   3.908   0.873   6.059  0.1380 -1.5965  1.8791
  124MOL    H1944545   4.179   0.436   5.718 -0.7277 -1.0164  0.1979
  124MOL    C2044546   3.896   0.509   5.677 -0.1064  0.4759 -0.0078
  124MOL    C2144547   3.937   0.436   5.543  0.1277  0.0136  0.7627
  124MOL    C2244548   3.973   0.286   5.573 -0.3313  0.1312 -0.4711
  124MOL    C2344549   4.077   0.222   5.473 -0.4848 -0.2961 -0.0773
  124MOL    C2444550   4.220   0.213   5.530 -0.0237 -0.4900 -0.2409
  124MOL    C2544551   4.025   0.089   5.411 -0.1428 -0.1378 -0.1919
  124MOL    H2644552   3.853   0.431   5.740  1.2710  0.3766  0.8502
  124MOL    H2744553   3.826   0.590   5.656 -0.7243 -0.5860 -2.1396
  124MOL    H2844554   4.034   0.477   5.514 -1.1090  1.6994 -1.1606
  124MOL    H2944555   3.890   0.217   5.590  1.0120 -1.5879 -0.6810
  124MOL    H3044556   4.016   0.278   5.673  1.1521  0.6786 -1.0466
  124MOL    H3144557   4.087   0.292   5.390  2.2598  1.1178  1.3938
  124MOL    H3244558   4.258   0.309   5.564 -2.0605  1.0763 -2.3198
  124MOL    H3344559   4.285   0.185   5.447  1.8553  2.7454  0.0624
  124MOL    H3444560   4.228   0.138   5.609  0.5958 -0.5153 -0.3278
  124MOL    H3544561   4.082   0.052   5.326  0.8834  1.9430 -0.4287
  124MOL    H3644562   4.032   0.017   5.494 -0.8812 -0.7224 -0.6309
  124MOL    H3744563   3.919   0.100   5.389 -0.0376  1.1252 -0.0720
  124MOL    C3844564   3.825   0.445   5.434 -0.3158  0.1163  0.1501
  124MOL    C3944565   3.803   0.590   5.378 -0.3888  0.0057  0.3291
  124MOL    C4044566   3.677   0.604   5.295 -0.4438 -0.4821  0.0560
  124MOL    C4144567   3.540   0.580   5.367 -0.1914 -0.3833 -0.0764
  124MOL    C4244568   3.483   0.439   5.341 -0.2506  0.4704 -0.3573
  124MOL    C4344569   3.432   0.694   5.336 -0.2700  0.8795  0.0915
  124MOL    H4444570   3.742   0.404   5.491  1.1057 -1.7225  0.9405
  124MOL    H4544571   3.844   0.381   5.349 -1.7083 -0.8837  0.5683
  124MOL    H4644572   3.781   0.658   5.461  2.7414 -0.5477  1.6959
  124MOL    H4744573   3.681   0.538   5.208 -1.6816 -0.0921 -0.3012
  124MOL    H4844574   3.671   0.701   5.245 -0.0637 -1.5813 -2.1698
  124MOL    H4944575   3.567   0.583   5.472  1.3912 -0.4135 -0.4784
  124MOL    H5044576   3.391   0.427   5.399 -0.5774  2.1203 -0.4950
  124MOL    H5144577   3.448   0.428   5.239  0.8006 -0.0320 -0.6682
  124MOL    H5244578   3.557   0.366   5.374 -1.2126  0.3175  1.5351
  124MOL    H5344579   3.409   0.701   5.230  0.2569 -2.9937 -0.3788
  124MOL    H5444580   3.459   0.795   5.364  1.9561  1.2175 -3.0044
  124MOL    H5544581   3.334   0.670   5.377  0.0554 -2.1601 -0.7587
  124MOL    C5644582   3.921   0.633   5.296  0.0970  0.3247  0.3345
  124MOL    C5744583   3.945   0.788   5.306  0.7390 -0.1487 -0.1408
  124MOL    C5844584   4.018   0.858   5.196 -0.2674  0.4960 -0.2235
  124MOL    C5944585   3.938   0.860   5.065  0.1464  0.0152 -0.2744
  124MOL    C6044586   4.013   0.909   4.941 -0.5083 -0.8836  0.1785
  124MOL    C6144587   3.804   0.938   5.080 -0.5998  0.4718 -0.6200
  124MOL    H6244588   3.906   0.595   5.194  2.1569 -0.4615  0.2974
  124MOL    H6344589   4.015   0.588   5.327 -1.1905 -2.6854  0.0329
  124MOL    H6444590   3.844   0.827   5.319  0.7984  0.1214 -0.5097
  124MOL    H6544591   4.033   0.962   5.222 -1.2015  0.6149 -0.1444
  124MOL    H6644592   4.112   0.807   5.172  0.3554  1.2341  0.6509
  124MOL    H6744593   3.925   0.755   5.037  1.1322 -0.2112  0.1020
  124MOL    H6844594   3.952   0.926   4.852  0.0198  1.1075  0.1723
  124MOL    H6944595   4.106   0.854   4.933 -0.1844 -0.3550  0.2944
  124MOL    H7044596   4.049   1.008   4.968 -0.3927 -0.9054  0.1039
  124MOL    H7144597   3.762   0.971   4.985  1.3676 -0.5122 -1.8814
  124MOL    H7244598   3.818   1.035   5.126  2.7155  0.8440 -2.2335
  124MOL    H7344599   3.731   0.885   5.141 -0.5201 -0.3238 -1.1983
  124MOL    C7444600   4.012   0.826   5.437  0.6658  0.5640  0.1932
  124MOL    C7544601   4.014   0.973   5.492  0.0364  0.1656 -0.0454
  124MOL    C7644602   4.100   0.981   5.622 -0.4138 -0.4410  0.2665
  124MOL    C7744603   4.253   0.987   5.612 -0.0654  0.4143 -0.2245
  124MOL    C7844604   4.314   0.996   5.760  0.1499 -0.4203  0.0179
  124MOL    C7944605   4.305   1.114   5.548 -0.5889 -0.9003  0.6943
  124MOL    H8044606   4.111   0.782   5.425 -0.1720 -0.8920 -1.8517
  124MOL    H8144607   3.971   0.762   5.516  0.3493 -0.1895 -0.5681
  124MOL    H8244608   4.069   1.042   5.427 -1.0672  0.4237 -0.7216
  124MOL    H8344609   4.073   1.071   5.679  0.4609  0.0379 -0.0654
  124MOL    H8444610   4.070   0.895   5.683  0.6738 -0.0355  1.3886
  124MOL    H8544611   4.276   0.896   5.558 -0.9924 -0.8294  1.4463
  124MOL    H8644612   4.284   0.926   5.838 -0.7947  0.8154  0.7920
  124MOL    H8744613   4.298   1.089   5.816 -1.1025 -1.7383  1.9534
  124MOL    H8844614   4.422   0.989   5.755  0.2805 -1.5423  2.9991
  124MOL    H8944615   4.412   1.131   5.558 -0.5731 -0.5162 -0.1642
  124MOL    H9044616   4.290   1.109   5.441 -1.2059 -0.0100  0.7317
  124MOL    H9144617   4.257   1.206   5.582  0.3906 -0.7007  1.5966
  124MOL    C9244618   3.868   1.020   5.518 -0.4409  0.6961  1.0308
  124MOL    C9344619   3.850   1.175   5.534  0.3134 -0.1059 -0.0471
  124MOL    C9444620   3.883   1.253   5.407 -0.9408 -0.3633 -0.1910
  124MOL    C9544621   3.921   1.402   5.413 -0.2129 -0.5486  0.1228
  124MOL    C9644622   4.044   1.420   5.502 -0.2539 -0.4104  0.1584
  124MOL    C9744623   3.946   1.460   5.273 -0.4176  0.1966 -0.5465
  124MOL    H9844624   3.798   0.982   5.443  0.2467  0.6645  0.4089
  124MOL    H9944625   3.842   0.974   5.614 -0.1359  1.8380  1.6748
  124MOL   H10044626   3.914   1.209   5.615 -0.0646 -0.9599  0.6097
  124MOL   H10144627   3.799   1.229   5.341 -2.2626  0.6585  1.0983
  124MOL   H10244628   3.966   1.206   5.353 -1.9815 -0.3515 -1.8404
  124MOL   H10344629   3.831   1.444   5.458  1.6112  0.8294  2.5612
  124MOL   H10444630   4.123   1.348   5.484 -0.1839 -0.4004  0.4222
  124MOL   H10544631   4.017   1.416   5.608  1.1075  1.3849  0.6114
  124MOL   H10644632   4.087   1.520   5.497 -0.1992 -0.5164 -1.8618
  124MOL   H10744633   3.865   1.434   5.204 -0.8050  0.9040 -0.3568
  124MOL   H10844634   4.037   1.414   5.234 -0.1560 -0.2150  0.5337
  124MOL   H10944635   3.953   1.568   5.278  1.2988  0.1265 -1.2370
  124MOL   C11044636   3.708   1.225   5.594 -0.0764  0.4362  0.2631
  124MOL   C11144637   3.660   1.164   5.732 -0.2728 -0.0715  0.1327
  124MOL   C11244638   3.741   1.235   5.849 -0.0288  0.1983  0.3166
  124MOL   C11344639   3.708   1.381   5.888 -0.0722  0.7634  0.1031
  124MOL   C11444640   3.797   1.487   5.824  0.1912 -0.1322  0.3801
  124MOL   C11544641   3.729   1.392   6.046 -0.0111  0.2232 -0.0687
  124MOL   H11644642   3.640   1.203   5.512  1.9779 -2.1030 -0.8123
  124MOL   H11744643   3.723   1.332   5.610 -1.0116  0.3625  1.6721
  124MOL   H11844644   3.690   1.059   5.723 -0.3235 -0.3426  2.8555
  124MOL   H11944645   3.849   1.236   5.831  0.0734 -2.0714  0.6027
  124MOL   H12044646   3.743   1.167   5.934 -0.0615  0.8435  0.8400
  124MOL   H12144647   3.602   1.401   5.877 -0.6297 -1.7169  0.6934
  124MOL   H12244648   3.894   1.442   5.799  0.0456  0.0717 -0.5897
  124MOL   H12344649   3.814   1.561   5.902  0.2593 -0.3596  0.5836
  124MOL   H12444650   3.747   1.534   5.739  0.3412 -0.4140  0.1326
  124MOL   H12544651   3.666   1.320   6.098  0.5657 -0.1986  0.0549
  124MOL   H12644652   3.700   1.485   6.094 -2.3365 -0.2384 -0.5133
  124MOL   H12744653   3.834   1.383   6.074  0.1203 -0.2741 -0.7080
  124MOL   C12844654   3.511   1.168   5.742 -0.2033 -0.5038 -0.4946
  124MOL   C12944655   3.439   1.118   5.869 -0.1376 -0.0415  0.1235
  124MOL   C13044656   3.436   0.968   5.893  0.5952 -0.0589  0.3861
  124MOL   C13144657   3.560   0.898   5.964  0.1048 -0.2996  0.3573
  124MOL   C13244658   3.562   0.924   6.114  0.5206  0.2464  0.0053
  124MOL   C13344659   3.556   0.745   5.933 -0.5716 -0.0918  0.3135
  124MOL   H13444660   3.472   1.105   5.662 -2.0776  0.5724 -0.4491
  124MOL   H13544661   3.492   1.273   5.720 -0.8484 -0.7167 -0.9522
  124MOL   H13644662   3.489   1.170   5.951 -1.2740  0.8220  0.2869
  124MOL   H13744663   3.345   0.936   5.944  0.5396 -0.6213 -0.0538
  124MOL   H13844664   3.422   0.927   5.793 -0.8051 -0.2460  0.6454
  124MOL   H13944665   3.655   0.935   5.924 -0.8390  1.2737 -0.4777
  124MOL   H14044666   3.631   0.867   6.177  1.5944  3.1740  1.5676
  124MOL   H14144667   3.458   0.905   6.140  0.9623  0.4811  2.0714
  124MOL   H14244668   3.594   1.027   6.132 -0.0983  0.4897 -0.2849
  124MOL   H14344669   3.463   0.707   5.975 -0.4911  1.4186  1.9268
  124MOL   H14444670   3.556   0.738   5.825 -0.3925 -3.5196  0.4822
  124MOL   H14544671   3.629   0.687   5.990  1.5022  0.3619 -1.8136
  124MOL   C14644672   3.298   1.180   5.885 -0.0512 -0.0460  0.4607
  124MOL   C14744673   3.251   1.189   6.029  0.5969 -0.0782  0.0352
  124MOL   C14844674   3.102   1.184   6.029  1.4611  0.4174 -0.0110
  124MOL   C14944675   3.017   1.055   6.008  0.5461  0.2856  0.3214
  124MOL   C15044676   3.014   0.967   6.135  0.1605 -0.3345 -0.4073
  124MOL   C15144677   2.881   1.082   5.957 -0.4419  0.7556 -0.2871
  124MOL   H15244678   3.229   1.129   5.818 -0.5910  0.0202  0.9660
  124MOL   H15344679   3.306   1.277   5.835  0.9830 -0.7398 -0.7370
  124MOL   H15444680   3.278   1.094   6.077 -1.7504 -1.5002 -1.3248
  124MOL   H15544681   3.078   1.227   6.127  1.8104 -0.5917  0.5239
  124MOL   H15644682   3.060   1.261   5.964  2.7746 -0.3001 -1.7489
  124MOL   H15744683   3.072   0.991   5.939 -0.2897 -0.2783  0.1791
  124MOL   H15844684   2.963   0.871   6.126 -2.2559  0.7567  0.9045
  124MOL   H15944685   2.951   1.016   6.209 -0.8965 -1.0585 -0.8144
  124MOL   H16044686   3.111   0.959   6.182  0.0626  0.7427 -0.0093
  124MOL   H16144687   2.883   1.147   5.870  0.1722 -0.2865 -1.0699
  124MOL   H16244688   2.807   1.113   6.031 -0.5177  0.8339 -0.3955
  124MOL   H16344689   2.836   0.991   5.915  0.2221  0.7191 -0.9261
  124MOL   C16444690   3.309   1.316   6.094 -0.8425 -0.0739 -0.1677
  124MOL   C16544691   3.299   1.330   6.248  0.4954 -0.3493  0.5795
  124MOL   C16644692   3.391   1.226   6.316 -0.1040 -0.4022 -0.2747
  124MOL   C16744693   3.402   1.219   6.469 -0.6165  0.5942 -0.1553
  124MOL   C16844694   3.272   1.187   6.536 -0.7607 -0.1812  0.1823
  124MOL   C16944695   3.496   1.107   6.520 -0.7281  0.1573 -0.4055
  124MOL   H17044696   3.406   1.350   6.058  0.5919 -0.4143  3.1469
  124MOL   H17144697   3.247   1.396   6.054 -0.5374 -2.5019 -5.8887
  124MOL   H17244698   3.202   1.287   6.272  0.4510 -1.5903 -1.7827
  124MOL   H17344699   3.366   1.126   6.282 -3.0003 -1.3602  4.2638
  124MOL   H17444700   3.491   1.250   6.279  0.1398 -0.5459  0.2889
  124MOL   H17544701   3.436   1.313   6.512 -2.7622  3.0651 -3.5531
  124MOL   H17644702   3.231   1.088   6.515  1.0502 -1.5371  2.8069
  124MOL   H17744703   3.198   1.260   6.504 -0.1101 -1.0234 -3.5516
  124MOL   H17844704   3.272   1.194   6.645  1.7945  0.5183  0.1873
  124MOL   H17944705   3.501   1.071   6.623  1.1106  0.4062 -0.3762
  124MOL   H18044706   3.595   1.117   6.474 -0.2339 -1.2819  0.3257
  124MOL   H18144707   3.456   1.016   6.477  0.8783 -0.0434 -1.5147
  124MOL   C18244708   3.295   1.475   6.311  0.1515 -0.0223  0.3528
  124MOL   C18344709   3.206   1.592   6.257  0.4757 -0.2245 -0.8003
  124MOL   C18444710   3.275   1.660   6.133  0.4040 -0.1321  1.0217
  124MOL   C18544711   3.302   1.812   6.147  1.0238  0.3002 -0.0825
  124MOL   C18644712   3.418   1.827   6.242 -0.5050 -0.9946  0.2355
  124MOL   C18744713   3.343   1.859   6.013  0.2514 -0.0049  0.8504
  124MOL   H18844714   3.395   1.517   6.309 -1.2934  3.5818  0.8963
  124MOL   H18944715   3.263   1.465   6.414  2.7195  2.8905  1.4818
  124MOL   H19044716   3.212   1.670   6.332  1.9709 -1.1914  0.1005
  124MOL   H19144717   3.222   1.640   6.039 -0.2664  3.1956  0.6379
  124MOL   H19244718   3.374   1.621   6.111  0.0681 -1.6530  2.1023
  124MOL   H19344719   3.215   1.869   6.179  0.6931 -0.4323  0.3324
  124MOL   H19444720   3.466   1.924   6.226 -3.0411  0.4100  0.8237
  124MOL   H19544721   3.496   1.753   6.228  2.0489  1.5746  0.4365
  124MOL   H19644722   3.388   1.822   6.346 -1.7793  0.4524 -0.0398
  124MOL   H19744723   3.344   1.968   6.021  2.3654  0.3090 -2.3776
  124MOL   H19844724   3.270   1.831   5.937 -0.9848 -1.8554  2.6773
  124MOL   H19944725   3.445   1.827   5.989 -1.5132 -5.8920  0.3794
  124MOL   C20044726   3.069   1.538   6.238  0.2240 -0.9951 -0.0210
  124MOL   C20144727   2.950   1.641   6.257 -0.7419 -0.8237 -0.1630
  124MOL   C20244728   2.927   1.667   6.410 -0.3755  0.1334  0.3159
  124MOL   C20344729   2.908   1.813   6.456 -0.7227 -0.3397 -0.3993
  124MOL   C20444730   2.855   1.819   6.604 -0.1247  0.0867 -0.2953
  124MOL   C20544731   3.030   1.906   6.431 -0.1634 -0.5611  0.5543
  124MOL   H20644732   3.049   1.459   6.311 -0.6146  0.2174  1.0884
  124MOL   H20744733   3.060   1.475   6.149  2.0319  1.4999 -2.0257
  124MOL   H20844734   2.985   1.732   6.208 -3.4556  0.7030  0.5972
  124MOL   H20944735   2.829   1.623   6.431 -0.2477 -0.1290  0.3718
  124MOL   H21044736   3.007   1.631   6.476 -0.6221 -2.6992 -0.8584
  124MOL   H21144737   2.826   1.850   6.395 -1.1115 -0.2855  0.1515
  124MOL   H21244738   2.824   1.725   6.650  0.5529 -1.0192 -2.0675
  124MOL   H21344739   2.776   1.891   6.625  0.5508  0.4195  1.1820
  124MOL   H21444740   2.942   1.856   6.657 -0.0574 -0.8306  0.2454
  124MOL   H21544741   3.046   1.924   6.324  0.8336  0.3400  0.8441
  124MOL   H21644742   3.126   1.868   6.466  0.1302 -0.8331 -0.5296
  124MOL   H21744743   3.017   2.000   6.484  1.0677  0.3390 -0.6724
  124MOL   C21844744   2.826   1.602   6.187  0.3624  0.2355 -0.5243
  124MOL   C21944745   2.836   1.627   6.035  0.0963  0.1384 -0.3311
  124MOL   C22044746   2.751   1.756   6.009  0.6358 -0.3692  0.6094
  124MOL   C22144747   2.802   1.883   6.069  0.6099 -0.0674  0.0481
  124MOL   C22244748   2.922   1.938   5.986 -0.2240  0.2659 -0.1333
  124MOL   C22344749   2.694   1.995   6.071 -0.4449  0.4115 -0.0486
  124MOL   H22444750   2.821   1.493   6.199 -0.8747  0.4963  1.4003
  124MOL   H22544751   2.736   1.636   6.236  1.1740  1.3251  0.2213
  124MOL   H22644752   2.939   1.632   5.999  0.5599  1.1495  1.1078
  124MOL   H22744753   2.735   1.765   5.901 -1.2088 -0.4427  0.8617
  124MOL   H22844754   2.652   1.736   6.048  0.1261 -1.3284 -1.1393
  124MOL   H22944755   2.833   1.871   6.173 -0.7424 -0.6303  0.3982
  124MOL   H23044756   2.993   1.855   5.982 -0.6321 -0.0493 -1.1501
  124MOL   H23144757   2.895   1.976   5.887 -2.4998 -0.5777  0.1435
  124MOL   H23244758   2.974   2.021   6.034  0.9560 -0.4961 -0.0519
  124MOL   H23344759   2.619   1.965   6.144  0.8441  0.7919  1.4787
  124MOL   H23444760   2.740   2.087   6.108 -1.8189  1.2874 -0.4852
  124MOL   H23544761   2.638   2.010   5.980 -1.0851  1.9076  0.5796
  124MOL   C23644762   2.781   1.507   5.959 -0.1329  0.2195 -0.0527
  124MOL   C23744763   2.807   1.504   5.804  0.4350 -0.2840  0.7604
  124MOL   C23844764   2.701   1.416   5.736 -0.2963 -0.3987  0.0644
  124MOL   C23944765   2.580   1.492   5.679  0.8011  0.4117 -0.2980
  124MOL   C24044766   2.627   1.557   5.545 -0.0491  0.0374  0.5721
  124MOL   C24144767   2.454   1.407   5.660  0.0866  0.2752  0.2363
  124MOL   H24244768   2.675   1.502   5.984  0.0375  0.4248  0.7392
  124MOL   H24344769   2.819   1.414   6.000 -1.5772 -0.9338 -1.2837
  124MOL   H24444770   2.792   1.605   5.766 -2.7364 -0.1306  2.1860
  124MOL   H24544771   2.668   1.337   5.803  2.0531 -1.8681 -0.4574
  124MOL   H24644772   2.744   1.354   5.658 -1.0617  0.3917 -1.0193
  124MOL   H24744773   2.560   1.563   5.759  0.9773  0.4151 -0.2569
  124MOL   H24844774   2.664   1.483   5.473 -0.2577  1.6432 -1.2270
  124MOL   H24944775   2.708   1.629   5.552 -0.3850  0.5815 -1.0447
  124MOL   H25044776   2.543   1.615   5.508  0.1609 -1.1324 -1.8419
  124MOL   H25144777   2.421   1.384   5.761 -1.0245  0.9204  0.0264
  124MOL   H25244778   2.481   1.314   5.609 -0.4032  1.2373 -1.8468
  124MOL   H25344779   2.374   1.456   5.604  0.7720 -0.8262 -1.7944
  124MOL   C25444780   2.956   1.462   5.774  0.8852  0.3483 -0.5626
  124MOL   C25544781   3.002   1.480   5.624  0.1430  0.1966 -0.1871
  124MOL   C25644782   3.123   1.578   5.603 -0.1740 -0.4136  0.6717
  124MOL   C25744783   3.092   1.718   5.644  0.1137 -0.0294  0.7720
  124MOL   C25844784   2.990   1.781   5.555  0.3456  0.0103 -0.5361
  124MOL   C25944785   3.221   1.796   5.634  0.7371  0.0471 -0.2302
  124MOL   H26044786   3.032   1.502   5.841 -0.2129 -0.0678  0.9674
  124MOL   H26144787   2.960   1.355   5.791 -0.0207  0.5747  1.2567
  124MOL   H26244788   2.918   1.509   5.560  0.4820  0.0815 -0.6860
  124MOL   H26344789   3.152   1.572   5.498  1.6621  2.4857  0.9603
  124MOL   H26444790   3.212   1.544   5.655  1.3571 -1.0090 -2.2540
  124MOL   H26544791   3.068   1.720   5.750  1.1204  1.7959  0.9859
  124MOL   H26644792   3.009   1.759   5.449 -4.4151 -2.4789 -0.9986
  124MOL   H26744793   2.979   1.889   5.566  0.1087  0.0785 -1.4022
  124MOL   H26844794   2.889   1.750   5.581 -0.2532  3.7919  1.9459
  124MOL   H26944795   3.260   1.814   5.533  1.2288  1.0403  0.1291
  124MOL   H27044796   3.203   1.892   5.681  1.1026  0.8624 -1.7055
  124MOL   H27144797   3.300   1.744   5.688  2.2154  0.2789 -2.1177
  124MOL   C27244798   3.030   1.345   5.560 -0.1769  0.6753  0.1964
  124MOL   C27344799   3.050   1.328   5.408 -0.1625 -0.2005  0.5233
  124MOL   C27444800   3.124   1.193   5.380 -0.0069  0.0568 -0.1918
  124MOL   C27544801   3.275   1.188   5.409  0.4443  0.3539 -0.4093
  124MOL   C27644802   3.360   1.245   5.290  0.5208  0.3246  0.1554
  124MOL   C27744803   3.319   1.043   5.424  0.0317 -0.1003  0.3473
  124MOL   H27844804   3.102   1.297   5.627  0.9217  0.0947 -1.3686
  124MOL   H27944805   2.949   1.275   5.580  0.6559 -0.6139 -0.8917
  124MOL   H28044806   3.131   1.394   5.375 -0.7625  1.3867  2.1059
  124MOL   H28144807   3.107   1.148   5.282 -0.8683  0.0233 -0.0252
  124MOL   H28244808   3.082   1.120   5.450  2.8324  0.3682  1.9523
  124MOL   H28344809   3.301   1.246   5.498 -1.8533 -0.9856  1.1626
  124MOL   H28444810   3.466   1.246   5.314  0.6482 -0.9222 -0.3307
  124MOL   H28544811   3.348   1.187   5.199  0.4121 -0.2863  0.5570
  124MOL   H28644812   3.325   1.345   5.264  1.1103 -0.4081 -3.6621
  124MOL   H28744813   3.305   0.997   5.326 -1.1972  1.9647 -0.4723
  124MOL   H28844814   3.426   1.035   5.444  0.6192  0.1208 -2.4436
  124MOL   H28944815   3.264   1.001   5.509  0.2742 -0.1842  0.4621
  124MOL   C29044816   2.912   1.335   5.326 -0.3603 -0.6781 -0.3247
  124MOL   C29144817   2.926   1.353   5.174 -0.3655  0.3794  0.1936
  124MOL   C29244818   2.795   1.312   5.092  0.0733  0.1369 -0.4657
  124MOL   C29344819   2.671   1.405   5.089  0.1851 -0.3567 -0.3082
  124MOL   C29444820   2.580   1.386   4.961 -0.1811  0.7066 -0.1871
  124MOL   C29544821   2.579   1.368   5.208  0.2458 -0.2677  0.4736
  124MOL   H29644822   2.855   1.243   5.335 -1.1025 -0.1264  0.7131
  124MOL   H29744823   2.854   1.421   5.359  1.3392  0.1809  0.4960
  124MOL   H29844824   3.006   1.282   5.150 -1.1875 -0.8263  0.9155
  124MOL   H29944825   2.759   1.218   5.132 -1.2512  1.6381  2.0003
  124MOL   H30044826   2.833   1.291   4.992 -0.6292 -2.6408 -0.1953
  124MOL   H30144827   2.695   1.510   5.105 -2.1889  0.2361 -0.4199
  124MOL   H30244828   2.524   1.292   4.955  0.1071  0.2472  3.3381
  124MOL   H30344829   2.638   1.388   4.869 -1.3678 -0.3760 -0.9698
  124MOL   H30444830   2.519   1.474   4.942  0.8080  1.6550  0.9704
  124MOL   H30544831   2.528   1.449   5.260  3.7730  1.0380  2.0930
  124MOL   H30644832   2.629   1.315   5.290  4.4959  1.2242 -0.9953
  124MOL   H30744833   2.501   1.294   5.188 -0.0722  0.0734  0.4452
  124MOL   C30844834   2.971   1.496   5.133 -0.8271  0.8734 -0.1265
  124MOL   C30944835   3.030   1.513   4.991  0.5625  0.3338  0.0881
  124MOL   C31044836   3.036   1.656   4.942 -0.6593 -0.1411  0.2120
  124MOL   C31144837   2.895   1.721   4.934 -0.1448  0.2146 -0.5379
  124MOL   C31244838   2.898   1.877   4.958 -0.0386  0.9042  0.4806
  124MOL   C31344839   2.833   1.692   4.806  0.0578 -0.4646  0.2455
  124MOL   H31444840   2.894   1.570   5.152 -1.5955  0.6420 -2.1413
  124MOL   H31544841   3.046   1.523   5.207  0.9283 -0.0426 -1.5115
  124MOL   H31644842   2.963   1.468   4.918  0.7047  0.6415 -0.2363
  124MOL   H31744843   3.088   1.657   4.845 -2.1449 -0.3523 -0.5941
  124MOL   H31844844   3.098   1.713   5.012 -0.1924  0.1819 -0.4541
  124MOL   H31944845   2.832   1.681   5.013 -0.8493 -0.6712 -1.5360
  124MOL   H32044846   2.966   1.896   5.041 -0.9210 -0.0626  1.4461
  124MOL   H32144847   2.804   1.930   4.976 -0.9449 -1.2905  2.4286
  124MOL   H32244848   2.940   1.945   4.884 -0.7502  0.9002  0.0662
  124MOL   H32344849   2.890   1.736   4.725 -1.8724 -0.6164 -1.2316
  124MOL   H32444850   2.820   1.585   4.788  0.3191 -0.4799  0.1516
  124MOL   H32544851   2.737   1.743   4.805 -1.0514 -2.4077  1.5724
  124MOL   C32644852   3.172   1.446   4.974  0.2013 -0.0736 -1.1578
  124MOL   C32744853   3.215   1.417   4.828 -0.3620 -0.1692  0.3559
  124MOL   C32844854   3.231   1.268   4.794 -0.1791 -0.0583 -0.1961
  124MOL   C32944855   3.095   1.189   4.795  0.1997  0.1302 -0.0719
  124MOL   C33044856   2.986   1.242   4.707  0.4694 -0.2659  0.0273
  124MOL   C33144857   3.122   1.045   4.768  0.2933  0.6889 -0.5381
  124MOL   H33244858   3.157   1.346   5.014 -0.9971 -0.0270 -1.4730
  124MOL   H33344859   3.235   1.483   5.055 -2.0368 -0.9188  1.0317
  124MOL   H33444860   3.139   1.467   4.768 -0.1761 -0.2036  0.0922
  124MOL   H33544861   3.276   1.266   4.694  0.6321  4.3300 -0.0473
  124MOL   H33644862   3.303   1.220   4.860 -1.1807 -1.3188 -0.0066
  124MOL   H33744863   3.051   1.193   4.895 -1.6652  0.3875 -0.8808
  124MOL   H33844864   2.899   1.179   4.720 -0.3892  0.7185 -0.8770
  124MOL   H33944865   3.024   1.236   4.605  2.7588 -0.2573  0.8425
  124MOL   H34044866   2.942   1.339   4.732 -0.7902 -1.1343  1.2483
  124MOL   H34144867   3.185   1.000   4.845  1.0381  3.9875  0.8635
  124MOL   H34244868   3.029   0.992   4.750 -0.1097  1.4150 -0.6110
  124MOL   H34344869   3.179   1.035   4.676  1.8659 -0.9663  0.5915
  124MOL   C34444870   3.339   1.497   4.798 -0.2247 -0.7333  0.1629
  124MOL   C34544871   3.464   1.442   4.876 -0.2452  0.1582  0.1553
  124MOL   C34644872   3.596   1.513   4.844  0.4552 -0.6918  0.1400
  124MOL   C34744873   3.727   1.485   4.930  0.1814  0.4185  0.3376
  124MOL   C34844874   3.843   1.561   4.872 -0.6691  0.0334 -0.1629
  124MOL   C34944875   3.758   1.335   4.932 -0.3589  0.0194  0.9680
  124MOL   H35044876   3.325   1.604   4.812 -0.8811 -0.9391  1.1120
  124MOL   H35144877   3.365   1.486   4.693 -4.0990  1.8475 -1.1751
  124MOL   H35244878   3.470   1.340   4.838 -1.9384  0.0106  0.2322
  124MOL   H35344879   3.625   1.483   4.743  0.2245 -1.4811  0.3116
  124MOL   H35444880   3.578   1.620   4.829 -1.0093 -0.9312  0.1029
  124MOL   H35544881   3.706   1.521   5.030 -2.2068 -0.0136  0.0206
  124MOL   H35644882   3.820   1.665   4.850 -0.6565  0.0466 -0.1139
  124MOL   H35744883   3.932   1.559   4.935  0.6624 -0.0555 -2.0092
  124MOL   H35844884   3.881   1.526   4.776  1.6022  0.8150  0.4077
  124MOL   H35944885   3.731   1.296   4.834  0.2978 -1.0865  1.2128
  124MOL   H36044886   3.692   1.292   5.007 -1.3428  2.7704  1.7257
  124MOL   H36144887   3.861   1.316   4.965 -0.2148  0.4119  0.7443
  124MOL   H36244888   3.446   1.427   4.982 -0.7079 -1.4718 -0.1315
  125MOL     C144889   7.515   5.439   7.547  0.1484  0.1059  0.4929
  125MOL     C244890   7.641   5.352   7.582  0.6094  0.5398  1.1227
  125MOL     C344891   7.623   5.201   7.533  0.1048  0.3441  0.6409
  125MOL     C444892   7.622   5.183   7.386  0.0582 -0.4110  0.1003
  125MOL     C544893   7.555   5.053   7.349 -0.2541 -0.4604  0.1110
  125MOL     C644894   0.012   5.194   7.326 -0.0200 -0.0112  0.0238
  125MOL     H744895   7.418   5.390   7.554  0.9302 -1.8453 -1.6447
  125MOL     H844896   7.507   5.522   7.617 -0.0422  1.6280 -1.3118
  125MOL     H944897   7.727   5.389   7.526 -0.2097 -2.1682 -2.0410
  125MOL    H1044898   7.711   5.144   7.566  1.2733  1.3298 -0.7171
  125MOL    H1144899   7.542   5.152   7.587  0.5857 -0.4701  0.6439
  125MOL    H1244900   7.564   5.262   7.339  0.8982 -1.3043 -2.5670
  125MOL    H1344901   7.588   4.965   7.405  1.0613 -0.7712 -1.0889
  125MOL    H1444902   7.448   5.071   7.359  0.2600  2.2203  1.1812
  125MOL    H1544903   7.564   5.036   7.241 -0.5499 -1.4243  0.2342
  125MOL    H1644904   0.053   5.294   7.337  2.0160 -0.9328  1.0012
  125MOL    H1744905   0.010   5.183   7.218  0.8223 -1.8653  0.1725
  125MOL    H1844906   0.080   5.126   7.379  1.3963  0.2387 -1.4468
  125MOL    H1944907   7.519   5.480   7.446  0.0050 -1.6725 -0.2518
  125MOL    C2044908   7.661   5.352   7.738  0.4925  0.1726  0.0863
  125MOL    C2144909   0.056   5.322   0.031 -0.1123  0.0183  0.0700
  125MOL    C2244910   0.152   5.441   7.744  0.0513 -0.1308  0.5245
  125MOL    C2344911   0.301   5.412   7.744 -0.0570 -0.2133 -0.2830
  125MOL    C2444912   0.343   5.323   7.624 -0.3040  0.2465  0.2133
  125MOL    C2544913   0.382   5.544   7.751  0.4383 -0.3804 -0.1917
  125MOL    H2644914   7.641   5.451   0.027  0.4951 -0.5394  1.8407
  125MOL    H2744915   7.593   5.276   0.025 -1.4474  1.9540  0.2324
  125MOL    H2844916   0.090   5.236   7.726 -0.2077  1.7692 -2.6848
  125MOL    H2944917   0.127   5.515   0.068  1.2263  0.4311  0.3817
  125MOL    H3044918   0.123   5.490   7.651  1.7419  1.0040  0.5687
  125MOL    H3144919   0.321   5.353   0.081 -0.4502  1.6298  1.0365
  125MOL    H3244920   0.305   5.223   7.645 -0.6172  0.4875  0.8102
  125MOL    H3344921   0.449   5.298   7.617  0.7680  3.9268  1.7073
  125MOL    H3444922   0.317   5.370   7.529 -0.9489 -0.5690 -0.0147
  125MOL    H3544923   0.347   5.599   7.663  1.4531  0.3358 -0.1591
  125MOL    H3644924   0.343   5.591   0.089  1.5768 -0.0649  0.1538
  125MOL    H3744925   0.491   5.538   7.750  0.4886 -0.1408  1.8640
  125MOL    C3844926   0.057   5.290   0.184  0.1184  0.4610 -0.2110
  125MOL    C3944927   0.134   5.165   0.222 -0.0367  0.6464 -0.8246
  125MOL    C4044928   0.082   5.030   0.157  0.5284 -0.3765 -0.4048
  125MOL    C4144929   0.196   4.957   0.091  0.7426 -0.0312  0.1350
  125MOL    C4244930   0.137   4.856   7.748 -0.0659  0.7542  0.1476
  125MOL    C4344931   0.280   4.881   0.191 -0.1526  0.5627  0.3321
  125MOL    H4444932   7.708   5.286   0.222  0.5794  2.0950  1.2802
  125MOL    H4544933   0.097   5.372   0.244 -0.5720 -0.4250  1.4864
  125MOL    H4644934   0.239   5.182   0.199 -0.1573 -0.2120 -2.0235
  125MOL    H4744935   0.018   5.057   0.072 -1.2216 -1.0835  0.6610
  125MOL    H4844936   0.027   4.972   0.231  1.9589  0.4409  1.3173
  125MOL    H4944937   0.254   5.029   0.035 -1.3193  1.7061  0.1576
  125MOL    H5044938   0.110   4.905   7.655 -2.0915 -1.3168 -0.3955
  125MOL    H5144939   0.208   4.777   7.723 -2.7799 -1.5468 -0.5931
  125MOL    H5244940   0.046   4.809   0.033  0.4219  0.3734  0.8642
  125MOL    H5344941   0.345   4.944   0.251  0.7905 -0.6659  0.6377
  125MOL    H5444942   0.366   4.832   0.145  0.4156  0.5850  1.3457
  125MOL    H5544943   0.234   4.801   0.250  1.7467 -1.0959 -0.3649
  125MOL    C5644944   0.138   5.137   0.379 -0.0108 -0.0912  0.2097
  125MOL    C5744945   0.215   5.237   0.477  0.2664  0.7419  0.5585
  125MOL    C5844946   0.362   5.268   0.434 -0.4745  0.2803 -0.9549
  125MOL    C5944947   0.444   5.373   0.511  0.5795  1.0285 -0.7976
  125MOL    C6044948   0.397   5.516   0.503  0.0983  0.0782 -0.3302
  125MOL    C6144949   0.588   5.361   0.483  0.1465 -0.1811  0.1603
  125MOL    H6244950   0.177   5.037   0.397 -1.2362 -0.3563  1.5272
  125MOL    H6344951   0.031   5.142   0.402 -0.3716 -1.7411 -1.0286
  125MOL    H6444952   0.169   5.336   0.466 -0.3271  0.3430 -0.6477
  125MOL    H6544953   0.415   5.173   0.441  1.1025  1.0874 -1.6518
  125MOL    H6644954   0.367   5.298   0.329 -2.1444 -0.7545 -1.3492
  125MOL    H6744955   0.431   5.355   0.618  1.2441  0.9299 -0.7277
  125MOL    H6844956   0.302   5.521   0.556  0.9298 -0.1122  1.1925
  125MOL    H6944957   0.389   5.570   0.409  1.2976 -0.2322 -0.6184
  125MOL    H7044958   0.459   5.585   0.561  0.0354  0.5665 -0.8360
  125MOL    H7144959   0.606   5.415   0.390  0.2339 -0.7984 -0.1863
  125MOL    H7244960   0.626   5.259   0.472  1.5345  0.5172 -2.0364
  125MOL    H7344961   0.648   5.409   0.560  1.3743  0.8598 -1.3910
  125MOL    C7444962   0.186   5.195   0.626  0.4255 -0.2010 -0.0667
  125MOL    C7544963   0.037   5.233   0.685 -0.1078  0.8815  0.2254
  125MOL    C7644964   0.029   5.390   0.706  0.4577  0.1057 -0.4779
  125MOL    C7744965   7.641   5.454   0.738  0.1138  0.3903  0.7111
  125MOL    C7844966   7.555   5.426   0.611  0.5813  0.0230 -0.7486
  125MOL    C7944967   7.662   5.600   0.762  0.5351  0.7111  0.1105
  125MOL    H8044968   0.265   5.225   0.696  1.2502 -1.4806 -0.4246
  125MOL    H8144969   0.186   5.086   0.623  0.8049 -0.2337  0.8383
  125MOL    H8244970   7.716   5.210   0.608  0.7890 -1.3468 -0.0292
  125MOL    H8344971   0.105   5.411   0.781 -0.9486 -0.6998  1.2150
  125MOL    H8444972   0.070   5.437   0.617 -0.2713 -3.5114 -2.8045
  125MOL    H8544973   7.593   5.420   0.830  1.3451 -3.2869  0.0717
  125MOL    H8644974   7.472   5.358   0.626  0.1778  0.4338 -1.0987
  125MOL    H8744975   7.616   5.383   0.531  1.4117 -1.9758  0.9152
  125MOL    H8844976   7.520   5.522   0.572  2.6504  0.5759 -1.3676
  125MOL    H8944977   7.594   5.677   0.724 -1.2305 -0.8916 -0.0269
  125MOL    H9044978   7.691   5.607   0.867  1.6179  2.1188 -0.2640
  125MOL    H9144979   0.006   5.622   0.715  0.2971 -0.3936 -0.8966
  125MOL    C9244980   0.007   5.150   0.811 -0.1285 -0.4517 -0.1019
  125MOL    C9344981   7.687   5.016   0.779 -0.3579 -0.3604 -0.9058
  125MOL    C9444982   7.729   4.896   0.870 -0.6849 -0.5888 -0.2288
  125MOL    C9544983   0.126   4.846   0.856 -0.1280 -0.5258 -0.4689
  125MOL    C9644984   0.149   4.744   0.971  0.5066 -0.3558 -0.1255
  125MOL    C9744985   0.133   4.782   0.719 -1.2011 -0.5559  0.4415
  125MOL    H9844986   0.098   5.115   0.859 -1.1715 -1.3383  1.2898
  125MOL    H9944987   7.710   5.201   0.894 -1.4240  1.0463 -1.7688
  125MOL   H10044988   7.724   4.991   0.681  0.3593  1.0060 -1.0010
  125MOL   H10144989   7.663   4.812   0.844  0.3091 -0.9389 -1.6773
  125MOL   H10244990   7.700   4.920   0.972  0.6377  1.6633 -0.3616
  125MOL   H10344991   0.199   4.926   0.872  0.1070 -0.7457 -0.4185
  125MOL   H10444992   0.164   4.787   1.070 -2.0397  0.2608  0.0244
  125MOL   H10544993   0.234   4.683   0.942  0.3874 -0.3238 -0.5410
  125MOL   H10644994   0.059   4.685   0.986  0.1248  0.4183  0.7338
  125MOL   H10744995   0.121   4.858   0.641 -4.5117 -2.0135 -0.5593
  125MOL   H10844996   0.053   4.712   0.693  0.8852 -1.9561 -2.4920
  125MOL   H10944997   0.229   4.731   0.714 -1.2995 -0.6544 -0.8322
  125MOL   C11044998   7.529   5.034   0.775  0.1661  0.9255 -0.0769
  125MOL   C11144999   7.458   4.952   0.670  0.6172  0.3134  0.6891
  125MOL   C11245000   7.308   4.943   0.698 -0.5627 -0.5378  0.6673
  125MOL   C11345001   7.268   4.860   0.816  0.3109  0.5206 -0.0857
  125MOL   C11445002   7.305   4.710   0.819 -0.0290  0.2362 -0.1190
  125MOL   C11545003   7.112   4.866   0.830 -0.6477  0.0151  0.1076
  125MOL   H11645004   7.490   5.135   0.770 -1.2228  0.3091 -2.2317
  125MOL   H11745005   7.491   5.016   0.875  0.4369  2.9895  0.4148
  125MOL   H11845006   7.502   4.853   0.658  0.9680  0.5321  0.1331
  125MOL   H11945007   7.254   4.898   0.614  0.1463  0.8098 -0.5467
  125MOL   H12045008   7.260   5.040   0.710  0.2557 -0.0604  0.1134
  125MOL   H12145009   7.313   4.902   0.905  1.6873 -0.6296 -0.2164
  125MOL   H12245010   7.269   4.654   0.905  0.1761 -1.3911 -1.0713
  125MOL   H12345011   7.413   4.706   0.805  0.0523 -1.7622  0.8967
  125MOL   H12445012   7.259   4.677   0.726 -1.9311 -3.2135  1.9265
  125MOL   H12545013   7.063   4.808   0.752 -0.5867  0.4505 -0.2504
  125MOL   H12645014   7.071   4.967   0.831  1.5717  0.9425  0.1082
  125MOL   H12745015   7.073   4.807   0.913 -1.1730 -0.9394 -0.8179
  125MOL   C12845016   7.476   5.018   0.533 -0.3702  0.1016  0.2648
  125MOL   C12945017   7.433   4.935   0.406 -0.3036 -0.2688  0.1009
  125MOL   C13045018   7.502   4.791   0.389  0.6283 -0.5497 -0.3442
  125MOL   C13145019   7.404   4.678   0.357  0.2960  0.2468 -0.4088
  125MOL   C13245020   7.337   4.692   0.219 -0.4081 -0.8025  0.1853
  125MOL   C13345021   7.466   4.540   0.362 -0.0326  0.4234 -0.1663
  125MOL   H13445022   7.579   5.050   0.515 -0.7698  0.9838 -0.5389
  125MOL   H13545023   7.419   5.111   0.539 -2.6349 -1.1275 -1.3224
  125MOL   H13645024   7.326   4.919   0.418 -0.6879  2.0875  0.1627
  125MOL   H13745025   7.575   4.799   0.309  1.0116 -1.2277 -0.0692
  125MOL   H13845026   7.559   4.763   0.478 -0.9748 -2.4683  0.1234
  125MOL   H13945027   7.322   4.683   0.429 -0.6488  1.7658 -1.5777
  125MOL   H14045028   7.410   4.669   0.141 -1.2363  0.0594 -0.8561
  125MOL   H14145029   7.301   4.794   0.210  0.9768 -0.0573  2.5799
  125MOL   H14245030   7.257   4.620   0.204 -1.0310 -0.0356 -0.2121
  125MOL   H14345031   7.388   4.466   0.349 -0.4105  0.5354  1.4690
  125MOL   H14445032   7.535   4.517   0.280 -2.8997  1.0764 -2.8479
  125MOL   H14545033   7.512   4.522   0.459 -1.4064 -0.4379  0.3292
  125MOL   C14645034   7.455   5.017   0.275 -0.0149 -0.0758  0.0802
  125MOL   C14745035   7.338   5.106   0.229 -0.1334 -0.2743  0.0945
  125MOL   C14845036   7.324   5.115   0.070  0.2796 -0.4028  0.4443
  125MOL   C14945037   7.181   5.122   0.010 -0.5762  0.4331 -0.3248
  125MOL   C15045038   7.188   5.108   7.604  0.1953  0.1556  0.3702
  125MOL   C15145039   7.097   5.010   0.074  0.4622 -0.3967 -0.1314
  125MOL   H15245040   7.487   4.949   0.195  0.6175  0.0338  0.2372
  125MOL   H15345041   7.549   5.072   0.286 -0.0122 -0.2479  0.9321
  125MOL   H15445042   7.251   5.051   0.266 -1.3651  1.1569 -0.6581
  125MOL   H15545043   7.383   5.201   0.036 -0.3785  0.2725  1.0095
  125MOL   H15645044   7.372   5.027   0.026  0.1162 -0.4609  0.3811
  125MOL   H15745045   7.129   5.217   0.027 -1.4669  0.3020 -2.1105
  125MOL   H15845046   7.210   5.202   7.553  1.2043 -0.3731 -0.1884
  125MOL   H15945047   7.086   5.091   7.569  0.5206 -0.8150 -0.1306
  125MOL   H16045048   7.255   5.031   7.566  2.3992  1.4705  1.4748
  125MOL   H16145049   7.006   4.997   0.014 -0.6966 -3.4177  2.1022
  125MOL   H16245050   7.058   5.028   0.174 -2.3425  0.7982 -1.3778
  125MOL   H16345051   7.144   4.912   0.081 -0.0641 -0.6853 -0.5547
  125MOL   C16445052   7.338   5.243   0.287  0.6024 -0.4608 -0.8220
  125MOL   C16545053   7.200   5.296   0.323  0.0501 -0.0595  0.1540
  125MOL   C16645054   7.152   5.221   0.451  0.1625 -0.6706  0.4754
  125MOL   C16745055   7.007   5.239   0.487  0.0452 -0.4541 -0.5197
  125MOL   C16845056   6.912   5.199   0.377  0.5298  0.2400  0.1235
  125MOL   C16945057   6.981   5.167   0.619 -0.4579 -0.3928 -0.6360
  125MOL   H17045058   7.404   5.244   0.374  0.8309  2.4465 -0.9797
  125MOL   H17145059   7.396   5.316   0.231 -0.7105 -0.0152 -1.6393
  125MOL   H17245060   7.148   5.268   0.231  4.0020 -2.1061 -1.5540
  125MOL   H17345061   7.167   5.115   0.427  3.3431 -0.4299  1.2133
  125MOL   H17445062   7.209   5.260   0.536  0.4671 -1.1964  0.5178
  125MOL   H17545063   7.004   5.345   0.512  1.6788 -0.0980 -1.7552
  125MOL   H17645064   6.930   5.113   0.312 -1.0593  0.1521 -0.2143
  125MOL   H17745065   6.911   5.280   0.304  1.9823 -0.7547 -1.0462
  125MOL   H17845066   6.812   5.185   0.417  0.3224 -0.6404 -0.6739
  125MOL   H17945067   6.983   5.058   0.609 -2.0869 -0.5735  0.8047
  125MOL   H18045068   6.883   5.188   0.661 -0.1312 -1.7631  0.8476
  125MOL   H18145069   7.056   5.203   0.689 -2.1262  0.8930  0.5439
  125MOL   C18245070   7.205   5.450   0.349  0.4042  0.2240 -0.4399
  125MOL   C18345071   7.168   5.534   0.225  0.2169  0.2291  0.1412
  125MOL   C18445072   7.010   5.550   0.211  0.2826 -0.5088 -0.5004
  125MOL   C18545073   6.947   5.467   0.102  0.3682 -0.5592 -0.0688
  125MOL   C18645074   6.795   5.464   0.120 -0.0004  0.0493 -0.5803
  125MOL   C18745075   6.962   5.524   7.714  0.1354 -0.1419  0.7456
  125MOL   H18845076   7.308   5.483   0.366  0.6236 -0.1851 -0.9396
  125MOL   H18945077   7.146   5.483   0.434  2.9916  1.6345  0.8612
  125MOL   H19045078   7.207   5.486   0.136 -0.0598  0.8126 -0.3009
  125MOL   H19145079   6.978   5.654   0.213  0.8159 -0.3400 -0.6735
  125MOL   H19245080   6.960   5.505   0.296 -0.6231  1.8549  0.2653
  125MOL   H19345081   6.976   5.363   0.115 -1.2695 -0.9278  0.7638
  125MOL   H19445082   6.773   5.438   0.224  0.3786 -0.2962 -0.5877
  125MOL   H19545083   6.739   5.399   0.052 -1.9457  0.5134  0.5442
  125MOL   H19645084   6.749   5.560   0.098 -0.8012 -0.2997 -0.4526
  125MOL   H19745085   6.909   5.453   7.650  0.2165  1.1022 -0.7133
  125MOL   H19845086   7.065   5.530   7.679 -0.0259 -1.7203 -0.0322
  125MOL   H19945087   6.923   5.625   7.702 -1.8065 -0.9535  0.0774
  125MOL   C20045088   7.228   5.678   0.244 -0.3482 -0.0296 -0.3937
  125MOL   C20145089   7.179   5.792   0.152 -0.4703 -0.4591 -0.3729
  125MOL   C20245090   7.294   5.858   0.080 -0.5630 -0.7099 -0.6126
  125MOL   C20345091   7.345   5.778   7.710 -0.0950  0.2813 -0.1850
  125MOL   C20445092   7.246   5.802   7.592 -0.3603  0.0160 -0.1226
  125MOL   C20545093   7.479   5.830   7.660 -0.0677 -0.0920 -0.1223
  125MOL   H20645094   7.336   5.668   0.229 -0.1678 -2.4044  1.9576
  125MOL   H20745095   7.226   5.708   0.349 -2.5496 -1.0645 -0.1225
  125MOL   H20845096   7.101   5.774   0.078 -1.1008  3.2911 -0.7131
  125MOL   H20945097   7.284   5.963   0.053 -0.7547 -0.5242  0.1860
  125MOL   H21045098   7.376   5.883   0.147 -1.2423  0.3792 -0.1868
  125MOL   H21145099   7.367   5.675   7.735  1.8275  0.3208 -1.6377
  125MOL   H21245100   7.251   5.910   7.585 -0.2592  0.2053  2.3956
  125MOL   H21345101   7.144   5.769   7.615 -0.7333 -0.3036 -2.1604
  125MOL   H21445102   7.283   5.744   7.508  0.3046 -0.9484  0.8235
  125MOL   H21545103   7.556   5.820   7.736  0.9274 -1.6160 -1.3080
  125MOL   H21645104   7.471   5.936   7.636 -3.0593 -0.3535 -0.4883
  125MOL   H21745105   7.511   5.767   7.577 -0.2287  1.7030 -1.5817
  125MOL   C21845106   7.101   5.896   0.235 -0.3565  0.2041  0.0617
  125MOL   C21945107   7.021   5.999   0.148  0.5888 -0.7003 -0.0348
  125MOL   C22045108   7.006   6.134   0.223 -0.4066 -0.5182 -0.3887
  125MOL   C22145109   7.136   6.216   0.230 -0.1211 -0.2510 -0.2608
  125MOL   C22245110   7.168   6.282   0.098  0.1435  0.3105  0.2975
  125MOL   C22345111   7.131   6.311   0.344 -0.2870 -0.0868  0.9893
  125MOL   H22445112   7.033   5.850   0.306 -1.3708  0.4342 -0.7438
  125MOL   H22545113   7.170   5.947   0.302 -1.0089  2.3034 -0.8059
  125MOL   H22645114   7.072   6.016   0.053  0.3896 -0.1040 -0.0358
  125MOL   H22745115   6.931   6.199   0.180 -0.9798 -0.8967  0.0324
  125MOL   H22845116   6.977   6.106   0.324 -1.6006  2.1387  0.0293
  125MOL   H22945117   7.223   6.152   0.239  0.3897  0.6427  1.3604
  125MOL   H23045118   7.084   6.342   0.066 -1.0043  0.0058  2.6187
  125MOL   H23145119   7.254   6.348   0.112  2.1118 -1.6757 -1.9413
  125MOL   H23245120   7.190   6.206   0.022  0.3528  0.0570  0.6085
  125MOL   H23345121   7.040   6.370   0.347 -0.0374  0.4054 -0.5416
  125MOL   H23445122   7.124   6.253   0.435 -2.4554  1.5678  1.9232
  125MOL   H23545123   7.225   6.364   0.360  0.6854 -1.7592  0.9205
  125MOL   C23645124   6.886   5.948   0.099 -0.1899  0.8222  0.3191
  125MOL   C23745125   6.824   6.032   7.736 -0.4525  0.6859 -0.2470
  125MOL   C23845126   6.675   6.012   7.737 -0.2725 -0.4747  0.1784
  125MOL   C23945127   6.595   6.088   0.083  0.2119 -0.1421 -0.2088
  125MOL   C24045128   6.590   6.244   0.063  0.0745  0.4131  1.1298
  125MOL   C24145129   6.445   6.041   0.079 -0.2929 -0.3406 -0.0251
  125MOL   H24245130   6.820   5.953   0.186  1.3439  1.6737  1.4636
  125MOL   H24345131   6.896   5.848   0.056  2.2518  0.6100  1.3022
  125MOL   H24445132   6.849   6.138   7.747  2.8127  0.0339 -0.7548
  125MOL   H24545133   6.655   5.906   0.001  3.2985 -1.2682 -0.2176
  125MOL   H24645134   6.647   6.041   7.636  3.8320  0.4718 -0.7717
  125MOL   H24745135   6.629   6.067   0.184 -2.0105  1.1580  0.8434
  125MOL   H24845136   6.522   6.273   0.143 -0.0666  1.5545  0.6068
  125MOL   H24945137   6.547   6.258   7.716 -1.9344 -3.2779  1.3959
  125MOL   H25045138   6.693   6.280   0.064  0.2473 -0.0796  0.9436
  125MOL   H25145139   6.399   6.089   0.165 -0.2203 -2.4528  1.2111
  125MOL   H25245140   6.434   5.934   0.095 -0.5519 -0.3967 -0.5652
  125MOL   H25345141   6.405   6.087   7.741  3.5090 -1.4034 -2.3565
  125MOL   C25445142   6.894   5.997   7.599  0.4153  0.1103 -0.2421
  125MOL   C25545143   6.878   6.108   7.492  0.0864 -0.2671 -0.4322
  125MOL   C25645144   6.978   6.220   7.515 -0.0407  0.1848  0.0211
  125MOL   C25745145   6.976   6.351   7.428  0.8206 -0.0265 -0.2372
  125MOL   C25845146   7.102   6.429   7.468  0.5354  0.0136 -0.0823
  125MOL   C25945147   6.839   6.428   7.451  0.7634  0.0682  0.5924
  125MOL   H26045148   6.999   5.978   7.622 -0.0073 -1.2500  0.6216
  125MOL   H26145149   6.851   5.899   7.577 -1.8603  1.0219 -0.0318
  125MOL   H26245150   6.777   6.147   7.508 -0.9575 -2.5506 -1.2945
  125MOL   H26345151   7.083   6.190   7.520  0.5779  2.3164  0.5676
  125MOL   H26445152   6.971   6.251   7.620 -0.7169 -1.9853  0.6473
  125MOL   H26545153   6.983   6.320   7.323  2.1050  1.7358 -0.6911
  125MOL   H26645154   7.136   6.432   7.571  0.1750  0.4745  0.0230
  125MOL   H26745155   7.105   6.533   7.435  2.3489  0.2770  0.8534
  125MOL   H26845156   7.182   6.377   7.414  0.0620 -0.0709 -0.7084
  125MOL   H26945157   6.754   6.364   7.428  0.7963 -0.5005  2.0027
  125MOL   H27045158   6.810   6.475   7.544  0.2218  0.4286  0.2414
  125MOL   H27145159   6.844   6.509   7.378 -3.1235  0.6308  0.8738
  125MOL   C27245160   6.899   6.043   7.356  0.4401  0.2020 -0.2737
  125MOL   C27345161   6.764   5.987   7.304 -0.0264  0.0859  0.3653
  125MOL   C27445162   6.674   6.097   7.241 -0.3641 -0.0248  0.2410
  125MOL   C27545163   6.524   6.078   7.226 -0.4570 -0.0115 -0.0337
  125MOL   C27645164   6.469   6.199   7.159 -0.2283 -0.8791 -0.5786
  125MOL   C27745165   6.459   6.065   7.364  0.4150  0.1716 -0.1395
  125MOL   H27845166   6.938   6.110   7.280 -2.7654  0.7633 -1.5237
  125MOL   H27945167   6.971   5.962   7.363  1.3320  0.9980 -0.1900
  125MOL   H28045168   6.713   5.940   7.388  0.9223 -1.0416  0.3160
  125MOL   H28145169   6.717   6.122   7.144  0.6446  0.9019  0.9068
  125MOL   H28245170   6.677   6.178   7.314  5.0080  0.9487 -0.8289
  125MOL   H28345171   6.501   5.991   7.165  0.3119  0.3719 -0.8785
  125MOL   H28445172   6.367   6.177   7.130 -1.7149  2.3509  1.9125
  125MOL   H28545173   6.474   6.288   7.221  0.0379  0.4442 -2.4586
  125MOL   H28645174   6.527   6.233   7.073  1.8182 -1.1006  0.6842
  125MOL   H28745175   6.481   5.979   7.427 -0.0180  0.4672  0.4259
  125MOL   H28845176   6.485   6.145   7.434  0.3182  1.5455 -1.6448
  125MOL   H28945177   6.350   6.059   7.359  0.2359  1.4430  1.6605
  125MOL   C29045178   6.771   5.865   7.207 -0.3496  1.4402 -0.6311
  125MOL   C29145179   6.823   5.727   7.253  0.2596 -0.2255  0.5015
  125MOL   C29245180   6.703   5.661   7.312 -0.5770 -0.3304 -0.1941
  125MOL   C29345181   6.735   5.565   7.427 -0.6216 -0.5614 -0.5423
  125MOL   C29445182   6.606   5.514   7.497  0.5364 -0.1675  0.5309
  125MOL   C29545183   6.843   5.457   7.401  0.3352  0.0159  0.1991
  125MOL   H29645184   6.678   5.856   7.152 -0.2455  0.5038 -0.6714
  125MOL   H29745185   6.834   5.883   7.120 -1.1460  0.1811 -1.4882
  125MOL   H29845186   6.895   5.729   7.334 -0.3543 -2.0724  1.1235
  125MOL   H29945187   6.640   5.618   7.234 -1.8475  1.0783  0.0306
  125MOL   H30045188   6.633   5.732   7.356  0.9369  1.7634 -1.0668
  125MOL   H30145189   6.778   5.637   7.497 -2.8064  0.7574 -0.4707
  125MOL   H30245190   6.541   5.471   7.421 -2.7498  3.2189  1.2927
  125MOL   H30345191   6.540   5.589   7.541  0.8862  1.0588 -0.9840
  125MOL   H30445192   6.621   5.447   7.581 -2.1404 -2.0377 -0.4264
  125MOL   H30545193   6.944   5.494   7.380 -0.3577  3.6717  2.8931
  125MOL   H30645194   6.807   5.399   7.315 -0.3679  1.3386 -0.4014
  125MOL   H30745195   6.846   5.386   7.484 -0.5667  0.5244  0.6689
  125MOL   C30845196   6.873   5.643   7.136 -0.0282 -0.1726 -0.1891
  125MOL   C30945197   7.022   5.664   7.081 -0.4086  0.3234  0.9185
  125MOL   C31045198   7.125   5.633   7.190 -0.2931  0.1482 -0.3459
  125MOL   C31145199   7.267   5.680   7.154 -0.0273  0.0558 -0.4316
  125MOL   C31245200   7.303   5.833   7.174  0.1021 -0.3487 -0.3263
  125MOL   C31345201   7.375   5.600   7.233 -0.2672 -0.5324 -0.7395
  125MOL   H31445202   6.843   5.540   7.157  0.9729 -0.1401  1.4512
  125MOL   H31545203   6.807   5.666   7.052 -0.6880  0.6666  0.5379
  125MOL   H31645204   7.023   5.764   7.038 -0.6420 -0.4998 -1.1002
  125MOL   H31745205   7.120   5.527   7.215  1.3735  0.5679  1.9338
  125MOL   H31845206   7.092   5.691   7.276 -0.0606  0.5357 -0.5158
  125MOL   H31945207   7.291   5.659   7.050 -2.0059 -0.8208 -0.7211
  125MOL   H32045208   7.307   5.861   7.279 -1.0160  0.0314 -0.3740
  125MOL   H32145209   7.232   5.900   7.125 -0.6248 -2.3399 -2.1030
  125MOL   H32245210   7.402   5.863   7.140 -0.7906  2.1349 -0.8241
  125MOL   H32345211   7.477   5.611   7.197  1.3804 -2.5865  3.0609
  125MOL   H32445212   7.376   5.637   7.336  1.6327  0.1624 -0.9997
  125MOL   H32545213   7.355   5.494   7.221 -0.3713 -0.8175  1.7141
  125MOL   C32645214   7.056   5.568   6.957 -1.1520  0.2043 -0.8896
  125MOL   C32745215   6.955   5.557   6.839  0.4954 -0.2868  0.1826
  125MOL   C32845216   6.982   5.439   6.735  0.1529  0.3360 -1.2867
  125MOL   C32945217   6.960   5.298   6.797 -0.7001 -0.1190 -0.3089
  125MOL   C33045218   6.815   5.280   6.842  0.1280  0.5341  0.4278
  125MOL   C33145219   6.994   5.183   6.699  0.4289  0.1827 -0.1305
  125MOL   H33245220   7.089   5.469   6.989 -0.8944  0.0499 -1.6168
  125MOL   H33345221   7.148   5.600   6.908 -1.1453  0.5184 -0.6700
  125MOL   H33445222   6.858   5.533   6.883 -0.3223  0.5334 -1.1530
  125MOL   H33545223   6.920   5.449   6.646 -1.8251 -0.3961 -0.0454
  125MOL   H33645224   7.085   5.453   6.703  1.8906  1.0969  4.0312
  125MOL   H33745225   7.029   5.294   6.882  0.0709  0.3000 -0.9095
  125MOL   H33845226   6.755   5.309   6.756  1.1400  0.9151 -0.1493
  125MOL   H33945227   6.786   5.339   6.929  1.5956  0.2674  1.1161
  125MOL   H34045228   6.799   5.173   6.860 -1.0032  0.3746 -1.4560
  125MOL   H34145229   7.003   5.096   6.764  0.9316 -0.3583 -0.9133
  125MOL   H34245230   6.908   5.167   6.634 -1.2203 -1.6707  2.4155
  125MOL   H34345231   7.082   5.206   6.639 -0.3470  0.6817 -1.0856
  125MOL   C34445232   6.921   5.688   6.764  0.4699 -0.6687  0.2567
  125MOL   C34545233   7.027   5.743   6.666  0.3408  0.6939 -0.5579
  125MOL   C34645234   6.969   5.877   6.599 -0.0501 -1.1543  0.1951
  125MOL   C34745235   7.038   5.917   6.468  0.1789  0.2987  0.1302
  125MOL   C34845236   7.187   5.960   6.482  0.7518 -0.1222  0.2581
  125MOL   C34945237   6.955   6.027   6.390  0.7204  0.1942  0.4316
  125MOL   H35045238   6.893   5.763   6.838 -0.5316  0.3423 -1.1234
  125MOL   H35145239   6.827   5.674   6.711  0.1843 -0.2364  0.6419
  125MOL   H35245240   7.038   5.675   6.582  2.7458 -0.2154  0.4579
  125MOL   H35345241   6.869   5.848   6.569 -0.1972 -1.6854  1.1449
  125MOL   H35445242   6.965   5.961   6.668 -1.1982  0.5669 -1.9251
  125MOL   H35545243   7.032   5.826   6.408 -0.8183  1.2023 -1.1648
  125MOL   H35645244   7.218   5.987   6.382 -1.9097 -0.2995 -0.6518
  125MOL   H35745245   7.202   6.044   6.550 -4.0067  0.9850  0.1106
  125MOL   H35845246   7.246   5.873   6.510  0.8943  0.0204  0.4025
  125MOL   H35945247   6.984   6.044   6.286 -1.7671 -2.1739 -0.6995
  125MOL   H36045248   6.955   6.122   6.443  0.6360  1.4534 -1.7428
  125MOL   H36145249   6.851   6.001   6.370  1.0128  1.5453 -3.2301
  125MOL   H36245250   7.129   5.765   6.700 -0.5283  0.5452  2.3137
  126MOL     C145251   3.153   3.921   0.573 -0.2971 -0.0523  0.1992
  126MOL     C245252   3.014   3.902   0.641  0.8227  0.0828  0.1195
  126MOL     C345253   3.013   3.937   0.791  1.2220 -0.0690 -0.1150
  126MOL     C445254   2.871   3.965   0.853 -0.1502 -0.1098  0.2159
  126MOL     C545255   2.813   4.105   0.837  0.6073  0.0496 -0.5944
  126MOL     C645256   2.868   3.931   1.001  0.4098  0.1371 -0.5116
  126MOL     H745257   3.152   3.894   0.468  2.2630  0.3973  0.0264
  126MOL     H845258   3.186   4.024   0.570  0.3789 -0.2082  1.7341
  126MOL     H945259   2.940   3.971   0.599 -0.3950  0.3673  2.7022
  126MOL    H1045260   3.070   3.859   0.840 -0.1381 -0.6196  0.6329
  126MOL    H1145261   3.072   4.027   0.807 -0.5042  0.8224  1.5476
  126MOL    H1245262   2.807   3.896   0.797  1.8204 -1.6206 -0.2242
  126MOL    H1345263   2.798   4.122   0.730  0.0028  2.4493 -0.1511
  126MOL    H1445264   2.711   4.116   0.873  0.8353  0.2375 -0.0131
  126MOL    H1545265   2.877   4.188   0.866  0.9804  0.2373 -1.9176
  126MOL    H1645266   2.944   3.984   1.057  1.3593 -2.0860  0.3461
  126MOL    H1745267   2.899   3.828   1.014  0.0095 -0.0380 -0.9184
  126MOL    H1845268   2.770   3.950   1.046 -1.1480 -1.1711 -3.2039
  126MOL    H1945269   3.229   3.861   0.624  0.6080  2.5547  2.0240
  126MOL    C2045270   2.957   3.757   0.604  0.3080 -0.0568 -0.1178
  126MOL    C2145271   2.900   3.734   0.461 -0.0179  0.2116  0.6033
  126MOL    C2245272   2.870   3.581   0.424  0.2737 -0.5133  0.2776
  126MOL    C2345273   2.887   3.526   0.281 -0.5970  0.0236  0.6758
  126MOL    C2445274   3.035   3.507   0.256  0.5244  0.3602  0.4017
  126MOL    C2545275   2.814   3.390   0.265  0.5747 -0.4507 -0.1896
  126MOL    H2645276   3.043   3.692   0.618  0.4455 -0.0463 -0.8741
  126MOL    H2745277   2.878   3.729   0.673 -1.0543 -0.0303 -1.6493
  126MOL    H2845278   2.985   3.761   0.398 -1.2225  3.0234  0.0886
  126MOL    H2945279   2.770   3.548   0.453  0.0324  1.8616  2.3600
  126MOL    H3045280   2.932   3.526   0.495  0.2708 -0.5984  0.2135
  126MOL    H3145281   2.838   3.590   0.207  1.3923 -0.3496 -1.0295
  126MOL    H3245282   3.091   3.599   0.266  0.5365  0.5030 -0.9086
  126MOL    H3345283   3.055   3.457   0.161 -0.9779  0.3112  0.0965
  126MOL    H3445284   3.069   3.441   0.335 -0.7476 -1.9699 -0.9216
  126MOL    H3545285   2.706   3.391   0.278  0.6302 -2.1669  0.3955
  126MOL    H3645286   2.832   3.358   0.162 -0.2573 -3.7050  0.6368
  126MOL    H3745287   2.853   3.318   0.337 -0.1033 -0.4449  0.1895
  126MOL    C3845288   2.782   3.826   0.425 -0.0009 -0.2484 -0.1942
  126MOL    C3945289   2.820   3.943   0.328  0.4308 -0.5839 -0.4986
  126MOL    C4045290   2.694   4.033   0.324 -0.4124 -0.0206 -0.0793
  126MOL    C4145291   2.712   4.187   0.343  0.6013 -0.0240  0.4778
  126MOL    C4245292   2.775   4.228   0.481  0.2024  0.4500 -0.4640
  126MOL    C4345293   2.583   4.261   0.315 -0.4953 -0.0333  0.0076
  126MOL    H4445294   2.751   3.870   0.520  0.7622  2.2070 -1.0454
  126MOL    H4545295   2.705   3.758   0.389  0.3342  0.2639 -1.8916
  126MOL    H4645296   2.905   3.998   0.369 -0.0921  0.2064 -0.4698
  126MOL    H4745297   2.614   3.999   0.390  1.3806 -0.8103  1.7535
  126MOL    H4845298   2.654   4.022   0.224  1.5783  1.0993 -1.0353
  126MOL    H4945299   2.777   4.230   0.267 -0.5013  0.3822 -0.2482
  126MOL    H5045300   2.801   4.334   0.484  0.8086  0.2651  1.5894
  126MOL    H5145301   2.699   4.200   0.554  1.6225  0.0076  0.8813
  126MOL    H5245302   2.864   4.171   0.506 -0.6856 -0.6370  0.2470
  126MOL    H5345303   2.513   4.223   0.389  1.8531 -0.2882  2.1373
  126MOL    H5445304   2.553   4.240   0.212  3.4901  1.9460 -1.6601
  126MOL    H5545305   2.598   4.369   0.317 -0.0465 -0.1187  1.6547
  126MOL    C5645306   2.852   3.893   0.184 -0.4009  0.8619  0.4233
  126MOL    C5745307   2.912   3.985   0.081  0.1148 -0.4372  0.6424
  126MOL    C5845308   2.901   3.933   7.688 -0.2511  0.1188 -1.0629
  126MOL    C5945309   2.762   3.922   7.624  0.2102  0.3166  0.0749
  126MOL    C6045310   2.776   3.901   7.475  0.0616 -0.1421 -1.1707
  126MOL    C6145311   2.654   4.034   7.648 -0.3159 -0.1667 -0.1251
  126MOL    H6245312   2.762   3.845   0.144 -0.1130 -0.2584  1.1096
  126MOL    H6345313   2.917   3.806   0.193 -1.8438 -0.4599 -1.4200
  126MOL    H6445314   2.854   4.078   0.084  0.7666  0.0264 -0.7083
  126MOL    H6545315   2.959   4.011   7.640  0.3695  0.1429 -0.2848
  126MOL    H6645316   2.951   3.839   7.667 -0.4058 -0.0318 -0.7698
  126MOL    H6745317   2.721   3.830   7.668 -1.7164  2.1425  2.2134
  126MOL    H6845318   2.844   3.817   7.457 -2.2581 -2.2672 -0.1463
  126MOL    H6945319   2.820   3.982   7.416  2.9828 -1.3454 -0.7686
  126MOL    H7045320   2.684   3.869   7.426 -1.0903 -1.0256  1.5075
  126MOL    H7145321   2.586   4.031   7.563 -0.1056 -2.6893 -0.2195
  126MOL    H7245322   2.698   4.134   7.635 -0.0208  0.1573  3.0257
  126MOL    H7345323   2.605   4.047   7.744 -1.1625 -1.8316 -0.3265
  126MOL    C7445324   3.067   4.017   0.108  0.4375  0.2376 -0.4263
  126MOL    C7545325   3.107   4.155   0.067 -0.1731 -0.5693 -0.3571
  126MOL    C7645326   3.258   4.158   0.025 -0.3587 -0.0460 -0.1969
  126MOL    C7745327   3.293   4.082   7.648  0.5840 -0.5422 -0.1595
  126MOL    C7845328   3.443   4.088   7.632  0.1154  0.3538  0.0434
  126MOL    C7945329   3.228   4.142   7.522 -0.9696  0.3329  0.5462
  126MOL    H8045330   3.122   3.935   0.061  1.3823  1.2695 -1.1517
  126MOL    H8145331   3.096   4.002   0.212  0.2979  1.3617 -0.2190
  126MOL    H8245332   3.064   4.183   7.723 -0.1496  0.0811 -0.1770
  126MOL    H8345333   3.280   4.263   0.001 -1.5448  0.9910  2.9741
  126MOL    H8445334   3.315   4.135   0.114 -0.4749  0.1906 -0.0604
  126MOL    H8545335   3.265   3.976   7.652 -2.1394  0.1102 -1.0467
  126MOL    H8645336   3.464   4.195   7.624 -0.2701  0.4286  0.0252
  126MOL    H8745337   3.478   4.032   7.546 -1.2176 -0.3323 -0.0690
  126MOL    H8845338   3.503   4.043   7.711  2.7212  1.6919 -1.1238
  126MOL    H8945339   3.278   4.108   7.432  0.5003 -0.4095  1.6238
  126MOL    H9045340   3.122   4.120   7.512 -1.5607  3.5351 -0.8090
  126MOL    H9145341   3.245   4.250   7.521 -1.0519  0.3380 -0.7281
  126MOL    C9245342   3.071   4.265   0.166  0.2395 -0.5281 -0.0462
  126MOL    C9345343   3.047   4.402   0.095 -0.7803 -0.1117 -0.2316
  126MOL    C9445344   2.905   4.404   0.038 -0.3475  1.1670 -0.4579
  126MOL    C9545345   2.893   4.488   7.669 -0.1867 -0.5813 -0.3390
  126MOL    C9645346   2.977   4.437   7.558 -0.0947  0.0810 -0.7183
  126MOL    C9745347   2.748   4.496   7.622 -0.6535 -0.1028 -0.3459
  126MOL    H9845348   2.986   4.243   0.229  0.1005 -1.8253 -0.6657
  126MOL    H9945349   3.154   4.279   0.235 -0.1978 -0.0889  0.3944
  126MOL   H10045350   3.116   4.396   0.011  2.2755 -2.0539  2.3125
  126MOL   H10145351   2.835   4.433   0.117 -1.7999 -1.6067 -0.6750
  126MOL   H10245352   2.869   4.304   0.013 -1.3600  1.6733 -1.0720
  126MOL   H10345353   2.934   4.588   7.684 -0.9641 -0.4016  0.6548
  126MOL   H10445354   2.974   4.504   7.471 -0.2213  0.3906 -0.4793
  126MOL   H10545355   2.949   4.340   7.519  2.5074 -0.8865 -0.2561
  126MOL   H10645356   3.084   4.439   7.574 -0.1133  0.3381 -0.6227
  126MOL   H10745357   2.742   4.559   7.533  1.5667  2.6643  1.3619
  126MOL   H10845358   2.679   4.537   7.695  0.1634 -0.5003  0.6618
  126MOL   H10945359   2.706   4.399   7.595 -1.5980 -0.1600  1.2850
  126MOL   C11045360   3.085   4.518   0.187  0.3770  0.0987  0.1443
  126MOL   C11145361   3.220   4.579   0.163 -0.1323  0.0826 -0.1559
  126MOL   C11245362   3.230   4.650   0.033  0.4027  0.7809 -0.7055
  126MOL   C11345363   3.366   4.687   7.722  0.5824  0.7005 -0.1318
  126MOL   C11445364   3.356   4.759   7.589 -1.0328  0.0630 -0.5030
  126MOL   C11545365   3.461   4.565   7.712 -0.2511 -0.0817 -0.1252
  126MOL   H11645366   3.086   4.481   0.290 -0.5501 -1.1253 -0.2879
  126MOL   H11745367   3.003   4.590   0.188 -1.5151 -2.0232  0.5538
  126MOL   H11845368   3.280   4.490   0.146 -1.6576 -0.7317 -1.3732
  126MOL   H11945369   3.171   4.740   0.049  1.0849  0.7393  2.3118
  126MOL   H12045370   3.186   4.592   7.703  2.3840 -0.9346 -0.6055
  126MOL   H12145371   3.413   4.764   0.031  0.8309 -1.2689  2.2316
  126MOL   H12245372   3.454   4.794   7.559 -0.8311 -0.7978 -0.8733
  126MOL   H12345373   3.289   4.845   7.586 -0.3516  0.5848 -0.7699
  126MOL   H12445374   3.322   4.689   7.512  1.2380  0.1819 -1.6366
  126MOL   H12545375   3.406   4.478   7.677 -0.3007  0.1744 -0.6768
  126MOL   H12645376   3.496   4.533   0.058  0.8920 -2.0986 -1.1653
  126MOL   H12745377   3.556   4.585   7.662  0.5812 -0.1438  1.3715
  126MOL   C12845378   3.274   4.669   0.274 -0.1814 -0.1186 -0.1969
  126MOL   C12945379   3.297   4.606   0.416  0.3802  0.4977  0.0196
  126MOL   C13045380   3.173   4.646   0.515 -0.7483  1.2618 -0.7223
  126MOL   C13145381   3.122   4.543   0.625 -0.1524 -0.2631 -0.2618
  126MOL   C13245382   3.002   4.595   0.694  0.2536  0.9365 -0.1492
  126MOL   C13345383   3.092   4.400   0.566  0.4720  0.0028 -0.4309
  126MOL   H13445384   3.201   4.748   0.287 -1.1315 -0.8408 -1.1351
  126MOL   H13545385   3.368   4.715   0.243  0.9274 -2.5552 -0.6427
  126MOL   H13645386   3.286   4.499   0.402  2.6459  0.1389  0.6369
  126MOL   H13745387   3.180   4.741   0.567  1.4325  0.2160  0.9825
  126MOL   H13845388   3.086   4.642   0.449  1.1278  0.9029 -3.2541
  126MOL   H13945389   3.200   4.521   0.697 -0.7136 -1.6932 -0.0869
  126MOL   H14045390   2.914   4.608   0.631  2.9798  2.1155 -3.9105
  126MOL   H14145391   3.024   4.692   0.737  0.2641  2.5464 -3.5578
  126MOL   H14245392   2.969   4.523   0.768  1.9255 -0.2310 -0.5160
  126MOL   H14345393   3.070   4.328   0.645 -0.3723  0.5916 -0.1166
  126MOL   H14445394   3.020   4.394   0.484 -1.1577 -0.8262  1.0064
  126MOL   H14545395   3.187   4.364   0.526 -0.0418  0.7991 -2.4066
  126MOL   C14645396   3.428   4.644   0.485 -0.1243 -0.4024 -0.4427
  126MOL   C14745397   3.562   4.593   0.413 -0.1845  0.1296  0.3383
  126MOL   C14845398   3.610   4.459   0.486  0.0128  0.3192 -0.7186
  126MOL   C14945399   3.512   4.335   0.480 -0.3094  0.4533  1.4147
  126MOL   C15045400   3.499   4.290   0.338 -0.1009  0.0842 -0.2036
  126MOL   C15145401   3.563   4.218   0.568 -0.0590 -0.3113 -0.7114
  126MOL   H15245402   3.423   4.611   0.589 -1.1024  1.6741  0.1946
  126MOL   H15345403   3.431   4.752   0.495 -1.8343  0.0832 -4.4187
  126MOL   H15445404   3.545   4.576   0.306  3.0100  1.3554 -0.4203
  126MOL   H15545405   3.708   4.429   0.449  1.2921  1.6332  1.5188
  126MOL   H15645406   3.621   4.481   0.592  0.0716 -1.4723 -0.3346
  126MOL   H15745407   3.411   4.358   0.515 -0.7738 -0.5636  0.7865
  126MOL   H15845408   3.598   4.273   0.297  0.0791 -1.4769  0.8280
  126MOL   H15945409   3.446   4.365   0.279 -1.1272 -0.3724  0.1162
  126MOL   H16045410   3.437   4.203   0.318  0.1811  0.1079 -1.2049
  126MOL   H16145411   3.585   4.243   0.672  0.5331 -0.9656 -0.6738
  126MOL   H16245412   3.648   4.163   0.529 -0.1766 -1.1492  0.1745
  126MOL   H16345413   3.486   4.140   0.564  0.6520 -0.9458 -2.3523
  126MOL   C16445414   3.676   4.700   0.408  0.2341  0.1791  0.2141
  126MOL   C16545415   3.809   4.666   0.333  0.2359  0.2173 -0.3236
  126MOL   C16645416   3.805   4.671   0.182 -1.4413  0.4907  0.5539
  126MOL   C16745417   3.914   4.593   0.106 -0.1023  0.5034  0.6872
  126MOL   C16845418   3.890   4.445   0.098  0.0690 -0.1691  0.4768
  126MOL   C16945419   3.952   4.646   7.720 -0.1173  0.4857  0.4314
  126MOL   H17045420   3.634   4.787   0.357 -0.7097 -0.3278  0.1202
  126MOL   H17145421   3.705   4.741   0.505 -1.0507  2.2749 -0.2587
  126MOL   H17245422   3.827   4.562   0.361 -1.4835 -0.2492 -0.8713
  126MOL   H17345423   3.705   4.648   0.145 -1.6244  0.8946  0.7900
  126MOL   H17445424   3.810   4.777   0.159  0.7297  0.0042 -1.3642
  126MOL   H17545425   4.012   4.597   0.155  0.0187  1.3805  0.3912
  126MOL   H17645426   3.964   4.393   0.036  1.4855  0.5692  1.5085
  126MOL   H17745427   3.795   4.430   0.047 -1.1374  0.7871  2.3978
  126MOL   H17845428   3.867   4.401   0.195  1.6598  0.9921  1.4198
  126MOL   H17945429   4.030   4.600   7.660  0.8917  0.9797  1.3422
  126MOL   H18045430   3.962   4.754   7.725 -2.1553  0.6982  0.5144
  126MOL   H18145431   3.865   4.632   7.656 -0.1109  0.5882  0.4001
  126MOL   C18245432   3.924   4.755   0.388  0.9116 -0.3703  0.5459
  126MOL   C18345433   4.004   4.685   0.506 -0.1827 -0.0032  0.1843
  126MOL   C18445434   4.104   4.567   0.463  0.1840 -0.8050  0.3527
  126MOL   C18545435   4.101   4.433   0.552  0.3260 -0.0753  0.4723
  126MOL   C18645436   4.123   4.462   0.698  0.1720  0.4768  0.2520
  126MOL   C18745437   3.972   4.341   0.535 -0.4848 -0.3206  0.0675
  126MOL   H18845438   3.892   4.851   0.431  2.4400  0.3313  0.1512
  126MOL   H18945439   3.992   4.789   0.310  0.0414  1.0900  0.3880
  126MOL   H19045440   3.927   4.635   0.565  0.5941 -0.2624  0.9752
  126MOL   H19145441   4.207   4.601   0.452 -0.2366 -0.3582 -2.6740
  126MOL   H19245442   4.082   4.534   0.361  0.9131  0.0597 -0.0877
  126MOL   H19345443   4.186   4.376   0.515  0.8383  0.1901  1.2284
  126MOL   H19445444   4.118   4.369   0.754 -0.5422  0.1190 -0.3878
  126MOL   H19545445   4.056   4.530   0.751 -1.1676 -2.6214  2.6884
  126MOL   H19645446   4.224   4.502   0.707  0.4503 -0.6318  2.2894
  126MOL   H19745447   3.981   4.301   0.434  1.4287 -1.6679  0.7362
  126MOL   H19845448   3.879   4.394   0.556 -0.5678 -0.3144 -0.3010
  126MOL   H19945449   3.982   4.254   0.600 -1.1164 -0.8646 -0.5508
  126MOL   C20045450   4.083   4.788   0.591  0.0724  0.0055  0.1508
  126MOL   C20145451   4.010   4.915   0.653  0.2922 -0.6843  0.9855
  126MOL   C20245452   4.115   4.985   0.746 -0.4183  0.3264 -0.4584
  126MOL   C20345453   4.222   5.062   0.662  0.2738  0.0219  0.0746
  126MOL   C20445454   4.175   5.207   0.623  0.1732  0.0192  0.5116
  126MOL   C20545455   4.353   5.074   0.738  0.1197 -0.6144  0.3322
  126MOL   H20645456   4.163   4.822   0.526  0.3285  1.4534  1.1854
  126MOL   H20745457   4.137   4.736   0.670  1.0073 -2.5758 -2.1113
  126MOL   H20845458   3.988   4.988   0.576 -3.7660 -0.5758  2.1356
  126MOL   H20945459   4.060   5.049   0.815  2.0086  1.1544  0.7337
  126MOL   H21045460   4.163   4.909   0.807  1.5783  2.0387  0.1840
  126MOL   H21145461   4.251   5.024   0.564  1.0059  1.0415 -0.1192
  126MOL   H21245462   4.075   5.222   0.581  0.5900  2.0318  0.2285
  126MOL   H21345463   4.243   5.241   0.545 -1.2061  0.3770 -0.5713
  126MOL   H21445464   4.175   5.282   0.701  0.2566 -0.0093  0.5393
  126MOL   H21545465   4.433   5.130   0.689  0.7307 -1.3075  0.5288
  126MOL   H21645466   4.405   4.979   0.754 -1.0498 -1.0460  1.6700
  126MOL   H21745467   4.335   5.107   0.840  1.9664  0.0004  0.4826
  126MOL   C21845468   3.885   4.864   0.728  0.4087  0.0970  0.4809
  126MOL   C21945469   3.774   4.967   0.762 -0.0104  0.4926 -0.3036
  126MOL   C22045470   3.675   4.903   0.861  0.4460 -0.0035 -0.3578
  126MOL   C22145471   3.603   4.774   0.810  0.8213  0.1658  0.4508
  126MOL   C22245472   3.663   4.646   0.874 -0.3333  0.5649 -0.4831
  126MOL   C22345473   3.449   4.769   0.824 -0.3378 -0.1429  0.2865
  126MOL   H22445474   3.837   4.785   0.672  1.1326 -1.1507  1.5895
  126MOL   H22545475   3.924   4.816   0.818  0.9185  0.8651  0.6861
  126MOL   H22645476   3.811   5.050   0.823 -0.0788 -0.6970  1.4064
  126MOL   H22745477   3.725   4.883   0.955  0.4665  1.2627 -0.0943
  126MOL   H22845478   3.594   4.971   0.889  1.8525  0.6551  2.1913
  126MOL   H22945479   3.620   4.762   0.703 -0.6690 -2.1757  0.4368
  126MOL   H23045480   3.621   4.557   0.827 -1.5458  0.7570  0.2184
  126MOL   H23145481   3.770   4.634   0.854 -0.0573  2.8169 -0.5139
  126MOL   H23245482   3.647   4.630   0.981 -1.8488 -1.6287 -1.0133
  126MOL   H23345483   3.413   4.787   0.926 -0.5011 -3.2695  0.8148
  126MOL   H23445484   3.399   4.829   0.748 -2.9673 -3.0044 -0.3428
  126MOL   H23545485   3.425   4.665   0.806 -0.8224 -0.0575  0.4292
  126MOL   C23645486   3.698   5.023   0.635 -0.0114 -0.8586 -0.4278
  126MOL   C23745487   3.597   5.151   0.656  0.3126  0.2563  0.7308
  126MOL   C23845488   3.465   5.158   0.560 -0.1341 -0.0894 -0.2444
  126MOL   C23945489   3.339   5.085   0.594 -0.3830  0.0260 -0.2473
  126MOL   C24045490   3.251   5.160   0.696 -0.6220 -0.2001  0.0412
  126MOL   C24145491   3.261   5.069   0.471  0.5415 -0.7980  0.4701
  126MOL   H24245492   3.638   4.940   0.599  2.5544 -2.2853 -1.4620
  126MOL   H24345493   3.765   5.052   0.554 -0.4665  2.8045  0.3949
  126MOL   H24445494   3.546   5.132   0.750 -3.0866  0.0173 -1.0444
  126MOL   H24545495   3.502   5.142   0.459 -0.6250 -1.0363 -0.2771
  126MOL   H24645496   3.449   5.265   0.563  3.5092  0.5090  2.5359
  126MOL   H24745497   3.383   4.989   0.622 -0.2579  0.5939  1.5940
  126MOL   H24845498   3.185   5.236   0.655  0.0859  1.3316  1.6601
  126MOL   H24945499   3.308   5.203   0.779  0.4717  0.4286 -1.0199
  126MOL   H25045500   3.185   5.086   0.741  0.6523 -1.5656 -0.2808
  126MOL   H25145501   3.323   5.018   0.397 -0.3071 -0.8797 -0.1965
  126MOL   H25245502   3.231   5.164   0.428  1.7372 -0.5250  0.2294
  126MOL   H25345503   3.173   5.006   0.484  1.1777 -2.1164 -1.2764
  126MOL   C25445504   3.687   5.278   0.661  0.4710 -0.4715 -0.0967
  126MOL   C25545505   3.636   5.403   0.740  0.3756  0.3626 -0.7826
  126MOL   C25645506   3.637   5.371   0.893  0.1072 -0.2721 -0.3042
  126MOL   C25745507   3.557   5.463   0.984  0.0676 -0.3820 -0.0145
  126MOL   C25845508   3.577   5.412   1.127 -0.5608  0.7434  0.1111
  126MOL   C25945509   3.407   5.481   0.956  0.0201 -1.0216  0.5014
  126MOL   H26045510   3.789   5.256   0.693  0.6409  2.4648  1.5857
  126MOL   H26145511   3.691   5.299   0.554  1.2247 -1.5889 -0.2885
  126MOL   H26245512   3.533   5.409   0.707 -0.4438 -1.5651  1.2813
  126MOL   H26345513   3.735   5.365   0.941 -0.8469 -0.8323  1.6130
  126MOL   H26445514   3.594   5.271   0.905 -2.9113  1.1530  1.0930
  126MOL   H26545515   3.593   5.566   0.976 -3.4334  0.9550  0.6528
  126MOL   H26645516   3.673   5.450   1.162 -0.2342 -0.4907  0.6034
  126MOL   H26745517   3.567   5.304   1.140  0.0301  0.6833  0.0604
  126MOL   H26845518   3.507   5.462   1.195  0.3613  0.1920  1.5016
  126MOL   H26945519   3.372   5.538   0.869 -0.7376 -1.5251  0.4712
  126MOL   H27045520   3.366   5.382   0.934 -0.3380 -0.1540 -3.0970
  126MOL   H27145521   3.355   5.522   1.043  2.9796  2.0647  0.9098
  126MOL   C27245522   3.710   5.537   0.706  0.2872  0.1762 -0.6468
  126MOL   C27345523   3.661   5.620   0.585 -0.0174 -0.1451  0.0380
  126MOL   C27445524   3.526   5.685   0.622  0.4182 -0.3200  0.2566
  126MOL   C27545525   3.420   5.674   0.512  0.3923  0.4708 -0.3809
  126MOL   C27645526   3.314   5.777   0.534  0.4748  0.0933 -0.1085
  126MOL   C27745527   3.357   5.538   0.515 -0.1747 -0.1390 -0.5543
  126MOL   H27845528   3.716   5.605   0.791 -0.0760  1.1500 -1.3848
  126MOL   H27945529   3.815   5.518   0.685 -0.1714 -2.1439 -0.9565
  126MOL   H28045530   3.645   5.546   0.506  0.4844  1.0793 -1.2173
  126MOL   H28145531   3.551   5.789   0.643  1.0746  0.3011 -3.2269
  126MOL   H28245532   3.492   5.655   0.721 -0.0186  2.6169  1.0500
  126MOL   H28345533   3.455   5.691   0.411  1.1025 -1.9459 -0.5828
  126MOL   H28445534   3.348   5.880   0.530  0.9590 -0.0484  0.3561
  126MOL   H28545535   3.229   5.752   0.470  1.4547 -2.1807 -0.5631
  126MOL   H28645536   3.293   5.769   0.641  2.1229  3.2838  0.5009
  126MOL   H28745537   3.327   5.507   0.615 -0.2704  0.7629 -0.2970
  126MOL   H28845538   3.268   5.524   0.454 -0.9779 -1.6539  0.9350
  126MOL   H28945539   3.429   5.468   0.472 -1.3794 -2.8389  1.6540
  126MOL   C29045540   3.758   5.730   0.530 -0.1722 -0.7650 -0.0470
  126MOL   C29145541   3.887   5.682   0.457  0.4559 -0.9671 -0.4760
  126MOL   C29245542   3.860   5.649   0.312 -0.0428 -0.1802 -0.0267
  126MOL   C29345543   3.925   5.521   0.262 -0.3273 -0.7223 -0.8572
  126MOL   C29445544   3.848   5.399   0.317  0.4951  0.0303  0.1044
  126MOL   C29545545   3.900   5.525   0.108  0.2520  0.3948  0.7072
  126MOL   H29645546   3.703   5.802   0.468  0.7423 -0.3656 -0.4050
  126MOL   H29745547   3.791   5.787   0.617  0.7990 -1.1854 -0.1344
  126MOL   H29845548   3.909   5.584   0.501 -1.4259 -0.4867  1.6493
  126MOL   H29945549   3.886   5.735   0.250  1.5952  0.1944  1.1687
  126MOL   H30045550   3.752   5.634   0.301 -0.1644  0.8561 -0.3411
  126MOL   H30145551   4.033   5.516   0.281 -0.3648 -2.7623 -0.9878
  126MOL   H30245552   3.844   5.400   0.426 -0.0284  1.3595  0.0801
  126MOL   H30345553   3.901   5.306   0.295  0.8910  0.0531  0.9274
  126MOL   H30445554   3.748   5.398   0.273  1.4759  1.8164 -2.3031
  126MOL   H30545555   3.937   5.435   0.060  1.8056  0.6397  1.3969
  126MOL   H30645556   3.946   5.610   0.057  0.4427  0.3231  0.7610
  126MOL   H30745557   3.794   5.528   0.084 -0.1271 -0.3326  2.2737
  126MOL   C30845558   4.011   5.770   0.473  0.1250 -0.3716  0.1740
  126MOL   C30945559   4.067   5.785   0.618  0.4287 -0.2528 -0.5581
  126MOL   C31045560   4.184   5.682   0.639 -0.0555  0.0352  0.1991
  126MOL   C31145561   4.233   5.654   0.776 -0.4411  0.1183  0.3085
  126MOL   C31245562   4.128   5.605   0.878 -0.2347 -0.0002  0.4114
  126MOL   C31345563   4.353   5.560   0.768  0.3751  0.3459 -0.2954
  126MOL   H31445564   4.073   5.713   0.404 -0.9327 -1.7653  0.3553
  126MOL   H31545565   3.992   5.867   0.427 -0.6434  0.0167  1.2808
  126MOL   H31645566   3.987   5.758   0.688 -0.3193 -0.2343 -1.4040
  126MOL   H31745567   4.263   5.722   0.575 -0.8899  2.1119  0.4305
  126MOL   H31845568   4.164   5.585   0.593 -0.2390 -0.6864  1.7660
  126MOL   H31945569   4.256   5.743   0.834 -2.9681 -0.3166  2.0775
  126MOL   H32045570   4.081   5.510   0.854 -1.5122  0.8434 -0.5507
  126MOL   H32145571   4.043   5.673   0.881  0.2647  0.7427 -1.5426
  126MOL   H32245572   4.167   5.598   0.980 -2.4926  2.7427  1.5470
  126MOL   H32345573   4.415   5.596   0.685  0.5480  2.1618  0.5888
  126MOL   H32445574   4.398   5.538   0.865 -0.5474  0.6131  0.1928
  126MOL   H32545575   4.324   5.458   0.743 -2.0716  0.0782  3.3367
  126MOL   C32645576   4.116   5.923   0.648 -0.6384  0.6765  0.2405
  126MOL   C32745577   3.994   6.018   0.667 -0.8249  0.0055 -0.2246
  126MOL   C32845578   4.053   6.162   0.656 -0.0459  0.3425 -0.2414
  126MOL   C32945579   4.098   6.217   0.519  0.1786  0.1597  0.7426
  126MOL   C33045580   3.999   6.196   0.396  0.1111  0.2177 -0.5780
  126MOL   C33145581   4.139   6.359   0.534 -0.6084  0.2472 -0.0094
  126MOL   H33245582   4.180   5.945   0.562  0.3603 -1.2974  0.4473
  126MOL   H33345583   4.174   5.932   0.740 -1.2158 -2.0580  0.9070
  126MOL   H33445584   3.927   5.990   0.585  1.3703 -2.3551 -1.3098
  126MOL   H33545585   3.969   6.220   0.695  0.3615  1.5583 -1.1052
  126MOL   H33645586   4.137   6.169   0.725  2.1822 -0.2945 -2.7754
  126MOL   H33745587   4.185   6.157   0.491 -1.9651 -1.9185 -1.6493
  126MOL   H33845588   4.048   6.232   0.305  0.4748  0.8471 -0.1346
  126MOL   H33945589   3.909   6.254   0.418 -0.6686 -0.0780 -2.8197
  126MOL   H34045590   3.977   6.090   0.382  2.5420 -0.6869  2.0533
  126MOL   H34145591   4.060   6.426   0.566 -0.6387  1.4170 -2.4013
  126MOL   H34245592   4.209   6.378   0.615 -2.1710 -0.6892  1.6034
  126MOL   H34345593   4.172   6.381   0.432 -2.4451  1.8628 -0.2876
  126MOL   C34445594   3.927   6.000   0.801 -0.3841  0.4262 -0.4466
  126MOL   C34545595   3.792   6.075   0.809  0.0181 -0.6187 -0.2602
  126MOL   C34645596   3.695   5.988   0.878  0.7484  0.6054 -0.8508
  126MOL   C34745597   3.556   6.053   0.885 -0.3978 -0.0574 -0.4643
  126MOL   C34845598   3.545   6.169   0.982 -0.3241 -0.4158  0.0269
  126MOL   C34945599   3.454   5.945   0.937  0.2437 -0.0151 -0.7508
  126MOL   H35045600   3.990   6.020   0.887  0.8377  0.2035 -1.2699
  126MOL   H35145601   3.915   5.896   0.830 -1.7242  0.8885  0.6935
  126MOL   H35245602   3.751   6.093   0.709 -0.3866 -1.1762 -0.1995
  126MOL   H35345603   3.695   5.888   0.834  1.5108  0.4692 -0.5525
  126MOL   H35445604   3.722   5.979   0.983 -1.7745  3.2379  0.0713
  126MOL   H35545605   3.527   6.086   0.785 -0.9937 -0.9269 -0.5800
  126MOL   H35645606   3.582   6.146   1.082 -1.8536 -1.1931  0.4275
  126MOL   H35745607   3.597   6.254   0.937 -1.8533  1.1056  1.0397
  126MOL   H35845608   3.440   6.200   0.988  0.1771  1.4065 -0.3720
  126MOL   H35945609   3.353   5.987   0.941  0.8310  1.3413  0.1413
  126MOL   H36045610   3.470   5.923   1.043  0.7925 -0.7920 -0.9970
  126MOL   H36145611   3.453   5.852   0.881  2.0695  0.1215 -1.0466
  126MOL   H36245612   3.804   6.175   0.849 -0.3069 -0.8204  0.3390
  127MOL     C145613   2.460   4.929   1.460  1.4964  0.1597  0.1195
  127MOL     C245614   2.535   5.001   1.347 -0.2019 -0.4889  0.0221
  127MOL     C345615   2.456   4.978   1.215  0.6956  0.5329 -0.5664
  127MOL     C445616   2.305   5.025   1.218  0.1138 -0.6271 -0.4564
  127MOL     C545617   2.232   4.977   1.094 -0.1374 -0.0668  0.0743
  127MOL     C645618   2.284   5.179   1.244 -0.2046 -0.4867 -0.2423
  127MOL     H745619   2.508   4.956   1.554 -0.9453  0.1860  1.4177
  127MOL     H845620   2.356   4.951   1.485  1.3836 -0.7375  0.4660
  127MOL     H945621   2.537   5.109   1.366  1.4897 -0.1504 -1.9493
  127MOL    H1045622   2.498   5.017   1.122 -2.1244  0.6810 -1.8314
  127MOL    H1145623   2.462   4.872   1.189 -0.1748  0.4936 -0.6206
  127MOL    H1245624   2.256   4.978   1.303  2.2807 -2.8190 -0.3629
  127MOL    H1345625   2.263   4.875   1.070  0.4466 -0.2869  1.7166
  127MOL    H1445626   2.123   4.984   1.099 -0.1004 -0.5423  1.7806
  127MOL    H1545627   2.244   5.042   1.008 -1.7679 -0.5407 -0.5386
  127MOL    H1645628   2.340   5.209   1.332 -2.2153  1.1619  0.5112
  127MOL    H1745629   2.182   5.206   1.270 -0.1580 -0.4356 -0.1144
  127MOL    H1845630   2.318   5.244   1.163  2.2460  0.8607  1.7793
  127MOL    H1945631   2.463   4.823   1.436 -1.7990 -0.4532  1.9594
  127MOL    C2045632   2.684   4.957   1.344 -0.1323  0.2845  0.1783
  127MOL    C2145633   2.772   4.989   1.470  0.4715  0.3877  0.5062
  127MOL    C2245634   2.795   4.856   1.549  0.5306 -0.4884 -0.1103
  127MOL    C2345635   2.849   4.859   1.691 -0.2457  0.3748  0.6405
  127MOL    C2445636   2.769   4.944   1.790 -0.5390  0.3230  1.2499
  127MOL    C2545637   2.864   4.715   1.742 -0.0958 -0.3122 -0.3094
  127MOL    H2645638   2.682   4.849   1.333 -2.1421  0.3813 -0.5675
  127MOL    H2745639   2.725   5.007   1.256 -1.9142  2.9332  0.7862
  127MOL    H2845640   2.713   5.054   1.534 -1.0509  1.3633 -1.7890
  127MOL    H2945641   2.871   4.795   1.499  0.7628 -1.9955  2.0314
  127MOL    H3045642   2.702   4.799   1.548  1.2650 -1.7166 -0.1438
  127MOL    H3145643   2.947   4.904   1.679 -1.1251  2.0411 -0.5373
  127MOL    H3245644   2.668   4.904   1.798 -0.6757  0.1505 -0.8929
  127MOL    H3345645   2.780   5.047   1.757  0.6040 -0.6681 -1.6764
  127MOL    H3445646   2.810   4.934   1.891 -1.8317  1.1558  1.8562
  127MOL    H3545647   2.768   4.664   1.752  0.1597 -0.7270  0.0667
  127MOL    H3645648   2.928   4.665   1.670 -0.2067 -2.3275  0.9483
  127MOL    H3745649   2.925   4.716   1.833  0.0890  0.8635 -0.4384
  127MOL    C3845650   2.909   5.036   1.421  0.2053 -0.5200 -0.6582
  127MOL    C3945651   2.916   5.182   1.365 -0.7205  0.1950  0.5883
  127MOL    C4045652   3.056   5.203   1.309 -0.2140  0.4064 -0.1054
  127MOL    C4145653   3.109   5.104   1.197 -0.3684 -0.3985  0.1711
  127MOL    C4245654   3.245   5.153   1.150  0.2998 -0.7363  0.4596
  127MOL    C4345655   3.019   5.085   1.068  0.3762  0.2834  0.2465
  127MOL    H4445656   2.949   4.965   1.349  0.6576  0.0956 -1.0134
  127MOL    H4545657   2.981   5.030   1.503  0.3042  1.1175 -0.6069
  127MOL    H4645658   2.842   5.175   1.285 -0.7434 -0.6290  0.6731
  127MOL    H4745659   3.129   5.213   1.389 -0.4913  4.1226 -0.2146
  127MOL    H4845660   3.067   5.304   1.270  1.5208 -0.8026 -2.9549
  127MOL    H4945661   3.129   5.003   1.232  0.9130 -0.5867 -1.0667
  127MOL    H5045662   3.317   5.173   1.229  0.9960 -0.8180 -0.1467
  127MOL    H5145663   3.294   5.100   1.068  0.4560 -0.6106  0.4720
  127MOL    H5245664   3.239   5.249   1.098 -2.3069 -0.7440  0.6729
  127MOL    H5345665   3.002   5.183   1.025  0.3005 -1.0906 -2.9838
  127MOL    H5445666   2.931   5.030   1.102 -0.0037 -0.3019 -1.6003
  127MOL    H5545667   3.065   5.032   0.985 -0.9545  3.1940 -2.4397
  127MOL    C5645668   2.871   5.297   1.461  0.3989  0.1913 -0.3975
  127MOL    C5745669   2.832   5.427   1.393 -0.3446 -0.5153  0.5965
  127MOL    C5845670   2.844   5.561   1.483 -0.1966  0.0448 -0.1442
  127MOL    C5945671   2.985   5.595   1.533 -0.5950  0.7923  0.3385
  127MOL    C6045672   2.970   5.715   1.630  0.6469  0.3953  0.2873
  127MOL    C6145673   3.085   5.632   1.421  0.0110 -0.5488 -0.5119
  127MOL    H6245674   2.951   5.321   1.532 -1.0015  5.6380 -0.4824
  127MOL    H6345675   2.780   5.274   1.517  1.2446  0.9972  1.3484
  127MOL    H6445676   2.912   5.440   1.320 -1.6381 -1.8882 -1.1289
  127MOL    H6545677   2.828   5.643   1.413  2.6107  0.3805 -0.4476
  127MOL    H6645678   2.767   5.559   1.561  0.4633 -0.0920  0.5145
  127MOL    H6745679   3.024   5.513   1.593  0.9902 -0.2969 -2.1160
  127MOL    H6845680   2.930   5.803   1.578  0.9151 -0.9799 -2.3335
  127MOL    H6945681   3.070   5.749   1.659  0.4041  2.1467 -0.8172
  127MOL    H7045682   2.909   5.700   1.718  0.9077 -0.7869  0.2684
  127MOL    H7145683   3.039   5.711   1.362 -1.3433  0.1438  1.4332
  127MOL    H7245684   3.124   5.554   1.356 -0.8938 -0.9045 -0.6362
  127MOL    H7345685   3.172   5.669   1.475 -0.1129 -0.7035 -0.2071
  127MOL    C7445686   2.701   5.427   1.319  0.1262  0.4208  0.6212
  127MOL    C7545687   2.697   5.510   1.192 -0.2022 -0.5073 -0.5638
  127MOL    C7645688   2.547   5.524   1.159  0.4578 -0.4439  0.1148
  127MOL    C7745689   2.497   5.670   1.202 -0.8393 -0.4347 -0.3321
  127MOL    C7845690   2.353   5.675   1.210  0.3322  0.0850  0.8213
  127MOL    C7945691   2.561   5.786   1.118 -0.8724  0.0709 -0.3386
  127MOL    H8045692   2.622   5.468   1.382 -2.6663 -1.7475 -1.3721
  127MOL    H8145693   2.663   5.326   1.308 -1.4032  0.9560  0.8148
  127MOL    H8245694   2.736   5.608   1.219  0.9463 -1.1895  0.2783
  127MOL    H8345695   2.536   5.523   1.051  0.9711 -1.7164  0.0576
  127MOL    H8445696   2.478   5.447   1.193 -0.7555  0.3453 -0.5065
  127MOL    H8545697   2.517   5.688   1.308  0.0358  1.3865 -0.7812
  127MOL    H8645698   2.323   5.710   1.111  0.6408  0.0070  0.6990
  127MOL    H8745699   2.320   5.758   1.272 -0.3688  1.1503 -0.9300
  127MOL    H8845700   2.301   5.580   1.224 -0.2348  0.0246 -1.4242
  127MOL    H8945701   2.546   5.759   1.014 -1.7530 -0.4928 -0.0673
  127MOL    H9045702   2.511   5.882   1.137 -1.7408 -0.8238  2.0332
  127MOL    H9145703   2.667   5.808   1.134 -0.5106 -1.4600 -0.5565
  127MOL    C9245704   2.768   5.431   1.076  0.4049 -0.3417 -1.0508
  127MOL    C9345705   2.832   5.520   0.958  1.0091 -0.2467 -0.7271
  127MOL    C9445706   2.970   5.588   0.994 -0.4497 -0.2775  0.0517
  127MOL    C9545707   3.002   5.717   0.922 -0.1895 -0.6326 -0.2645
  127MOL    C9645708   2.911   5.836   0.953  0.6129 -0.0402  0.0068
  127MOL    C9745709   3.149   5.756   0.942  0.0059 -0.2038 -0.2122
  127MOL    H9845710   2.848   5.370   1.118 -0.6612 -1.6805 -0.9352
  127MOL    H9945711   2.696   5.361   1.033 -2.2139  1.9674 -0.5974
  127MOL   H10045712   2.756   5.598   0.962  0.1517 -1.1153  0.2961
  127MOL   H10145713   3.057   5.524   0.984  1.3611  1.7454  2.1700
  127MOL   H10245714   2.978   5.608   1.101 -0.9190 -0.1437  0.0635
  127MOL   H10345715   2.993   5.709   0.814 -1.4854 -1.3207 -0.1178
  127MOL   H10445716   2.808   5.802   0.967  0.7381 -0.8044 -0.8973
  127MOL   H10545717   2.897   5.918   0.882  0.4040  1.7719  2.0805
  127MOL   H10645718   2.939   5.884   1.047  1.1429  0.8321 -0.5840
  127MOL   H10745719   3.170   5.761   1.049  1.4630  2.8234 -0.5669
  127MOL   H10845720   3.165   5.860   0.912 -0.2138 -0.2095 -0.3500
  127MOL   H10945721   3.214   5.696   0.877 -0.8997  1.0855 -2.3772
  127MOL   C11045722   2.831   5.441   0.823  0.4006 -0.0058  0.4813
  127MOL   C11145723   2.804   5.514   0.682 -0.3210 -0.3895 -0.1718
  127MOL   C11245724   2.759   5.404   0.584 -0.3960  0.1592  0.5768
  127MOL   C11345725   2.864   5.291   0.555 -0.0218 -0.0398 -0.6678
  127MOL   C11445726   2.988   5.357   0.488 -0.2164 -0.3814 -0.2073
  127MOL   C11545727   2.800   5.182   0.465 -0.0364 -0.3999 -0.2830
  127MOL   H11645728   2.760   5.361   0.843  2.2261 -1.9831 -0.6793
  127MOL   H11745729   2.919   5.376   0.817 -1.6329 -2.6944 -1.8596
  127MOL   H11845730   2.901   5.556   0.655 -0.6448  2.0791  2.2995
  127MOL   H11945731   2.716   5.448   0.494 -2.1087  0.3338  1.4567
  127MOL   H12045732   2.674   5.354   0.630 -1.4017 -1.4537 -2.8923
  127MOL   H12145733   2.902   5.241   0.643 -1.6786 -0.3827 -0.1339
  127MOL   H12245734   3.056   5.291   0.435 -0.4813  0.7330 -1.9934
  127MOL   H12345735   3.035   5.422   0.561 -2.5073 -0.4910  1.4482
  127MOL   H12445736   2.959   5.418   0.402  2.0299  1.3686  0.2410
  127MOL   H12545737   2.754   5.225   0.376 -0.9643 -0.0288  0.3622
  127MOL   H12645738   2.733   5.122   0.527  2.1261 -3.5948 -0.9210
  127MOL   H12745739   2.875   5.113   0.428  2.5383  1.8627  0.5897
  127MOL   C12845740   2.698   5.631   0.699  0.1649 -0.7031  0.6185
  127MOL   C12945741   2.677   5.720   0.576  0.9768  0.2639 -0.6577
  127MOL   C13045742   2.793   5.819   0.563 -0.1963 -0.5753 -0.5039
  127MOL   C13145743   2.804   5.876   0.422  0.0151 -0.2232 -0.2763
  127MOL   C13245744   2.909   5.980   0.411  0.4276 -0.2473 -0.2172
  127MOL   C13345745   2.824   5.769   0.313  0.1143  0.5536  0.6347
  127MOL   H13445746   2.733   5.691   0.783 -0.0162 -1.2055  1.0621
  127MOL   H13545747   2.602   5.591   0.732 -0.6645 -0.3849 -1.3746
  127MOL   H13645748   2.667   5.663   0.484  2.0081 -0.8949 -0.0719
  127MOL   H13745749   2.781   5.898   0.637 -0.2586 -0.6733 -0.4074
  127MOL   H13845750   2.885   5.775   0.603  1.0258  1.0049 -1.5109
  127MOL   H13945751   2.712   5.926   0.389  0.3465  0.5239 -0.0722
  127MOL   H14045752   2.891   6.066   0.476 -1.6781  0.4055 -1.6433
  127MOL   H14145753   2.921   6.012   0.308  0.9222 -0.7222 -0.3069
  127MOL   H14245754   3.004   5.938   0.446  0.9162  0.1839 -1.0241
  127MOL   H14345755   2.896   5.798   0.237  0.6457  1.9098  1.6327
  127MOL   H14445756   2.853   5.674   0.357  0.0979 -0.2724 -1.0875
  127MOL   H14545757   2.733   5.749   0.257  0.6939 -0.3225 -0.0110
  127MOL   C14645758   2.538   5.787   0.576  0.1605  0.3607 -0.5715
  127MOL   C14745759   2.422   5.685   0.556  0.1101  0.3322  0.2083
  127MOL   C14845760   2.349   5.712   0.424 -0.3725  0.1418  0.1005
  127MOL   C14945761   2.413   5.664   0.293  0.6546  0.9274  0.1582
  127MOL   C15045762   2.424   5.505   0.295 -0.1597  0.3732 -0.0209
  127MOL   C15145763   2.324   5.703   0.174  0.1168  0.9174 -0.1502
  127MOL   H15245764   2.541   5.844   0.483  0.1162  0.3865 -0.5564
  127MOL   H15345765   2.521   5.852   0.662 -1.9953 -0.5269 -0.2973
  127MOL   H15445766   2.462   5.583   0.559 -0.1199  0.2658  1.6490
  127MOL   H15545767   2.253   5.661   0.432  0.2772 -0.8108  2.2880
  127MOL   H15645768   2.330   5.819   0.414  1.9803  0.5838  0.1282
  127MOL   H15745769   2.515   5.701   0.295  0.8625  0.3087  1.7116
  127MOL   H15845770   2.471   5.455   0.212 -2.1427 -3.1800  0.9051
  127MOL   H15945771   2.325   5.460   0.298 -0.1603  0.1531 -2.4215
  127MOL   H16045772   2.485   5.466   0.377 -1.7552  2.7756  2.4159
  127MOL   H16145773   2.369   5.661   0.084 -0.5206  1.2100 -0.6055
  127MOL   H16245774   2.309   5.808   0.149  1.0628  1.5117  1.6652
  127MOL   H16345775   2.220   5.672   0.183 -0.1869  1.7323 -0.8740
  127MOL   C16445776   2.333   5.690   0.688  0.2819  0.4694  0.0015
  127MOL   C16545777   2.236   5.565   0.700 -0.4945 -0.3487  1.1556
  127MOL   C16645778   2.320   5.447   0.762 -0.5296  0.5468 -0.6968
  127MOL   C16745779   2.263   5.303   0.740  0.3140  0.4740  0.2001
  127MOL   C16845780   2.252   5.271   0.585 -0.1484  0.1348  0.3344
  127MOL   C16945781   2.358   5.196   0.800 -0.0869  0.0461  0.5210
  127MOL   H17045782   2.389   5.688   0.782 -1.2927  0.8580  0.9623
  127MOL   H17145783   2.286   5.788   0.683  2.4458  1.7299  2.7896
  127MOL   H17245784   2.196   5.538   0.602 -1.5322 -0.8603  1.7161
  127MOL   H17345785   2.423   5.457   0.727  0.3663  2.1132  2.2265
  127MOL   H17445786   2.328   5.463   0.870 -0.1771  0.6605 -0.7399
  127MOL   H17545787   2.162   5.295   0.780  0.4249  2.0262  0.8333
  127MOL   H17645788   2.163   5.316   0.540  0.1437  0.5394  0.1488
  127MOL   H17745789   2.242   5.163   0.576  2.4160 -0.2532  1.8339
  127MOL   H17845790   2.333   5.324   0.534 -2.6756  1.6932 -2.2476
  127MOL   H17945791   2.312   5.097   0.793 -1.8408  0.7228  2.0179
  127MOL   H18045792   2.369   5.204   0.908 -0.5789  1.3354  0.4878
  127MOL   H18145793   2.456   5.196   0.752  0.1710  3.7517  0.8556
  127MOL   C18245794   2.105   5.588   0.774  0.5004  0.4385  0.9572
  127MOL   C18345795   2.010   5.699   0.711  0.6870  0.8316 -0.3579
  127MOL   C18445796   1.877   5.633   0.674  0.1457 -0.2603 -0.0984
  127MOL   C18545797   1.883   5.516   0.572  0.6420  0.0287 -0.6533
  127MOL   C18645798   1.749   5.436   0.568  0.3905 -0.4805  0.0630
  127MOL   C18745799   1.926   5.563   0.428  0.1135 -0.0800  0.5831
  127MOL   H18845800   2.127   5.609   0.879 -0.3444  2.7487  0.7098
  127MOL   H18945801   2.065   5.487   0.768  1.3820  0.1710 -1.0566
  127MOL   H19045802   2.052   5.731   0.616 -2.6725  0.0811 -2.1707
  127MOL   H19145803   1.820   5.709   0.620  1.1067  0.4702 -0.1075
  127MOL   H19245804   1.825   5.612   0.768 -1.0920  2.5910 -0.0722
  127MOL   H19345805   1.959   5.442   0.596  0.7869  0.5937  0.6896
  127MOL   H19445806   1.667   5.495   0.527  1.1697 -0.9325 -2.1989
  127MOL   H19545807   1.723   5.406   0.670 -0.5876 -1.5270 -0.4726
  127MOL   H19645808   1.760   5.347   0.506 -1.0568  0.2859 -1.3370
  127MOL   H19745809   1.893   5.661   0.396 -0.6909 -0.8189 -0.9192
  127MOL   H19845810   1.901   5.482   0.359  1.1118 -0.0146  0.1439
  127MOL   H19945811   2.034   5.569   0.425  0.2775 -2.8592 -0.5404
  127MOL   C20045812   1.996   5.826   0.800  0.1440  0.3867 -0.4966
  127MOL   C20145813   1.905   5.942   0.747  0.0661 -0.0202 -0.1541
  127MOL   C20245814   1.981   6.061   0.685 -0.0860  0.0485  0.4317
  127MOL   C20345815   2.076   6.032   0.564 -0.6574 -0.0484  0.3554
  127MOL   C20445816   1.995   5.963   0.443  0.4525  0.2498  0.0590
  127MOL   C20545817   2.143   6.161   0.511  0.4921 -0.1990  0.0077
  127MOL   H20645818   2.097   5.862   0.819 -0.6551  1.6586  1.4879
  127MOL   H20745819   1.977   5.787   0.900  1.5507 -0.6211 -0.6142
  127MOL   H20845820   1.850   5.899   0.664 -0.2100  1.3563 -0.6965
  127MOL   H20945821   1.905   6.135   0.658  0.0278 -0.4077 -1.2179
  127MOL   H21045822   2.029   6.116   0.765 -1.8112  0.4495  1.2268
  127MOL   H21145823   2.156   5.976   0.612  1.4390  2.2553 -0.3726
  127MOL   H21245824   2.048   5.953   0.349  1.5328 -0.5064  0.7285
  127MOL   H21345825   1.922   6.041   0.422  2.5963  1.9965 -1.0980
  127MOL   H21445826   1.948   5.870   0.473  0.5691  1.0671  2.9608
  127MOL   H21545827   2.191   6.213   0.593 -0.9641  0.5981  0.3765
  127MOL   H21645828   2.079   6.231   0.458  0.4057  1.7516  2.6165
  127MOL   H21745829   2.220   6.139   0.436 -2.6979 -1.0759 -3.1791
  127MOL   C21845830   1.807   5.984   0.855 -0.1160  0.4385  0.8185
  127MOL   C21945831   1.851   6.066   0.975  0.3130  0.4061 -0.2431
  127MOL   C22045832   1.786   6.022   1.106  0.1677  0.0452 -0.3261
  127MOL   C22145833   1.824   5.887   1.164  0.1829 -0.1276  0.2933
  127MOL   C22245834   1.970   5.897   1.218  0.6163  0.2864  0.3087
  127MOL   C22345835   1.718   5.826   1.260  0.3998 -0.2763  0.9353
  127MOL   H22445836   1.716   6.025   0.811 -1.1641  0.4081  2.9146
  127MOL   H22545837   1.781   5.885   0.893  1.0335  0.0558  0.6286
  127MOL   H22645838   1.959   6.055   0.988  0.4033  1.3717 -0.1071
  127MOL   H22745839   1.786   6.094   1.188 -0.7323 -1.6250  1.1580
  127MOL   H22845840   1.678   6.027   1.093  0.1069  1.2367  0.5781
  127MOL   H22945841   1.834   5.804   1.093 -2.0450 -1.5249  1.5733
  127MOL   H23045842   1.969   5.953   1.312 -0.3609 -1.0513  1.1258
  127MOL   H23145843   2.008   5.798   1.244  0.1217 -0.1161 -0.5209
  127MOL   H23245844   2.045   5.932   1.147  0.4099 -0.8037 -0.4461
  127MOL   H23345845   1.738   5.863   1.361  1.0803  0.8040  0.4175
  127MOL   H23445846   1.613   5.834   1.231  1.2319  0.0023 -2.2555
  127MOL   H23545847   1.725   5.718   1.269  1.3830 -0.2392  0.6958
  127MOL   C23645848   1.809   6.215   0.944  0.1426 -0.3849  0.7061
  127MOL   C23745849   1.853   6.327   1.048  0.1691 -0.0162  0.2922
  127MOL   C23845850   1.750   6.443   1.049  0.6464 -0.0730  0.0584
  127MOL   C23945851   1.619   6.429   1.138 -0.5337  0.3070 -0.5237
  127MOL   C24045852   1.650   6.475   1.280 -0.3123 -0.1539  0.3570
  127MOL   C24145853   1.512   6.513   1.065 -0.1907 -0.1005  0.3282
  127MOL   H24245854   1.701   6.221   0.934  0.3802  2.7318 -0.3712
  127MOL   H24345855   1.855   6.244   0.850 -0.3220 -3.3982 -0.5111
  127MOL   H24445856   1.835   6.297   1.151 -0.0665  0.2199  0.3203
  127MOL   H24545857   1.716   6.461   0.947  1.4166 -0.6809 -0.3124
  127MOL   H24645858   1.810   6.529   1.078 -1.0058  1.1970 -0.2261
  127MOL   H24745859   1.592   6.326   1.161 -2.1080  0.8979  0.3636
  127MOL   H24845860   1.721   6.557   1.293 -0.5711  0.0787  0.3256
  127MOL   H24945861   1.689   6.391   1.336 -0.3628 -0.5067 -0.1352
  127MOL   H25045862   1.563   6.508   1.337 -1.8284  0.5160 -2.2538
  127MOL   H25145863   1.448   6.453   1.000 -0.0800  0.3734 -0.2197
  127MOL   H25245864   1.559   6.600   1.018 -2.0479  0.2718 -0.8708
  127MOL   H25345865   1.439   6.555   1.135  2.0765 -0.0642  2.7676
  127MOL   C25445866   2.002   6.378   1.031 -0.3530 -0.0742  0.6395
  127MOL   C25545867   2.092   6.360   1.153 -0.1197 -0.1994  0.8004
  127MOL   C25645868   2.243   6.392   1.120  0.0125 -0.0264  1.0161
  127MOL   C25745869   2.348   6.271   1.120 -0.7736 -0.5108  0.3897
  127MOL   C25845870   2.494   6.315   1.135  0.1501  0.0764 -0.5085
  127MOL   C25945871   2.331   6.187   0.986  0.6300  0.5514  0.0221
  127MOL   H26045872   2.057   6.317   0.960 -0.2054 -0.6144  1.2093
  127MOL   H26145873   2.007   6.475   0.981  1.9757  0.1796  1.3032
  127MOL   H26245874   2.087   6.253   1.177 -0.2024 -0.4469 -0.2787
  127MOL   H26345875   2.278   6.473   1.184 -1.5271 -0.4330  2.3989
  127MOL   H26445876   2.253   6.435   1.020  1.2403 -1.4226  0.5218
  127MOL   H26545877   2.327   6.202   1.202 -2.1478  0.1609  0.6190
  127MOL   H26645878   2.515   6.420   1.116  1.5141 -0.1430 -0.2630
  127MOL   H26745879   2.571   6.254   1.088  1.2263 -0.4576  1.8356
  127MOL   H26845880   2.519   6.313   1.241 -0.6968  0.6990 -0.2933
  127MOL   H26945881   2.356   6.242   0.895 -1.4577 -0.9655 -1.5108
  127MOL   H27045882   2.393   6.098   0.986  0.3577  0.3591 -0.5743
  127MOL   H27145883   2.227   6.158   0.982  0.5704  0.5166  1.5879
  127MOL   C27245884   2.039   6.442   1.274 -0.4809  0.5504 -0.2244
  127MOL   C27345885   2.115   6.432   1.410 -0.2813 -0.2384  0.1984
  127MOL   C27445886   2.078   6.546   1.505  0.1015 -0.5107 -0.3723
  127MOL   C27545887   2.151   6.685   1.485 -0.2399  0.3111  0.0637
  127MOL   C27645888   2.303   6.672   1.512 -0.1697 -0.3598  0.4379
  127MOL   C27745889   2.099   6.805   1.567  0.7657 -0.3590  0.4732
  127MOL   H27845890   2.053   6.547   1.248 -0.2704  0.1547 -1.7281
  127MOL   H27945891   1.934   6.424   1.297 -0.6407  1.3832 -0.2887
  127MOL   H28045892   2.224   6.441   1.403 -0.2177  0.4914  1.9802
  127MOL   H28145893   2.101   6.523   1.609  1.6209  2.2769 -0.0404
  127MOL   H28245894   1.969   6.549   1.506  0.1069 -0.4764  0.0267
  127MOL   H28345895   2.139   6.721   1.383  0.8848  2.2354  0.5925
  127MOL   H28445896   2.345   6.600   1.441 -0.5390 -1.5457  1.4101
  127MOL   H28545897   2.359   6.763   1.494  0.0026 -0.7830 -1.3271
  127MOL   H28645898   2.313   6.640   1.615 -2.2955 -0.1667  0.7337
  127MOL   H28745899   2.003   6.837   1.528  1.6015 -0.6246 -1.9183
  127MOL   H28845900   2.090   6.788   1.674  1.3704 -1.5364  0.3489
  127MOL   H28945901   2.163   6.891   1.546  0.0625  0.3215  1.1078
  127MOL   C29045902   2.084   6.293   1.473  0.5598  0.3627  0.4210
  127MOL   C29145903   2.168   6.249   1.590 -0.2027  0.4606 -0.2953
  127MOL   C29245904   2.105   6.130   1.670  0.0567  1.3035 -0.1508
  127MOL   C29345905   1.968   6.148   1.732  0.5486  0.4503  0.2562
  127MOL   C29445906   1.929   6.036   1.819 -0.6699 -0.1219  0.9839
  127MOL   C29545907   1.964   6.284   1.807 -0.0006  1.0900 -0.3372
  127MOL   H29645908   1.983   6.298   1.513  0.3999 -0.5833  0.1332
  127MOL   H29745909   2.073   6.206   1.408 -1.4485 -0.5223  1.8811
  127MOL   H29845910   2.193   6.329   1.661 -0.2164  1.9760 -1.9612
  127MOL   H29945911   2.186   6.085   1.728  2.5145  2.5608 -2.4682
  127MOL   H30045912   2.094   6.045   1.603 -1.0933  0.4661  1.0856
  127MOL   H30145913   1.899   6.153   1.648  0.0130  2.0556  0.7675
  127MOL   H30245914   1.978   5.944   1.788  0.8253  1.5136 -1.7320
  127MOL   H30345915   1.822   6.016   1.815 -0.5770 -0.4082 -0.4026
  127MOL   H30445916   1.947   6.051   1.925 -2.7405  1.0229  1.1907
  127MOL   H30545917   2.054   6.306   1.865 -0.1843  1.1370 -0.0703
  127MOL   H30645918   1.871   6.284   1.864  1.9077 -0.4327  2.9465
  127MOL   H30745919   1.969   6.362   1.731  3.2128  0.3435 -0.9794
  127MOL   C30845920   2.307   6.201   1.530 -0.5451 -0.3896  0.1618
  127MOL   C30945921   2.425   6.176   1.616 -0.0539 -0.2446  0.2201
  127MOL   C31045922   2.544   6.104   1.547 -0.1730  0.0242 -0.3433
  127MOL   C31145923   2.532   5.950   1.539 -0.7662 -0.2896  0.3885
  127MOL   C31245924   2.667   5.901   1.487  0.0993  0.3911 -0.4015
  127MOL   C31345925   2.502   5.891   1.677 -0.0078 -0.1440  0.5687
  127MOL   H31445926   2.295   6.101   1.488  2.3271 -0.6936 -0.0133
  127MOL   H31545927   2.329   6.265   1.445 -1.5589  1.7081  1.4230
  127MOL   H31645928   2.397   6.124   1.707 -0.8448  1.7190  1.1442
  127MOL   H31745929   2.630   6.137   1.605 -0.8776  1.2600  0.0188
  127MOL   H31845930   2.559   6.144   1.447  0.7611 -0.5446 -0.4396
  127MOL   H31945931   2.458   5.917   1.466 -0.6490  0.4778 -0.0899
  127MOL   H32045932   2.678   5.939   1.385 -0.2501  0.9429 -0.2361
  127MOL   H32145933   2.676   5.792   1.490 -0.5895  0.3230 -0.7148
  127MOL   H32245934   2.745   5.941   1.552 -1.1647  2.7154 -0.2547
  127MOL   H32345935   2.508   5.782   1.683  2.3254  0.0756  2.9479
  127MOL   H32445936   2.563   5.934   1.757  0.2438 -1.1767  0.9420
  127MOL   H32545937   2.397   5.907   1.702  0.1179 -0.0674  1.0576
  127MOL   C32645938   2.487   6.319   1.657  0.1963  0.4150  0.0770
  127MOL   C32745939   2.569   6.327   1.789 -0.1384 -0.5025 -0.0758
  127MOL   C32845940   2.474   6.326   1.906 -0.0412 -0.9790 -1.1021
  127MOL   C32945941   2.535   6.276   2.036 -0.2596  0.2505 -0.5827
  127MOL   C33045942   2.508   6.369   2.153  0.6521 -0.6274  0.0228
  127MOL   C33145943   2.502   6.126   2.065  0.1125  0.1014  0.4513
  127MOL   H33245944   2.405   6.392   1.658  0.9272  1.2643 -0.7754
  127MOL   H33345945   2.544   6.358   1.573 -0.0661 -1.2526 -0.8813
  127MOL   H33445946   2.632   6.239   1.803  0.8755  0.4015  1.2151
  127MOL   H33545947   2.413   6.416   1.917  1.2241 -0.1289 -0.9160
  127MOL   H33645948   2.400   6.252   1.875  0.0745 -1.1389 -0.9950
  127MOL   H33745949   2.642   6.292   2.024 -0.6767  2.0091 -2.0131
  127MOL   H33845950   2.541   6.472   2.138 -1.7200  0.0614 -0.5813
  127MOL   H33945951   2.549   6.327   2.245 -0.1560  0.6412  0.9725
  127MOL   H34045952   2.400   6.377   2.166  0.8976  2.0463  0.7881
  127MOL   H34145953   2.550   6.066   1.988 -0.4228 -0.1970  0.3496
  127MOL   H34245954   2.555   6.088   2.153  0.5945 -1.2027 -0.3923
  127MOL   H34345955   2.397   6.100   2.073 -0.3578  1.7571 -0.1323
  127MOL   C34445956   2.659   6.465   1.799 -0.2446  0.3242  0.6133
  127MOL   C34545957   2.593   6.602   1.757 -0.0686 -0.1310 -0.1098
  127MOL   C34645958   2.698   6.720   1.778 -0.0063 -0.0664  0.0029
  127MOL   C34745959   2.642   6.857   1.733  0.2250 -0.3665  0.3437
  127MOL   C34845960   2.751   6.966   1.755  0.2654  0.1332  0.1105
  127MOL   C34945961   2.506   6.902   1.799  0.3344  0.3329  0.3763
  127MOL   H35045962   2.743   6.459   1.730 -0.8059 -0.1844 -0.0400
  127MOL   H35145963   2.704   6.477   1.897 -0.5835 -1.1735  0.9630
  127MOL   H35245964   2.510   6.614   1.828  0.8107 -0.8015  1.0460
  127MOL   H35345965   2.727   6.734   1.883 -1.1332 -1.5614  0.5207
  127MOL   H35445966   2.793   6.710   1.725 -0.5322 -0.1145 -0.9350
  127MOL   H35545967   2.623   6.843   1.626  0.7882 -1.5354  0.3911
  127MOL   H35645968   2.850   6.943   1.716  0.0828 -0.9783  0.2924
  127MOL   H35745969   2.725   7.062   1.710  1.0294  1.0073  1.4999
  127MOL   H35845970   2.760   6.992   1.860  0.2869  0.9801 -0.0944
  127MOL   H35945971   2.511   6.914   1.907 -1.5968  1.9270  0.3308
  127MOL   H36045972   2.425   6.829   1.794 -0.6315  1.3959 -0.0600
  127MOL   H36145973   2.479   6.999   1.756 -1.5223  0.3581  1.5596
  127MOL   H36245974   2.558   6.596   1.654  0.9482  0.0731 -0.4689
  128MOL     C145975   5.757   3.092   0.381  0.0440  0.7700 -0.6029
  128MOL     C245976   5.625   3.144   0.429 -0.7923 -0.2668 -0.1370
  128MOL     C345977   5.549   3.220   0.323 -0.2462  0.2375 -0.0832
  128MOL     C445978   5.412   3.283   0.354 -0.8301 -0.2734 -0.2605
  128MOL     C545979   5.302   3.175   0.385 -0.2587 -0.9090 -0.6287
  128MOL     C645980   5.367   3.379   0.248 -0.9668  0.1591  0.2051
  128MOL     H745981   5.823   3.173   0.349  2.5231 -0.3190  1.5818
  128MOL     H845982   5.813   3.042   0.459  1.8934 -0.0876 -2.4229
  128MOL     H945983   5.561   3.060   0.454  1.7227 -2.6507 -1.4595
  128MOL    H1045984   5.610   3.303   0.287 -0.7381  0.8748  0.5394
  128MOL    H1145985   5.540   3.146   0.244  4.0382 -0.7445  0.2357
  128MOL    H1245986   5.420   3.346   0.442 -0.1058 -0.4740 -0.1798
  128MOL    H1345987   5.288   3.099   0.309 -0.7062 -2.2637  0.7821
  128MOL    H1445988   5.313   3.134   0.486 -1.4131 -1.6974 -0.8095
  128MOL    H1545989   5.202   3.219   0.393 -0.1699 -0.7382 -0.4573
  128MOL    H1645990   5.344   3.317   0.161 -0.6098  1.3057 -0.7205
  128MOL    H1745991   5.440   3.455   0.223 -2.1339  0.4493 -2.5725
  128MOL    H1845992   5.277   3.430   0.281 -0.7259  0.7305 -0.0207
  128MOL    H1945993   5.750   3.015   0.304 -2.6067 -1.6909  1.9808
  128MOL    C2045994   5.650   3.228   0.564  0.0452  0.0257 -0.4066
  128MOL    C2145995   5.672   3.138   0.689  0.8303  0.4439 -0.1070
  128MOL    C2245996   5.711   3.228   0.819 -0.8808  0.5559 -0.1731
  128MOL    C2345997   5.837   3.316   0.802 -1.3908 -0.0860  0.0857
  128MOL    C2445998   5.873   3.391   0.929 -0.2820  0.2019  0.2207
  128MOL    C2545999   5.949   3.237   0.738 -0.4482 -0.6665  0.2523
  128MOL    H2646000   5.736   3.293   0.546  0.0542  0.4621  1.1579
  128MOL    H2746001   5.563   3.293   0.578 -0.7186 -0.9242 -0.7321
  128MOL    H2846002   5.755   3.073   0.661  0.3376  0.7021 -2.1928
  128MOL    H2946003   5.726   3.161   0.904  2.5505 -1.3495 -2.1621
  128MOL    H3046004   5.627   3.289   0.852 -1.4347  0.3189 -1.1284
  128MOL    H3146005   5.810   3.391   0.727  0.6346 -1.7006 -2.3429
  128MOL    H3246006   5.888   3.327   1.016 -0.7214 -0.9965 -0.5672
  128MOL    H3346007   5.782   3.449   0.946 -1.3031 -1.0884 -0.7191
  128MOL    H3446008   5.962   3.450   0.913 -0.7211  0.3216 -1.8502
  128MOL    H3546009   5.963   3.134   0.771 -0.4347 -1.4075 -1.9417
  128MOL    H3646010   5.921   3.239   0.632  0.6429 -0.9926 -0.0470
  128MOL    H3746011   6.040   3.297   0.737  0.7872 -2.5079  0.1957
  128MOL    C3846012   5.548   3.055   0.721  0.1188  0.0811  0.0447
  128MOL    C3946013   5.547   2.966   0.848  0.3346  0.1708 -0.1931
  128MOL    C4046014   5.680   2.881   0.853 -0.3716  1.0847 -0.4665
  128MOL    C4146015   5.704   2.803   0.990 -0.0474  0.3412 -0.3966
  128MOL    C4246016   5.744   2.895   1.107  0.0046 -0.2058  0.0607
  128MOL    C4346017   5.802   2.681   0.984  0.5982  0.1752  0.1828
  128MOL    H4446018   5.524   2.992   0.635  2.3396  0.7953 -1.1495
  128MOL    H4546019   5.468   3.128   0.718  0.2693  0.1993 -1.9601
  128MOL    H4646020   5.550   3.034   0.934 -1.1198 -1.2040  0.9642
  128MOL    H4746021   5.763   2.951   0.843 -0.2043  0.6627 -2.1958
  128MOL    H4846022   5.687   2.821   0.763  0.8022 -0.1716  0.4376
  128MOL    H4946023   5.612   2.748   1.007 -1.6729  2.6371 -1.5372
  128MOL    H5046024   5.660   2.964   1.114  0.2336  0.4509 -2.9543
  128MOL    H5146025   5.767   2.839   1.198  0.3642  1.4799  1.0395
  128MOL    H5246026   5.833   2.953   1.083  0.6618 -2.3768 -2.9342
  128MOL    H5346027   5.759   2.615   0.908 -1.8973  1.5671  0.3346
  128MOL    H5446028   5.804   2.624   1.077  0.4464  3.2824  2.1607
  128MOL    H5546029   5.903   2.701   0.947  0.1246 -1.3454 -2.0362
  128MOL    C5646030   5.411   2.881   0.846  0.2494 -0.3639 -0.2689
  128MOL    C5746031   5.299   2.924   0.936 -0.1884 -0.4733  0.1934
  128MOL    C5846032   5.229   3.053   0.890 -0.0238 -0.0421  0.1165
  128MOL    C5946033   5.173   3.054   0.742 -0.3184 -0.2895  0.4443
  128MOL    C6046034   5.142   3.207   0.704  0.1345  0.6659  0.2724
  128MOL    C6146035   5.065   2.953   0.708 -0.2190 -0.0046 -0.5465
  128MOL    H6246036   5.426   2.775   0.868 -1.0727 -0.7673 -1.2489
  128MOL    H6346037   5.384   2.873   0.741 -0.4058 -1.7092 -0.0109
  128MOL    H6446038   5.226   2.843   0.932 -1.5556  0.6834  1.1035
  128MOL    H6546039   5.144   3.073   0.956 -0.9962 -1.9640 -0.5076
  128MOL    H6646040   5.303   3.131   0.905  1.3338 -1.1792 -0.5680
  128MOL    H6746041   5.260   3.025   0.683  0.3451 -1.7417  2.0801
  128MOL    H6846042   5.233   3.259   0.675  1.1183 -1.5440 -0.7735
  128MOL    H6946043   5.095   3.264   0.785 -0.7987  1.1102 -0.5672
  128MOL    H7046044   5.068   3.215   0.624  0.3823 -0.3841 -0.0725
  128MOL    H7146045   4.981   2.962   0.777 -0.4690  0.9321 -0.9547
  128MOL    H7246046   5.103   2.852   0.718 -0.5999 -0.0825  0.1307
  128MOL    H7346047   5.036   2.970   0.604 -0.0995 -2.1624 -0.9579
  128MOL    C7446048   5.343   2.929   1.088 -0.1402 -0.2629  0.3706
  128MOL    C7546049   5.234   2.931   1.193  0.1674  0.4592  0.2269
  128MOL    C7646050   5.248   3.006   1.328 -0.3313 -0.1127 -0.6435
  128MOL    C7746051   5.388   2.998   1.389  0.1327 -0.5264  0.0058
  128MOL    C7846052   5.427   2.855   1.426 -0.1957 -0.8007  0.3625
  128MOL    C7946053   5.398   3.090   1.511 -0.8314 -0.3195  0.5556
  128MOL    H8046054   5.396   3.021   1.113  3.5195 -1.9331 -0.8386
  128MOL    H8146055   5.410   2.848   1.117  1.0386  0.0976 -1.2828
  128MOL    H8246056   5.161   3.000   1.150 -1.1604 -0.9514  0.1814
  128MOL    H8346057   5.234   3.113   1.313 -1.8907 -0.2125 -0.0161
  128MOL    H8446058   5.182   2.969   1.407 -1.4540  0.7191 -1.1910
  128MOL    H8546059   5.458   3.041   1.317 -0.4383  1.6717  0.7076
  128MOL    H8646060   5.482   2.821   1.339 -1.3888  0.7395 -1.0362
  128MOL    H8746061   5.339   2.794   1.447 -1.5011  1.8986  3.1464
  128MOL    H8846062   5.499   2.849   1.508  0.0096  1.3274  0.3575
  128MOL    H8946063   5.485   3.072   1.574 -0.4065  3.1264  1.0798
  128MOL    H9046064   5.406   3.193   1.476 -0.2396 -0.6689 -0.3501
  128MOL    H9146065   5.320   3.070   1.585 -1.2609 -1.1769 -0.1249
  128MOL    C9246066   5.175   2.786   1.209 -0.4384 -0.3265 -0.0953
  128MOL    C9346067   5.032   2.762   1.162  0.1590 -0.5019 -0.0488
  128MOL    C9446068   4.989   2.616   1.163  0.0597 -0.0467 -0.1720
  128MOL    C9546069   5.054   2.523   1.056 -0.1922  0.7787 -0.0139
  128MOL    C9646070   4.998   2.379   1.063 -0.3086  0.2565 -0.1503
  128MOL    C9746071   5.028   2.567   0.910 -0.3833 -0.0927 -0.2459
  128MOL    H9846072   5.239   2.713   1.159  1.5391  1.6982 -0.5917
  128MOL    H9946073   5.166   2.751   1.312  1.5486  1.3166  0.6784
  128MOL   H10046074   5.032   2.801   1.060 -1.0342  0.7398  0.4009
  128MOL   H10146075   4.880   2.623   1.163 -0.0375 -1.1444  2.7834
  128MOL   H10246076   5.014   2.570   1.259 -0.3632 -0.7951 -0.4176
  128MOL   H10346077   5.162   2.526   1.067 -0.0987  0.4064 -0.8049
  128MOL   H10446078   5.009   2.340   1.164 -2.0130 -0.4954 -0.2414
  128MOL   H10546079   5.046   2.304   1.000 -0.2736  1.8412 -2.0708
  128MOL   H10646080   4.890   2.373   1.051 -0.3589 -1.2001  0.8752
  128MOL   H10746081   5.087   2.655   0.886  0.8832 -0.5331  1.2182
  128MOL   H10846082   4.925   2.596   0.887 -0.6579 -0.3144  0.6933
  128MOL   H10946083   5.061   2.490   0.840  0.1458  0.8449 -1.0283
  128MOL   C11046084   4.925   2.848   1.239  0.6126  0.0135 -0.0356
  128MOL   C11146085   4.783   2.869   1.158  0.0711 -0.2465  0.6623
  128MOL   C11246086   4.658   2.901   1.252 -0.2192  0.9299 -0.6131
  128MOL   C11346087   4.620   2.789   1.355  0.1393 -0.2478  0.2384
  128MOL   C11446088   4.580   2.656   1.283  0.0309 -0.5545  0.1366
  128MOL   C11546089   4.489   2.829   1.430  0.3890  0.0607 -0.2865
  128MOL   H11646090   4.965   2.949   1.254  0.7838  0.3253 -2.4753
  128MOL   H11746091   4.897   2.805   1.335 -0.6045  0.0291 -0.3838
  128MOL   H11846092   4.752   2.773   1.119  3.1832 -0.8928 -0.4171
  128MOL   H11946093   4.571   2.922   1.191  0.7981 -0.0089 -2.4281
  128MOL   H12046094   4.684   2.991   1.308  1.3218 -0.1112  0.3979
  128MOL   H12146095   4.699   2.768   1.427 -0.5364 -0.4236  0.9478
  128MOL   H12246096   4.532   2.582   1.347  0.5324  1.0559  2.4691
  128MOL   H12346097   4.663   2.602   1.238 -0.0775 -2.2412  1.8659
  128MOL   H12446098   4.509   2.674   1.202  1.3193 -2.1243 -1.3693
  128MOL   H12546099   4.413   2.877   1.367 -1.3996 -0.3545  1.4917
  128MOL   H12646100   4.509   2.909   1.501 -0.1116 -0.0014 -0.0675
  128MOL   H12746101   4.453   2.739   1.480  1.4229 -0.2809 -0.1609
  128MOL   C12846102   4.787   2.975   1.050 -0.0300 -0.2998  0.2384
  128MOL   C12946103   4.677   2.957   0.942  0.4805 -0.2059 -0.4932
  128MOL   C13046104   4.708   2.833   0.855 -0.2806 -0.2034 -0.2355
  128MOL   C13146105   4.604   2.794   0.753  0.2587 -0.2050  0.4302
  128MOL   C13246106   4.660   2.709   0.637  0.6411 -1.0738  0.6111
  128MOL   C13346107   4.477   2.725   0.818 -0.0107  0.5434  0.2056
  128MOL   H13446108   4.879   2.972   0.991  0.4024 -0.8402  0.9257
  128MOL   H13546109   4.778   3.075   1.093  2.8276  0.0438  0.1941
  128MOL   H13646110   4.580   2.937   0.988  1.8707 -0.2743  2.4468
  128MOL   H13746111   4.803   2.862   0.810 -0.5768 -0.4258 -1.0232
  128MOL   H13846112   4.735   2.744   0.912  0.2861 -0.1743 -0.4586
  128MOL   H13946113   4.566   2.879   0.695 -0.0073 -0.5418  0.1120
  128MOL   H14046114   4.601   2.719   0.546  2.5554  1.0510 -0.4189
  128MOL   H14146115   4.670   2.602   0.658 -0.8611 -1.1971  0.8271
  128MOL   H14246116   4.759   2.740   0.605  0.2004  0.7861  0.9872
  128MOL   H14346117   4.411   2.690   0.738 -0.3478  1.9665 -0.1479
  128MOL   H14446118   4.516   2.640   0.873  0.5815  1.5496  1.3584
  128MOL   H14546119   4.430   2.801   0.881  1.9352  1.4641  0.5888
  128MOL   C14646120   4.646   3.084   0.854 -0.3125 -0.1768 -0.2705
  128MOL   C14746121   4.509   3.152   0.887  0.2291 -0.3190  0.2613
  128MOL   C14846122   4.463   3.249   0.774  0.5919  0.3237 -0.4859
  128MOL   C14946123   4.448   3.187   0.633  0.0364  0.3095 -0.1345
  128MOL   C15046124   4.338   3.078   0.632 -0.6590  0.2135 -0.3024
  128MOL   C15146125   4.411   3.299   0.529  0.1602 -0.2403  0.5909
  128MOL   H15246126   4.659   3.071   0.747 -0.4808 -1.4040 -0.1482
  128MOL   H15346127   4.727   3.155   0.869 -1.1813  0.6979  0.3481
  128MOL   H15446128   4.446   3.063   0.886 -1.1715  0.6616  0.3063
  128MOL   H15546129   4.376   3.308   0.801  0.7358 -0.3507  1.5342
  128MOL   H15646130   4.541   3.325   0.763  0.6818 -0.0941 -2.8734
  128MOL   H15746131   4.538   3.132   0.606  0.4060  0.6269  0.4279
  128MOL   H15846132   4.323   3.050   0.528 -0.0183  1.1144 -0.6424
  128MOL   H15946133   4.246   3.118   0.675  0.8217  1.5344  1.7998
  128MOL   H16046134   4.368   2.990   0.690 -0.8273 -0.8485 -1.8116
  128MOL   H16146135   4.483   3.381   0.521  1.0134 -1.2569 -3.0219
  128MOL   H16246136   4.315   3.341   0.557 -0.4200 -0.8405 -0.4874
  128MOL   H16346137   4.399   3.268   0.425  0.7863 -2.0623  1.0326
  128MOL   C16446138   4.501   3.218   1.020  0.0933  0.3856  0.5118
  128MOL   C16546139   4.374   3.242   1.096  0.2001 -0.1578 -0.9215
  128MOL   C16646140   4.310   3.110   1.136  0.4515 -0.3970  1.0196
  128MOL   C16746141   4.200   3.055   1.047 -0.0080  0.1774  0.2325
  128MOL   C16846142   4.163   2.908   1.086 -0.6633  0.4222 -0.0026
  128MOL   C16946143   4.064   3.126   1.039 -0.8197 -0.3055  0.1195
  128MOL   H17046144   4.574   3.160   1.077  0.4902  0.3081 -0.0671
  128MOL   H17146145   4.544   3.317   1.009 -1.7577  1.3259  1.5081
  128MOL   H17246146   4.308   3.303   1.035  0.5802  0.9423 -0.2337
  128MOL   H17346147   4.386   3.035   1.160  1.3887 -0.5642 -2.2639
  128MOL   H17446148   4.263   3.121   1.234 -0.3734  0.5830  0.5232
  128MOL   H17546149   4.231   3.053   0.942 -1.7545  0.3460 -0.3153
  128MOL   H17646150   4.252   2.851   1.063 -1.3494  0.4901 -3.0044
  128MOL   H17746151   4.076   2.880   1.027 -0.2376  1.5486 -1.1976
  128MOL   H17846152   4.139   2.916   1.192 -0.0690 -3.5930  0.5127
  128MOL   H17946153   4.018   3.118   1.137 -0.1992 -0.6109  0.3870
  128MOL   H18046154   4.001   3.074   0.967 -1.7594  2.2217 -0.9709
  128MOL   H18146155   4.067   3.234   1.021  0.8757 -0.3564  0.0578
  128MOL   C18246156   4.410   3.326   1.224 -0.4315 -0.6515  0.6075
  128MOL   C18346157   4.308   3.369   1.322 -0.2241 -0.3443 -0.6980
  128MOL   C18446158   4.376   3.478   1.415 -0.0754  0.8639  0.1036
  128MOL   C18546159   4.467   3.430   1.532 -0.1792  0.4999 -0.5566
  128MOL   C18646160   4.502   3.562   1.619  0.2124 -0.2345  0.2590
  128MOL   C18746161   4.414   3.324   1.620 -0.4305 -0.4519 -0.8321
  128MOL   H18846162   4.453   3.419   1.187 -0.1442 -0.5358  1.2220
  128MOL   H18946163   4.502   3.288   1.268 -0.4217 -0.5403  0.6826
  128MOL   H19046164   4.267   3.282   1.373 -2.5556  1.1050 -0.0680
  128MOL   H19146165   4.300   3.541   1.462  0.9798  1.6518  0.7790
  128MOL   H19246166   4.414   3.557   1.350  0.8085  0.3166 -0.0520
  128MOL   H19346167   4.558   3.402   1.479  0.7110  0.4287  0.9955
  128MOL   H19446168   4.594   3.555   1.677  1.0113  0.4773 -0.8932
  128MOL   H19546169   4.422   3.593   1.687 -1.5340 -2.7897 -0.5870
  128MOL   H19646170   4.505   3.648   1.552 -0.3552  0.3683  0.9889
  128MOL   H19746171   4.333   3.368   1.677  2.7276  2.2006  1.8093
  128MOL   H19846172   4.478   3.291   1.702  0.5219 -0.4846 -1.5654
  128MOL   H19946173   4.385   3.232   1.569 -1.7093 -1.3257  1.4086
  128MOL   C20046174   4.188   3.434   1.247  0.2386 -1.1853  0.4562
  128MOL   C20146175   4.073   3.475   1.342  0.6236 -0.4871  0.2273
  128MOL   C20246176   3.985   3.350   1.368  0.2154 -0.5628  0.5718
  128MOL   C20346177   3.929   3.335   1.509 -0.3075  0.0221  0.2139
  128MOL   C20446178   3.813   3.227   1.523 -0.1556 -0.6203 -0.5148
  128MOL   C20546179   4.033   3.298   1.616 -0.1225  0.0817  0.1005
  128MOL   H20646180   4.148   3.380   1.162  2.8041 -0.0972 -1.5248
  128MOL   H20746181   4.222   3.522   1.192 -0.8006 -1.4123 -0.5640
  128MOL   H20846182   4.102   3.515   1.439  2.0295  0.2596 -0.4964
  128MOL   H20946183   3.904   3.344   1.295  0.4096  0.0995  0.3004
  128MOL   H21046184   4.050   3.264   1.357  0.8194 -0.4945  3.2313
  128MOL   H21146185   3.878   3.429   1.530 -1.1775  0.0494 -1.8958
  128MOL   H21246186   3.793   3.207   1.628  1.2760  0.2558 -0.0571
  128MOL   H21346187   3.824   3.141   1.457 -2.1805 -2.2289  1.2014
  128MOL   H21446188   3.722   3.284   1.503  0.6781 -0.0929 -2.9672
  128MOL   H21546189   3.976   3.309   1.708  0.7182  0.5151  0.5775
  128MOL   H21646190   4.124   3.358   1.625 -0.3689  0.2406  1.4980
  128MOL   H21746191   4.074   3.197   1.615  0.2783  0.2261 -3.1757
  128MOL   C21846192   3.995   3.587   1.275 -0.2297 -1.0202 -0.2827
  128MOL   C21946193   4.046   3.729   1.303  0.4881 -0.0830 -0.4793
  128MOL   C22046194   4.001   3.778   1.445 -0.0562  0.2809 -0.5731
  128MOL   C22146195   4.092   3.894   1.495  0.4325 -0.0815  0.0952
  128MOL   C22246196   4.044   3.956   1.625 -0.2477  0.1065  0.0358
  128MOL   C22346197   4.237   3.837   1.513 -0.8253 -0.5714 -0.4619
  128MOL   H22446198   3.980   3.564   1.170  0.4638 -2.2537 -0.1161
  128MOL   H22546199   3.897   3.573   1.320  0.2561 -0.3731  1.0195
  128MOL   H22646200   4.153   3.709   1.307  0.3010 -0.9618  0.4426
  128MOL   H22746201   3.895   3.800   1.441  0.3367  2.0789 -1.7586
  128MOL   H22846202   4.002   3.706   1.527 -0.4014  0.4712 -0.3998
  128MOL   H22946203   4.088   3.974   1.420 -0.1595 -1.2620 -1.1523
  128MOL   H23046204   3.942   3.990   1.608 -0.0813  0.8104  0.4474
  128MOL   H23146205   4.038   3.879   1.702 -0.4042  0.3147  0.2329
  128MOL   H23246206   4.102   4.045   1.649  0.9169 -0.2759 -1.3299
  128MOL   H23346207   4.242   3.752   1.581  3.3980 -1.1528 -1.3476
  128MOL   H23446208   4.293   3.806   1.424 -0.3620 -0.9683 -0.0329
  128MOL   H23546209   4.305   3.910   1.557 -2.4656  0.8170 -0.1782
  128MOL   C23646210   3.999   3.838   1.195  0.4352  0.4084 -0.0971
  128MOL   C23746211   4.001   3.800   1.045  0.4246 -0.1722  0.3103
  128MOL   C23846212   4.141   3.756   0.999 -0.0233 -0.7304  0.2934
  128MOL   C23946213   4.148   3.666   0.877  1.3506 -0.4516 -0.2813
  128MOL   C24046214   4.292   3.636   0.837  0.1253  0.5804 -0.8882
  128MOL   C24146215   4.084   3.533   0.901  0.0324 -0.1012 -0.0134
  128MOL   H24246216   4.062   3.927   1.195  1.7119 -0.4884 -0.2486
  128MOL   H24346217   3.900   3.877   1.219  0.9925  2.4462 -1.0392
  128MOL   H24446218   3.919   3.730   1.033 -1.2982  1.5277  1.7197
  128MOL   H24546219   4.203   3.703   1.071  0.0474  0.1576  0.8873
  128MOL   H24646220   4.197   3.850   0.997  2.0356 -1.9376  0.3007
  128MOL   H24746221   4.108   3.725   0.794  0.4522 -0.4994  0.1159
  128MOL   H24846222   4.360   3.595   0.911 -0.0383 -0.9044 -1.5417
  128MOL   H24946223   4.351   3.724   0.811  1.9453 -0.8275 -1.6448
  128MOL   H25046224   4.285   3.562   0.757  1.4301  0.3322 -0.7780
  128MOL   H25146225   3.975   3.537   0.899 -0.0861 -2.6342  0.0534
  128MOL   H25246226   4.120   3.485   0.991  3.3941  0.3311 -1.0769
  128MOL   H25346227   4.093   3.460   0.821 -1.9732  0.6453 -0.9664
  128MOL   C25446228   3.940   3.917   0.965 -0.3798  0.8900  0.1765
  128MOL   C25546229   3.785   3.939   0.967  0.0475  0.5054 -0.0403
  128MOL   C25646230   3.750   4.068   0.893 -0.0026 -0.5286 -0.3439
  128MOL   C25746231   3.778   4.186   0.980 -0.2384 -0.1508  0.5859
  128MOL   C25846232   3.669   4.204   1.081 -0.1062  0.3313 -0.0800
  128MOL   C25946233   3.802   4.320   0.900 -0.0193 -0.6111 -0.0240
  128MOL   H26046234   4.000   4.007   0.977 -0.2931  0.9699 -0.7548
  128MOL   H26146235   3.978   3.894   0.865  1.1790  2.3864  0.4029
  128MOL   H26246236   3.753   3.943   1.071  1.5673 -0.7995  0.5050
  128MOL   H26346237   3.647   4.063   0.860 -0.3570  0.6639  0.5599
  128MOL   H26446238   3.805   4.078   0.799  1.1804 -2.8558  0.0492
  128MOL   H26546239   3.870   4.162   1.035 -0.3820  0.5870  1.1490
  128MOL   H26646240   3.571   4.179   1.040 -0.3733  1.4917 -0.1648
  128MOL   H26746241   3.664   4.295   1.140  1.0692  0.4093 -0.0950
  128MOL   H26846242   3.702   4.134   1.158  0.9760  0.7119 -0.1813
  128MOL   H26946243   3.712   4.347   0.844 -0.7642 -1.8845  0.5285
  128MOL   H27046244   3.823   4.400   0.972  2.9442 -1.0754 -0.3210
  128MOL   H27146245   3.879   4.298   0.827 -1.9448  1.9175 -2.9401
  128MOL   C27246246   3.705   3.823   0.901  0.2373 -0.5291  0.0543
  128MOL   C27346247   3.627   3.727   1.004  0.5801  0.6953  0.2426
  128MOL   C27446248   3.499   3.790   1.061 -0.2767  1.0569  0.3387
  128MOL   C27546249   3.446   3.731   1.187 -0.2796  0.1401  0.3462
  128MOL   C27646250   3.315   3.808   1.215 -0.4984 -0.6501 -0.3177
  128MOL   C27746251   3.537   3.758   1.303 -0.0935 -0.7435 -0.5135
  128MOL   H27846252   3.643   3.862   0.820 -0.3176 -1.2596  0.1277
  128MOL   H27946253   3.774   3.758   0.848  1.3910  0.9232 -0.2809
  128MOL   H28046254   3.695   3.709   1.088 -1.2602 -1.2308  1.3775
  128MOL   H28146255   3.413   3.784   0.994  0.5704  1.2109 -0.7778
  128MOL   H28246256   3.520   3.895   1.081  0.8805  0.6488  1.3433
  128MOL   H28346257   3.416   3.627   1.168 -0.2709 -0.0410  1.3233
  128MOL   H28446258   3.260   3.752   1.291 -0.3245 -1.6903 -0.9474
  128MOL   H28546259   3.333   3.908   1.255 -3.2950  1.0850 -3.1760
  128MOL   H28646260   3.248   3.805   1.129 -0.2928  2.6598 -0.6472
  128MOL   H28746261   3.562   3.863   1.317 -1.2872 -0.4925 -0.2063
  128MOL   H28846262   3.487   3.729   1.396 -0.3914  0.0263 -0.4322
  128MOL   H28946263   3.626   3.698   1.286 -1.0009 -3.0219  2.2235
  128MOL   C29046264   3.582   3.601   0.920  0.0574  0.4339 -0.2530
  128MOL   C29146265   3.688   3.497   0.898 -0.0994  0.2428 -0.1642
  128MOL   C29246266   3.700   3.418   1.030 -0.5134  0.5075  0.0211
  128MOL   C29346267   3.585   3.325   1.076 -0.0711 -0.1318 -0.4778
  128MOL   C29446268   3.578   3.181   1.013  0.2388  0.8432  0.8683
  128MOL   C29546269   3.573   3.307   1.227 -0.2204 -0.8063 -0.6977
  128MOL   H29646270   3.488   3.557   0.956  1.9443 -2.1693  1.6837
  128MOL   H29746271   3.548   3.646   0.827  1.1085  2.4401  0.3020
  128MOL   H29846272   3.780   3.553   0.885 -0.8894  1.3754 -0.9159
  128MOL   H29946273   3.723   3.488   1.110 -3.2104  0.5950  0.7808
  128MOL   H30046274   3.792   3.359   1.029 -0.4090  0.6399  1.1141
  128MOL   H30146275   3.491   3.369   1.042 -1.9516 -2.4675  1.5371
  128MOL   H30246276   3.498   3.117   1.053  1.1656 -1.8676 -1.4595
  128MOL   H30346277   3.675   3.138   1.036 -0.1565 -0.8650 -0.5624
  128MOL   H30446278   3.564   3.167   0.906  0.9207  0.6968  0.8020
  128MOL   H30546279   3.650   3.244   1.270  0.7523  0.0255 -1.2049
  128MOL   H30646280   3.474   3.273   1.259  0.4449 -1.9624  0.1608
  128MOL   H30746281   3.590   3.403   1.277 -2.9319  0.8495 -2.7832
  128MOL   C30846282   3.672   3.405   0.775  0.3843  0.3558  0.1726
  128MOL   C30946283   3.691   3.486   0.642  0.8731 -0.1731  0.4239
  128MOL   C31046284   3.841   3.523   0.617  0.3698 -0.5071  0.5250
  128MOL   C31146285   3.880   3.619   0.505  0.5203  0.3275 -0.2304
  128MOL   C31246286   3.812   3.755   0.522  0.2528 -0.3959  0.0641
  128MOL   C31346287   4.032   3.630   0.487 -0.2632  0.2422  0.3490
  128MOL   H31446288   3.739   3.320   0.781 -1.3989 -1.0490  0.8633
  128MOL   H31546289   3.566   3.377   0.773 -0.3008  2.7823  0.1143
  128MOL   H31646290   3.628   3.574   0.632 -2.5890 -2.7257 -1.7069
  128MOL   H31746291   3.898   3.434   0.590  0.8403 -0.2183  0.5749
  128MOL   H31846292   3.900   3.559   0.701  0.5927 -0.4042  0.3268
  128MOL   H31946293   3.846   3.585   0.407  0.0779 -0.4533  0.1955
  128MOL   H32046294   3.711   3.748   0.480  0.4718 -1.4008 -0.3176
  128MOL   H32146295   3.861   3.823   0.452  1.1411 -2.0299 -0.9445
  128MOL   H32246296   3.813   3.796   0.622 -0.5495 -1.5898  0.5710
  128MOL   H32346297   4.082   3.646   0.582 -1.0156 -1.7685  1.1023
  128MOL   H32446298   4.073   3.538   0.445  2.2966  1.4193  0.2026
  128MOL   H32546299   4.059   3.704   0.411 -0.5224  1.1010  1.0881
  128MOL   C32646300   3.641   3.398   0.529 -0.1143  0.5416  0.4327
  128MOL   C32746301   3.494   3.393   0.496 -0.1910  0.2452  0.9452
  128MOL   C32846302   3.475   3.275   0.393  0.6157 -0.0779 -0.5825
  128MOL   C32946303   3.465   3.132   0.450  0.3634 -0.2729 -0.2637
  128MOL   C33046304   3.335   3.100   0.525  0.0028  0.7135 -0.2346
  128MOL   C33146305   3.486   3.017   0.350 -0.0466 -0.7566  0.7539
  128MOL   H33246306   3.672   3.294   0.541  0.1267  0.5090 -0.4550
  128MOL   H33346307   3.692   3.434   0.440 -2.2154  1.5219 -0.4244
  128MOL   H33446308   3.447   3.366   0.591  1.7317 -0.4054  1.7437
  128MOL   H33546309   3.385   3.295   0.336  1.0917  0.9072 -1.0048
  128MOL   H33646310   3.557   3.264   0.322 -0.4682 -1.0092 -1.7073
  128MOL   H33746311   3.550   3.121   0.518 -0.4092 -2.9469  0.3269
  128MOL   H33846312   3.260   3.062   0.456 -0.3113 -0.4270  0.7035
  128MOL   H33946313   3.286   3.195   0.545 -4.2188 -1.3018 -0.5115
  128MOL   H34046314   3.350   3.037   0.613  3.2450  1.3336 -0.2680
  128MOL   H34146315   3.497   2.920   0.400 -1.0095 -1.6778 -0.7627
  128MOL   H34246316   3.399   3.029   0.286  1.3073  0.2150 -0.9543
  128MOL   H34346317   3.572   3.042   0.287  0.8726 -0.7079  2.0153
  128MOL   C34446318   3.430   3.524   0.445 -0.5639 -1.1201  0.6649
  128MOL   C34546319   3.484   3.574   0.308 -0.3814 -0.3518  0.5899
  128MOL   C34646320   3.428   3.721   0.278 -0.0972 -0.5248 -0.2858
  128MOL   C34746321   3.420   3.757   0.122 -0.7091 -0.0965 -0.4558
  128MOL   C34846322   3.300   3.707   0.045  0.2269 -0.3527  0.1189
  128MOL   C34946323   3.555   3.732   0.043 -0.4463  0.0888  0.2728
  128MOL   H35046324   3.449   3.609   0.511 -0.7428 -0.0905 -0.5835
  128MOL   H35146325   3.322   3.515   0.450 -0.5303 -1.6372  0.5102
  128MOL   H35246326   3.462   3.508   0.225  1.9742  1.8072 -1.8383
  128MOL   H35346327   3.328   3.738   0.319 -0.7479 -1.1626 -1.5438
  128MOL   H35446328   3.493   3.784   0.337  0.6261 -1.3887 -0.1413
  128MOL   H35546329   3.401   3.864   0.131  0.7168  0.1429 -0.2565
  128MOL   H35646330   3.292   3.750   7.698  2.4468  1.9118  0.8506
  128MOL   H35746331   3.304   3.599   0.034 -0.2223 -0.6505  2.5082
  128MOL   H35846332   3.203   3.727   0.090  0.7554 -1.1738  1.6738
  128MOL   H35946333   3.549   3.771   7.694 -3.3372 -0.7817  0.0674
  128MOL   H36046334   3.577   3.625   0.045 -1.3773 -0.1260 -0.8812
  128MOL   H36146335   3.632   3.787   0.098 -1.1305  0.5838  0.7489
  128MOL   H36246336   3.593   3.574   0.316 -0.4338 -0.7937  1.3971
  129MOL     C146337   1.426   4.039   5.945 -0.3927  0.0220 -0.1859
  129MOL     C246338   1.555   4.049   5.870 -0.3703 -0.7182 -0.2734
  129MOL     C346339   1.555   3.957   5.747  0.1413  0.1413 -0.6184
  129MOL     C446340   1.467   4.006   5.620  0.2529 -0.5949 -0.7198
  129MOL     C546341   1.449   3.893   5.515 -0.1687 -0.1001  0.4798
  129MOL     C646342   1.511   4.141   5.549 -0.1443 -0.0156  0.2811
  129MOL     H746343   1.346   4.054   5.873  1.0235  0.8124 -1.6129
  129MOL     H846344   1.404   3.936   5.975  0.2256  0.0375  0.3366
  129MOL     H946345   1.562   4.155   5.845  1.1770 -0.3322  1.6686
  129MOL    H1046346   1.661   3.956   5.719  0.5702  2.0538  0.8394
  129MOL    H1146347   1.520   3.858   5.774  2.1114 -0.4781 -0.2538
  129MOL    H1246348   1.365   4.028   5.649  0.0016 -0.5816 -1.6069
  129MOL    H1346349   1.375   3.815   5.534  0.0838 -1.0617 -2.2676
  129MOL    H1446350   1.425   3.936   5.418 -1.3013 -2.0356 -0.1160
  129MOL    H1546351   1.546   3.843   5.507  0.1028  0.6759 -1.2382
  129MOL    H1646352   1.619   4.155   5.559  0.4730 -1.7202 -3.2202
  129MOL    H1746353   1.463   4.224   5.601 -1.4533 -0.2024 -0.6020
  129MOL    H1846354   1.474   4.143   5.447 -1.7378  0.9370  0.8572
  129MOL    H1946355   1.411   4.112   6.024 -2.2837 -1.4528  0.8427
  129MOL    C2046356   1.682   4.025   5.954  0.1512 -0.1697 -0.9086
  129MOL    C2146357   1.775   4.149   5.969  0.6716 -0.3357  0.1694
  129MOL    C2246358   1.845   4.157   6.104 -0.2965 -0.2142 -0.4113
  129MOL    C2346359   1.931   4.036   6.146 -0.5100 -0.7870 -0.1803
  129MOL    C2446360   2.037   4.084   6.244  0.1873  0.6369 -0.5679
  129MOL    C2546361   1.843   3.930   6.203 -0.3410 -0.0673 -0.1182
  129MOL    H2646362   1.642   3.996   6.051  1.6510  1.2402  0.1596
  129MOL    H2746363   1.735   3.937   5.917  1.5310 -0.1486  0.9268
  129MOL    H2846364   1.713   4.239   5.969  0.3234 -0.5747  0.4998
  129MOL    H2946365   1.775   4.189   6.182 -0.3742  0.2000 -0.6502
  129MOL    H3046366   1.914   4.240   6.118 -1.5582  0.2783  3.7732
  129MOL    H3146367   1.991   3.996   6.065  1.1462 -2.0244  1.6210
  129MOL    H3246368   2.112   4.005   6.256 -1.4267 -0.6311  1.6717
  129MOL    H3346369   1.998   4.106   6.343  0.9957 -1.0268  0.1461
  129MOL    H3446370   2.093   4.171   6.210  2.0078  0.2142  1.2378
  129MOL    H3546371   1.908   3.852   6.244  1.5726  1.5306 -0.0426
  129MOL    H3646372   1.775   3.956   6.284 -1.1209  1.9650 -1.4050
  129MOL    H3746373   1.781   3.875   6.132 -0.4884  2.5204 -2.0468
  129MOL    C3846374   1.874   4.154   5.851  0.1679 -0.0345  0.0802
  129MOL    C3946375   1.959   4.277   5.841 -0.1856 -0.5245  0.2749
  129MOL    C4046376   1.871   4.404   5.793 -0.1358  0.4570 -0.1622
  129MOL    C4146377   1.851   4.525   5.884  0.2789  0.4391 -0.0786
  129MOL    C4246378   1.719   4.590   5.863 -0.1553  0.0645 -0.6303
  129MOL    C4346379   1.968   4.620   5.895 -0.5491 -0.0578 -0.3680
  129MOL    H4446380   1.826   4.132   5.756  0.6034 -2.8172  0.4431
  129MOL    H4546381   1.936   4.065   5.861  0.4171 -0.2967 -3.4744
  129MOL    H4646382   2.005   4.311   5.934 -0.3984  1.0685 -0.2011
  129MOL    H4746383   1.771   4.379   5.758  0.4954 -0.2386 -1.4968
  129MOL    H4846384   1.900   4.445   5.696 -1.2141  0.2195 -0.5935
  129MOL    H4946385   1.834   4.478   5.981  2.3179  0.2725  0.2294
  129MOL    H5046386   1.700   4.652   5.950 -0.3147 -0.5560 -0.2193
  129MOL    H5146387   1.723   4.658   5.778  0.0411 -1.6429 -2.0340
  129MOL    H5246388   1.627   4.532   5.853 -0.8954  1.3340 -1.2381
  129MOL    H5346389   1.948   4.707   5.831  0.8556  1.7886  1.6229
  129MOL    H5446390   2.052   4.563   5.857  0.0713  1.5495 -1.4752
  129MOL    H5546391   1.998   4.650   5.995 -0.7084 -1.2601  0.0389
  129MOL    C5646392   2.080   4.255   5.743 -0.2128 -0.1044 -0.6704
  129MOL    C5746393   2.208   4.320   5.794  0.0737  0.3367 -0.5010
  129MOL    C5846394   2.306   4.328   5.678  0.2517  0.6804 -0.0875
  129MOL    C5946395   2.268   4.419   5.560 -0.3096  0.3115  0.1421
  129MOL    C6046396   2.379   4.407   5.451 -0.1464 -0.4936  0.0661
  129MOL    C6146397   2.270   4.564   5.596 -0.0617 -0.0098 -0.2288
  129MOL    H6246398   2.050   4.270   5.640  1.8091  1.9174 -1.0006
  129MOL    H6346399   2.108   4.150   5.734  1.5838  0.0261  2.5559
  129MOL    H6446400   2.203   4.423   5.830  2.3643  0.5443 -0.7096
  129MOL    H6546401   2.401   4.372   5.707  0.5876  0.7289 -1.2383
  129MOL    H6646402   2.330   4.226   5.648 -1.7017 -0.5344  2.3248
  129MOL    H6746403   2.173   4.393   5.514  0.2976  2.3188 -2.3742
  129MOL    H6846404   2.360   4.470   5.364 -0.2309 -0.6020  0.0043
  129MOL    H6946405   2.380   4.303   5.417 -0.9645  0.1638 -2.0926
  129MOL    H7046406   2.482   4.427   5.481 -1.0131  1.5506  1.8034
  129MOL    H7146407   2.260   4.630   5.510 -3.9361  1.5737  1.2761
  129MOL    H7246408   2.361   4.587   5.651 -1.4985 -1.6892  2.9980
  129MOL    H7346409   2.180   4.591   5.652  1.4504 -3.2963  4.0602
  129MOL    C7446410   2.271   4.231   5.906  0.5490 -0.1089 -0.0684
  129MOL    C7546411   2.387   4.295   5.989  0.2146 -0.2939  0.5026
  129MOL    C7646412   2.487   4.182   6.015  0.0637 -0.0818  0.1370
  129MOL    C7746413   2.578   4.147   5.890  0.3308  0.5284  0.3496
  129MOL    C7846414   2.631   4.002   5.908 -0.3397 -0.4660  0.2852
  129MOL    C7946415   2.681   4.256   5.862 -0.2823  0.6978  0.4013
  129MOL    H8046416   2.297   4.135   5.861 -2.6944 -0.9933 -0.2122
  129MOL    H8146417   2.189   4.202   5.971  1.0547 -2.1793 -0.3254
  129MOL    H8246418   2.439   4.364   5.923  1.1722 -0.9152  0.5925
  129MOL    H8346419   2.565   4.213   6.085 -0.1314 -1.0738  0.8083
  129MOL    H8446420   2.445   4.089   6.052 -0.6509  0.5433  0.9265
  129MOL    H8546421   2.513   4.155   5.802  0.8728  0.3264 -0.0692
  129MOL    H8646422   2.710   3.987   5.981  0.8667 -2.6992 -1.3976
  129MOL    H8746423   2.668   3.972   5.810  0.5649 -0.0559  0.4999
  129MOL    H8846424   2.545   3.939   5.932  0.2608 -0.2546  3.1115
  129MOL    H8946425   2.632   4.354   5.856 -1.3227  0.0500 -2.8390
  129MOL    H9046426   2.756   4.256   5.941  2.6030 -2.4397 -2.2026
  129MOL    H9146427   2.725   4.238   5.764 -0.7435 -3.3262  0.8758
  129MOL    C9246428   2.333   4.372   6.107  0.1697  0.1009  0.5863
  129MOL    C9346429   2.439   4.441   6.197 -0.3894  0.1159 -0.2276
  129MOL    C9446430   2.521   4.560   6.130  0.1601 -0.2719  0.5187
  129MOL    C9546431   2.657   4.605   6.196  0.5100 -0.2486  1.3045
  129MOL    C9646432   2.773   4.506   6.179 -0.6020  0.2744  0.8005
  129MOL    C9746433   2.699   4.745   6.139 -0.1248 -0.0324 -0.4144
  129MOL    H9846434   2.266   4.448   6.067 -0.9683 -0.5058  1.3066
  129MOL    H9946435   2.279   4.307   6.177 -1.5550  0.5714 -0.2707
  129MOL   H10046436   2.506   4.360   6.225 -0.0573  0.1583 -0.8832
  129MOL   H10146437   2.453   4.645   6.123 -0.1423 -0.3254  2.3880
  129MOL   H10246438   2.547   4.534   6.028  0.3340 -0.8172  0.7006
  129MOL   H10346439   2.637   4.606   6.303 -1.5430  1.2789  0.9427
  129MOL   H10446440   2.735   4.407   6.204  1.1815  0.1502  3.1178
  129MOL   H10546441   2.857   4.518   6.247  1.2715  0.4956 -1.4973
  129MOL   H10646442   2.824   4.502   6.082 -2.1115 -0.7571  0.0152
  129MOL   H10746443   2.623   4.819   6.164 -0.8372 -1.8651  3.2076
  129MOL   H10846444   2.710   4.746   6.031  1.3251  0.7622 -0.2720
  129MOL   H10946445   2.787   4.787   6.189 -1.0515  0.1244  1.1272
  129MOL   C11046446   2.375   4.474   6.337  0.2978 -0.8530 -0.2431
  129MOL   C11146447   2.267   4.585   6.342  0.3239  0.6294 -0.3250
  129MOL   C11246448   2.151   4.545   6.437  0.6085  0.0207 -0.2965
  129MOL   C11346449   2.050   4.451   6.366 -0.1720  0.1163  0.3094
  129MOL   C11446450   1.984   4.514   6.246  0.0520  0.1072 -0.3040
  129MOL   C11546451   1.949   4.390   6.467 -0.1022  0.1158  0.6514
  129MOL   H11646452   2.459   4.502   6.400  0.5897  1.4226 -1.5971
  129MOL   H11746453   2.343   4.375   6.371 -0.5284 -0.4061  0.2897
  129MOL   H11846454   2.247   4.606   6.237 -2.3140  0.9253  0.2057
  129MOL   H11946455   2.099   4.638   6.462  0.3815  0.4555 -2.2714
  129MOL   H12046456   2.191   4.510   6.532  2.0779  1.6937 -0.2646
  129MOL   H12146457   2.101   4.363   6.327 -0.0650 -0.6881  2.1935
  129MOL   H12246458   1.910   4.445   6.207 -1.0974  0.8013  0.6459
  129MOL   H12346459   2.067   4.522   6.176 -0.0893 -1.8790 -0.7167
  129MOL   H12446460   1.932   4.609   6.258 -2.2438 -0.9774 -1.3778
  129MOL   H12546461   1.877   4.469   6.488  0.4395  0.8679 -0.2930
  129MOL   H12646462   1.993   4.356   6.561  1.2153 -0.3013 -0.1026
  129MOL   H12746463   1.878   4.315   6.433  0.3158 -0.0878  0.2255
  129MOL   C12846464   2.349   4.715   6.405  0.6684  0.0612  0.2457
  129MOL   C12946465   2.269   4.846   6.394  0.2864  0.0888  0.6421
  129MOL   C13046466   2.267   4.889   6.246 -0.7375  0.0362  0.5142
  129MOL   C13146467   2.120   4.884   6.201  0.0286  0.6125  0.1088
  129MOL   C13246468   2.031   4.986   6.272  0.1231 -0.1965  0.3912
  129MOL   C13346469   2.105   4.918   6.049  0.4690 -0.2003  0.0733
  129MOL   H13446470   2.444   4.719   6.352  0.0138 -1.4156 -1.0760
  129MOL   H13546471   2.373   4.700   6.510  0.6114  1.6166  0.4994
  129MOL   H13646472   2.168   4.826   6.430 -0.3820 -0.9308 -1.7346
  129MOL   H13746473   2.299   4.991   6.223 -2.3404  0.3849 -0.1962
  129MOL   H13846474   2.329   4.822   6.186 -0.9974  0.9932 -0.8362
  129MOL   H13946475   2.082   4.783   6.217 -0.8633  1.0789  0.9758
  129MOL   H14046476   2.088   5.076   6.291 -1.8193  1.1581 -0.0621
  129MOL   H14146477   1.987   4.953   6.366  1.3265  0.1764  1.0952
  129MOL   H14246478   1.944   5.017   6.214  1.2897 -1.4087 -2.0947
  129MOL   H14346479   2.104   5.022   6.016  0.6473 -0.6081 -1.2508
  129MOL   H14446480   2.172   4.858   5.987  0.2114 -0.9013  0.4675
  129MOL   H14546481   2.002   4.896   6.022  0.9079 -1.4879 -0.6097
  129MOL   C14646482   2.321   4.964   6.481 -0.2114  0.2022 -0.7005
  129MOL   C14746483   2.311   4.952   6.634 -0.1033  0.0542  0.2719
  129MOL   C14846484   2.166   4.978   6.689  0.2994 -0.8421  0.0140
  129MOL   C14946485   2.121   4.913   6.826  0.1489  0.6510  0.3432
  129MOL   C15046486   2.017   4.994   6.905 -0.0897  0.2254  0.6474
  129MOL   C15146487   2.081   4.761   6.810 -0.1688 -0.0410 -0.3777
  129MOL   H15246488   2.277   5.056   6.441  1.6295  0.2607 -2.6712
  129MOL   H15346489   2.426   4.986   6.465  0.6334 -2.5000  0.9326
  129MOL   H15446490   2.322   4.847   6.661  0.1143 -0.5285 -1.9718
  129MOL   H15546491   2.160   5.085   6.711 -0.2063 -1.0485  0.9220
  129MOL   H15646492   2.091   4.968   6.610 -1.5179 -0.4927  1.6352
  129MOL   H15746493   2.217   4.908   6.877  0.5418  0.2170 -0.4407
  129MOL   H15846494   2.000   4.964   7.009 -0.3544  3.2912  1.5590
  129MOL   H15946495   1.920   4.992   6.856  0.0754  1.8629  0.2285
  129MOL   H16046496   2.061   5.094   6.910  1.7482 -0.6145  2.1776
  129MOL   H16146497   2.166   4.710   6.764 -1.2830 -1.1891 -1.2233
  129MOL   H16246498   1.998   4.743   6.741 -1.7341  1.6832  0.9893
  129MOL   H16346499   2.059   4.703   6.900 -1.3324 -0.5523 -0.9763
  129MOL   C16446500   2.416   5.049   6.697 -0.1112  0.8866  0.3361
  129MOL   C16546501   2.556   4.994   6.708  0.2000 -0.3428  0.0328
  129MOL   C16646502   2.657   5.110   6.751 -0.2708 -0.2031 -0.3261
  129MOL   C16746503   2.790   5.115   6.684  0.1051 -0.3000 -0.3916
  129MOL   C16846504   2.773   5.128   6.529 -0.8669 -0.5543  0.1335
  129MOL   C16946505   2.891   5.204   6.750  0.4639 -0.2392 -0.1020
  129MOL   H17046506   2.413   5.141   6.639 -2.3216  1.2072  0.9489
  129MOL   H17146507   2.381   5.079   6.795  1.7502  0.2012  1.2417
  129MOL   H17246508   2.584   4.950   6.612 -2.1675  0.3283 -1.0104
  129MOL   H17346509   2.612   5.206   6.722  0.0108  0.5023  1.4989
  129MOL   H17446510   2.668   5.109   6.860  1.0161 -1.2646 -0.4677
  129MOL   H17546511   2.831   5.015   6.697 -0.0142 -0.2474  0.4087
  129MOL   H17646512   2.797   5.035   6.478 -0.3052 -0.4222  0.1577
  129MOL   H17746513   2.834   5.211   6.495  0.8417 -1.6450  0.4818
  129MOL   H17846514   2.673   5.154   6.494 -0.0091  2.0430 -0.5040
  129MOL   H17946515   2.887   5.182   6.856 -2.5033 -2.1070 -0.5245
  129MOL   H18046516   2.872   5.311   6.744 -1.0473 -0.5644 -1.4725
  129MOL   H18146517   2.990   5.178   6.712  0.0375 -0.1871 -1.2957
  129MOL   C18246518   2.558   4.877   6.816  0.2197  0.5158 -0.6431
  129MOL   C18346519   2.674   4.778   6.816  0.0263 -0.2088  0.2032
  129MOL   C18446520   2.691   4.707   6.948  0.3376  0.0334 -0.0091
  129MOL   C18546521   2.748   4.795   7.061  0.3281 -0.2067 -0.3557
  129MOL   C18646522   2.749   4.715   7.193  0.9118 -0.1969 -0.4126
  129MOL   C18746523   2.885   4.861   7.034 -0.0765 -0.1833  0.0653
  129MOL   H18846524   2.463   4.823   6.809 -0.5623  1.6890  0.6665
  129MOL   H18946525   2.547   4.938   6.906 -0.4306 -0.3883 -0.1020
  129MOL   H19046526   2.768   4.831   6.800 -1.3816  1.5951 -2.5567
  129MOL   H19146527   2.753   4.618   6.943 -1.5113 -1.5324  3.2177
  129MOL   H19246528   2.593   4.672   6.980  0.8035 -2.1750 -0.8724
  129MOL   H19346529   2.681   4.880   7.072  0.1863  0.0968 -3.3227
  129MOL   H19446530   2.652   4.669   7.213  1.2895 -1.6211 -1.7565
  129MOL   H19546531   2.775   4.765   7.287  0.6515  0.1520 -0.5264
  129MOL   H19646532   2.807   4.623   7.186  3.5519  1.3125  0.7703
  129MOL   H19746533   2.885   4.945   6.965 -4.3785  1.0110  1.3688
  129MOL   H19846534   2.966   4.791   7.014  0.2616  0.0323  0.6541
  129MOL   H19946535   2.912   4.906   7.130 -0.6265  3.8245 -1.5504
  129MOL   C20046536   2.654   4.672   6.706 -0.0323  0.2767 -0.1199
  129MOL   C20146537   2.780   4.598   6.655  0.8066 -0.0235  0.2732
  129MOL   C20246538   2.849   4.685   6.553  0.3482  0.2807  0.1516
  129MOL   C20346539   2.995   4.651   6.519 -1.0626  0.4653 -0.5029
  129MOL   C20446540   3.037   4.753   6.412 -0.1399 -0.3177  0.3620
  129MOL   C20546541   3.101   4.655   6.638  0.6280 -0.3297 -0.1331
  129MOL   H20646542   2.624   4.722   6.614  0.3849  0.7958  0.0171
  129MOL   H20746543   2.555   4.632   6.726 -0.4505  2.1443  1.7153
  129MOL   H20846544   2.856   4.592   6.732  2.0413  1.0531 -0.8414
  129MOL   H20946545   2.792   4.672   6.461  0.1203  1.8480  0.0559
  129MOL   H21046546   2.834   4.792   6.562  0.5306  0.4435 -1.4815
  129MOL   H21146547   2.995   4.550   6.478  1.7961  0.6017 -0.9107
  129MOL   H21246548   3.125   4.733   6.351 -2.3378  0.3141 -3.1566
  129MOL   H21346549   3.059   4.851   6.453 -1.5686  0.9883 -1.9273
  129MOL   H21446550   2.973   4.775   6.327 -2.0410 -0.9578  1.5995
  129MOL   H21546551   3.074   4.732   6.711 -0.8896 -0.2892 -0.7168
  129MOL   H21646552   3.202   4.669   6.598  0.2984  0.3124 -0.7492
  129MOL   H21746553   3.094   4.562   6.693  0.2586 -0.7350 -0.8613
  129MOL   C21846554   2.741   4.461   6.597 -0.4758  0.6647 -0.1983
  129MOL   C21946555   2.729   4.345   6.698  0.6631  0.1873  0.6488
  129MOL   C22046556   2.609   4.347   6.789  0.3538  0.8235  0.2109
  129MOL   C22146557   2.462   4.351   6.725  0.4762 -1.0162  0.0114
  129MOL   C22246558   2.425   4.214   6.658 -0.0534 -0.1302 -0.1170
  129MOL   C22346559   2.354   4.390   6.834  0.0897  0.0805 -0.3741
  129MOL   H22446560   2.652   4.474   6.536 -1.4858 -0.4620  1.0202
  129MOL   H22546561   2.815   4.429   6.524 -1.1197  0.0535 -0.5935
  129MOL   H22646562   2.714   4.253   6.642 -0.2662  0.2067  0.8629
  129MOL   H22746563   2.617   4.260   6.853 -1.3190  1.3002  1.1024
  129MOL   H22846564   2.625   4.438   6.848 -2.9777 -0.7889  3.8628
  129MOL   H22946565   2.449   4.426   6.646 -2.7438  0.4695  1.8571
  129MOL   H23046566   2.320   4.216   6.631 -0.4322 -1.4687  1.1626
  129MOL   H23146567   2.476   4.195   6.564  1.0720  0.3779  0.3777
  129MOL   H23246568   2.442   4.125   6.719  0.2124  1.2223  1.8298
  129MOL   H23346569   2.253   4.387   6.792 -2.0896 -0.3645  4.5868
  129MOL   H23446570   2.360   4.322   6.919 -0.4061  0.2936 -0.1650
  129MOL   H23546571   2.368   4.491   6.874  1.7060 -0.3002  0.0409
  129MOL   C23646572   2.854   4.329   6.783  0.0658 -0.3131 -0.3397
  129MOL   C23746573   2.875   4.193   6.850  0.2360  0.1913  0.6558
  129MOL   C23846574   2.914   4.214   6.996  0.2211  0.1715 -0.6278
  129MOL   C23946575   2.802   4.260   7.091 -0.3429 -0.1414 -0.2031
  129MOL   C24046576   2.711   4.147   7.134  0.3900 -0.2170  0.1157
  129MOL   C24146577   2.858   4.328   7.222 -0.6566  0.6433 -0.8829
  129MOL   H24246578   2.861   4.410   6.855 -0.6095 -1.3055  0.8545
  129MOL   H24346579   2.937   4.351   6.715  0.3585  0.6211  0.3189
  129MOL   H24446580   2.787   4.129   6.855 -0.0288  0.6558  2.1291
  129MOL   H24546581   2.994   4.288   7.002 -0.4225  0.7470  0.9896
  129MOL   H24646582   2.951   4.119   7.034  0.2585  0.7157  0.7083
  129MOL   H24746583   2.742   4.329   7.031 -2.2361 -1.8261 -0.3294
  129MOL   H24846584   2.765   4.070   7.191 -0.5837 -1.4140 -0.5712
  129MOL   H24946585   2.652   4.104   7.054  3.0269 -0.7126 -1.6505
  129MOL   H25046586   2.635   4.180   7.205 -0.3936 -2.7638  0.4993
  129MOL   H25146587   2.904   4.425   7.198  1.8047 -0.3087 -0.1503
  129MOL   H25246588   2.932   4.261   7.266  0.1764  0.8472 -1.9595
  129MOL   H25346589   2.793   4.340   7.309  0.7626 -1.7377  0.5579
  129MOL   C25446590   2.966   4.100   6.762  0.3167  0.0286  0.2634
  129MOL   C25546591   2.937   3.948   6.777  0.4098 -0.0380 -0.1609
  129MOL   C25646592   2.842   3.889   6.668  0.4601  0.8795  0.2807
  129MOL   C25746593   2.727   3.785   6.706  0.3105 -0.3421  0.0793
  129MOL   C25846594   2.605   3.854   6.783 -0.4581  0.5156 -0.3495
  129MOL   C25946595   2.776   3.652   6.775  0.4622  0.3863 -0.1643
  129MOL   H26046596   2.958   4.127   6.657  1.7764  2.5640  0.7645
  129MOL   H26146597   3.066   4.126   6.795  0.7831  1.7802 -2.3831
  129MOL   H26246598   2.896   3.937   6.877 -0.0501  3.2036  0.0533
  129MOL   H26346599   2.904   3.844   6.591  1.2464 -1.0534  1.9927
  129MOL   H26446600   2.790   3.975   6.627 -2.5886 -1.0802 -0.1210
  129MOL   H26546601   2.689   3.747   6.611 -1.8310  0.8694  0.4070
  129MOL   H26646602   2.538   3.783   6.831 -0.9658  0.6776 -0.8096
  129MOL   H26746603   2.547   3.918   6.717 -1.9377 -2.0916 -1.6882
  129MOL   H26846604   2.646   3.908   6.868 -0.2972 -1.1500  0.6577
  129MOL   H26946605   2.690   3.585   6.768 -1.1244  2.2840  0.5971
  129MOL   H27046606   2.863   3.613   6.724  1.4804  0.7950  1.2397
  129MOL   H27146607   2.794   3.683   6.878 -0.1926  0.1708  0.0184
  129MOL   C27246608   3.069   3.869   6.782 -0.6683  0.5303  0.2197
  129MOL   C27346609   3.138   3.881   6.926  0.5676 -0.4648  0.3902
  129MOL   C27446610   3.082   3.777   7.017  0.1580  0.5011  0.5192
  129MOL   C27546611   3.121   3.785   7.168  0.0377 -0.0147  0.3543
  129MOL   C27646612   3.066   3.662   7.241  0.1151 -0.0354  0.0725
  129MOL   C27746613   3.063   3.915   7.238 -0.9038  0.9002 -0.4533
  129MOL   H27846614   3.071   3.765   6.748  1.9896 -0.0977  2.0985
  129MOL   H27946615   3.130   3.919   6.706  1.5646 -2.3512  0.0283
  129MOL   H28046616   3.108   3.980   6.962 -1.3044 -1.4297  1.5732
  129MOL   H28146617   3.119   3.687   6.968 -2.5599 -0.4726  0.1562
  129MOL   H28246618   2.973   3.775   7.024  0.0736  2.1628 -0.0746
  129MOL   H28346619   3.229   3.771   7.169 -0.1395 -1.4893  0.0246
  129MOL   H28446620   2.959   3.684   7.251  0.1632 -0.1453  0.8293
  129MOL   H28546621   3.074   3.570   7.184  0.6756  0.2191 -0.2591
  129MOL   H28646622   3.110   3.648   7.339  2.7610  0.2409 -1.0374
  129MOL   H28746623   3.122   4.006   7.225 -0.1638  0.3504 -0.9960
  129MOL   H28846624   2.957   3.934   7.221 -0.5627  1.1986 -2.3690
  129MOL   H28946625   3.063   3.895   7.345 -0.9872  0.4971 -0.5276
  129MOL   C29046626   3.292   3.873   6.916  0.3810 -0.4547 -0.0059
  129MOL   C29146627   3.371   3.974   7.006  0.4611 -0.1907  0.4517
  129MOL   C29246628   3.511   3.919   7.048  0.4161  0.1371  0.0372
  129MOL   C29346629   3.519   3.800   7.149 -0.4237 -0.2697  0.9511
  129MOL   C29446630   3.648   3.714   7.132 -0.5243 -0.4162 -0.6858
  129MOL   C29546631   3.505   3.844   7.297  0.3817  0.9918 -0.2467
  129MOL   H29646632   3.324   3.774   6.950  1.3474 -0.8339 -1.9549
  129MOL   H29746633   3.337   3.881   6.817 -1.0658  0.0413 -0.6281
  129MOL   H29846634   3.308   3.981   7.095 -1.8592 -0.0434 -1.1691
  129MOL   H29946635   3.562   4.007   7.086 -0.9117  0.0948  1.9890
  129MOL   H30046636   3.556   3.898   6.951 -0.2575 -0.8938 -0.0579
  129MOL   H30146637   3.438   3.736   7.115  0.1549  0.3010 -1.5944
  129MOL   H30246638   3.654   3.621   7.188  0.5496  1.0028  1.6219
  129MOL   H30346639   3.732   3.777   7.162  0.7911 -1.4076 -2.1841
  129MOL   H30446640   3.657   3.686   7.027  0.8262 -1.8057 -0.2047
  129MOL   H30546641   3.596   3.878   7.345  1.7425 -1.3987 -1.0511
  129MOL   H30646642   3.468   3.753   7.343 -0.8326  0.3076 -2.4787
  129MOL   H30746643   3.425   3.918   7.301  0.3460  1.0820 -1.9766
  129MOL   C30846644   3.379   4.112   6.930 -0.0463  0.5315 -0.4314
  129MOL   C30946645   3.437   4.238   7.006 -0.2898 -0.1284  0.1182
  129MOL   C31046646   3.452   4.354   6.915  0.1159 -0.2008  0.3545
  129MOL   C31146647   3.572   4.361   6.823 -0.1227  0.2132 -0.2187
  129MOL   C31246648   3.555   4.411   6.681 -0.1683  0.3563  0.1028
  129MOL   C31346649   3.685   4.444   6.889 -0.2187  0.5321  0.0198
  129MOL   H31446650   3.442   4.110   6.841  0.2412 -2.5467 -0.1890
  129MOL   H31546651   3.284   4.142   6.886  0.7297  3.4495 -0.2869
  129MOL   H31646652   3.533   4.211   7.049 -0.3806 -0.1456  0.3092
  129MOL   H31746653   3.431   4.450   6.963 -1.1636 -0.6830  0.7990
  129MOL   H31846654   3.364   4.342   6.852 -0.7921  1.8531  1.1836
  129MOL   H31946655   3.608   4.260   6.809 -2.3956 -0.6240 -0.3410
  129MOL   H32046656   3.476   4.486   6.680 -1.2214 -0.6993  1.5181
  129MOL   H32146657   3.513   4.334   6.617  0.1777 -1.2362  1.7386
  129MOL   H32246658   3.648   4.447   6.636  0.9310 -2.3154  0.1577
  129MOL   H32346659   3.645   4.543   6.909 -0.5643  0.5445 -0.7154
  129MOL   H32446660   3.725   4.397   6.979 -1.0526  0.3308  0.2968
  129MOL   H32546661   3.771   4.452   6.823 -1.1812  0.2722 -1.2990
  129MOL   C32646662   3.353   4.277   7.131  0.1882 -0.0077  0.1639
  129MOL   C32746663   3.423   4.366   7.234 -0.4848  0.0843  0.3345
  129MOL   C32846664   3.517   4.302   7.347 -0.1204  0.8096 -0.4995
  129MOL   C32946665   3.668   4.339   7.326 -0.4911 -0.3101  0.2815
  129MOL   C33046666   3.700   4.489   7.339  0.1201  0.4986  0.0001
  129MOL   C33146667   3.758   4.241   7.410  0.1498  0.1709 -0.2927
  129MOL   H33246668   3.323   4.188   7.185  3.0492 -0.3776  1.1899
  129MOL   H33346669   3.258   4.315   7.092  0.7146  1.3253  0.1495
  129MOL   H33446670   3.484   4.428   7.168 -0.0334  0.1565  0.8157
  129MOL   H33546671   3.475   4.329   7.444 -0.9538  0.4846 -0.7597
  129MOL   H33646672   3.509   4.194   7.330 -0.2946  1.0469 -1.9922
  129MOL   H33746673   3.682   4.303   7.224 -0.6702 -0.1943  0.2161
  129MOL   H33846674   3.691   4.523   7.442 -2.0715 -0.7742  0.2589
  129MOL   H33946675   3.629   4.547   7.280 -0.4777  0.8103  1.0134
  129MOL   H34046676   3.800   4.518   7.308  0.8691 -1.2570  0.7122
  129MOL   H34146677   3.732   4.137   7.391  1.6327 -0.4186  0.8346
  129MOL   H34246678   3.864   4.260   7.396  0.1029  0.3689 -0.3851
  129MOL   H34346679   3.732   4.257   7.514 -2.6242  0.8883 -1.0526
  129MOL   C34446680   3.313   4.459   7.299 -0.2454  0.5354 -0.2886
  129MOL   C34546681   3.271   4.584   7.207 -0.3633  0.4621  0.3481
  129MOL   C34646682   3.387   4.686   7.190  0.3026 -0.5896 -0.1431
  129MOL   C34746683   3.355   4.807   7.102 -0.2243 -0.1387 -0.1125
  129MOL   C34846684   3.316   4.780   6.955  0.2085 -0.2822 -0.3227
  129MOL   C34946685   3.468   4.907   7.110  0.3352  0.6677 -0.1156
  129MOL   H35046686   3.360   4.505   7.387 -0.2195  0.3603 -0.2099
  129MOL   H35146687   3.234   4.395   7.338  0.9998 -1.0485 -0.3233
  129MOL   H35246688   3.173   4.621   7.238 -0.2899  0.8908  0.0767
  129MOL   H35346689   3.426   4.722   7.285  1.1351 -0.0497 -0.6827
  129MOL   H35446690   3.464   4.630   7.138 -0.0801  1.3305 -2.8809
  129MOL   H35546691   3.266   4.847   7.149  0.9146  0.5947  1.4853
  129MOL   H35646692   3.284   4.877   6.919  1.5317  0.0987 -0.5039
  129MOL   H35746693   3.405   4.752   6.899 -0.4657 -0.2062 -1.4378
  129MOL   H35846694   3.231   4.715   6.935  1.8976 -2.3410 -0.9814
  129MOL   H35946695   3.467   4.947   7.212  0.1889  0.9100 -0.2125
  129MOL   H36046696   3.466   4.988   7.037  0.6993 -0.7614 -1.7312
  129MOL   H36146697   3.570   4.869   7.096  0.4060  0.3901  1.1209
  129MOL   H36246698   3.241   4.539   7.113 -0.6818 -2.4227  1.7975
  130MOL     C146699   7.326   2.498   0.554  0.3870 -0.4758 -0.3953
  130MOL     C246700   7.263   2.510   0.419 -0.1884  0.1039  0.5317
  130MOL     C346701   7.195   2.382   0.361  0.0876 -0.1469  0.0302
  130MOL     C446702   7.051   2.343   0.410  0.8190 -0.0319  0.4921
  130MOL     C546703   7.023   2.197   0.397  0.0992  0.4254 -0.1935
  130MOL     C646704   6.937   2.410   0.341  0.2678 -0.5172  0.0674
  130MOL     H746705   7.243   2.481   0.623  2.6504 -1.2668  2.2086
  130MOL     H846706   7.392   2.411   0.559  0.5902 -0.3058 -0.1462
  130MOL     H946707   7.182   2.583   0.422  0.3230  0.7711 -0.9677
  130MOL    H1046708   7.189   2.371   0.253  1.5245 -1.6313  0.0742
  130MOL    H1146709   7.266   2.302   0.382 -0.8338 -1.0212 -0.1349
  130MOL    H1246710   7.046   2.371   0.515 -0.2717 -2.3367  1.0875
  130MOL    H1346711   7.112   2.147   0.437 -0.3680 -0.0701  0.2366
  130MOL    H1446712   6.940   2.160   0.457  1.7465 -2.2791  0.5146
  130MOL    H1546713   7.015   2.182   0.290  0.9858 -1.7213  0.0133
  130MOL    H1646714   6.840   2.375   0.376  0.5376 -1.5923 -0.2445
  130MOL    H1746715   6.932   2.401   0.232  0.9094 -1.1709  0.0880
  130MOL    H1846716   6.943   2.516   0.365  1.0195 -1.2768  3.3834
  130MOL    H1946717   7.380   2.586   0.590 -0.3536 -0.4632  0.7048
  130MOL    C2046718   7.372   2.551   0.323 -0.3123  0.2083 -0.4869
  130MOL    C2146719   7.321   2.605   0.194  0.1236  0.1096 -0.5661
  130MOL    C2246720   7.266   2.744   0.211  0.2257 -1.2569  0.0915
  130MOL    C2346721   7.153   2.790   0.113  0.0623 -0.6456  0.0510
  130MOL    C2446722   7.022   2.723   0.167  0.1921  0.3081  0.3834
  130MOL    C2546723   7.136   2.941   0.108 -0.4153  0.4154 -0.0070
  130MOL    H2646724   7.440   2.624   0.368  0.0808 -0.5017  0.0949
  130MOL    H2746725   7.435   2.462   0.314 -2.3434 -1.3309  0.0807
  130MOL    H2846726   7.244   2.542   0.150 -1.4051  1.3406  0.2651
  130MOL    H2946727   7.341   2.823   0.198 -1.5856  0.4351 -0.3484
  130MOL    H3046728   7.226   2.764   0.311  0.3712  0.9720 -0.2760
  130MOL    H3146729   7.171   2.757   0.011 -4.1962 -2.5448 -0.1749
  130MOL    H3246730   7.030   2.615   0.156 -0.0194  0.5591 -2.7719
  130MOL    H3346731   6.938   2.761   0.108 -0.1509  3.1091  2.5909
  130MOL    H3446732   7.001   2.747   0.271 -0.3572  1.8784 -0.0762
  130MOL    H3546733   7.144   2.993   0.204  0.3014 -2.0632  1.3038
  130MOL    H3646734   7.210   2.979   0.037 -0.1248  1.7560  0.9931
  130MOL    H3746735   7.043   2.972   0.061  0.6476  0.5795 -2.0773
  130MOL    C3846736   7.434   2.614   0.085  0.6202  0.2732 -0.8384
  130MOL    C3946737   7.496   2.479   0.045  0.3174  0.0726 -0.1220
  130MOL    C4046738   7.633   2.497   7.736 -1.2169 -0.1192 -0.1436
  130MOL    C4146739   7.751   2.458   0.083 -0.2126 -0.3805  0.1543
  130MOL    C4246740   0.036   2.551   0.204 -0.2207 -0.0656  0.2000
  130MOL    C4346741   0.124   2.444   7.752  0.1593 -0.4225 -0.2319
  130MOL    H4446742   7.501   2.682   0.138 -1.4795  1.4584  0.3378
  130MOL    H4546743   7.415   2.677   7.750  1.8826  0.2193 -1.1594
  130MOL    H4646744   7.517   2.410   0.128  1.1512  1.2300  0.6390
  130MOL    H4746745   7.651   2.593   7.687 -1.0125 -0.1682 -0.1649
  130MOL    H4846746   7.643   2.431   7.649  1.2204 -2.3641  1.7420
  130MOL    H4946747   7.718   2.362   0.124 -2.0110  0.4988  0.8385
  130MOL    H5046748   7.699   2.565   0.264 -2.0404  0.5234 -2.5384
  130MOL    H5146749   0.117   2.518   0.269 -1.4706 -0.8802  1.3622
  130MOL    H5246750   0.065   2.653   0.179 -2.8789  0.5973 -0.2606
  130MOL    H5346751   0.149   2.542   7.712 -0.0706  0.0307  0.7273
  130MOL    H5446752   0.123   2.381   7.663 -2.3646 -3.3306  1.7525
  130MOL    H5546753   0.209   2.410   0.059 -0.2856  1.7027  1.6850
  130MOL    C5646754   7.399   2.406   7.701 -0.2800 -0.0300 -0.0138
  130MOL    C5746755   7.428   2.257   7.670 -0.3878 -0.1128  0.4740
  130MOL    C5846756   7.398   2.215   7.524  0.1239  0.3743 -0.0059
  130MOL    C5946757   7.500   2.272   7.427  0.1090 -0.0640 -0.0499
  130MOL    C6046758   7.440   2.239   7.289 -0.0157  0.1471 -0.5943
  130MOL    C6146759   7.633   2.210   7.446  0.4578  0.6557 -0.5512
  130MOL    H6246760   7.407   2.453   7.603 -0.4094  1.5878  0.7247
  130MOL    H6346761   7.296   2.410   7.736 -0.2394  0.0073  0.1038
  130MOL    H6446762   7.528   2.231   7.703 -0.5765  1.0912  2.0276
  130MOL    H6546763   7.382   2.108   7.511  1.8482  0.2635 -1.4945
  130MOL    H6646764   7.301   2.253   7.493  1.3303  0.8603 -3.4323
  130MOL    H6746765   7.491   2.380   7.435 -0.0064 -0.1594  1.2520
  130MOL    H6846766   7.508   2.278   7.213 -2.1410  1.4708 -1.8716
  130MOL    H6946767   7.340   2.278   7.270  0.6328  1.0914 -2.2092
  130MOL    H7046768   7.441   2.132   7.274 -0.0991  0.3041 -1.7110
  130MOL    H7146769   7.688   2.245   7.533 -1.6904  0.4800  0.9010
  130MOL    H7246770   7.699   2.246   7.366  2.0510  2.3795  1.4841
  130MOL    H7346771   7.637   2.101   7.451 -1.4769  0.6437  2.2670
  130MOL    C7446772   7.353   2.174   0.025  0.1484  0.1080 -0.4235
  130MOL    C7546773   7.376   2.021   0.039  0.2921 -0.0282 -0.2513
  130MOL    C7646774   7.519   1.969   0.036 -0.7689 -0.2461  0.3428
  130MOL    C7746775   7.608   2.023   0.150 -0.1164 -0.4642  0.4395
  130MOL    C7846776   7.746   2.061   0.096  0.1869  0.1040  0.0003
  130MOL    C7946777   7.622   1.918   0.265 -0.3420 -0.2967 -0.1143
  130MOL    H8046778   7.247   2.198   0.038  0.4360  1.9585 -1.3868
  130MOL    H8146779   7.381   2.203   0.127 -2.6271 -0.4691  0.5488
  130MOL    H8246780   7.341   1.992   0.139 -0.7225 -1.5710 -1.0391
  130MOL    H8346781   7.506   1.862   0.053 -0.4691 -0.2230  0.7456
  130MOL    H8446782   7.568   1.983   7.692  1.4378  0.3360  1.5146
  130MOL    H8546783   7.566   2.113   0.196  0.8835 -0.2479  0.9628
  130MOL    H8646784   0.057   2.096   0.178  0.0449 -0.1541  0.2249
  130MOL    H8746785   7.736   2.136   0.019 -0.4447 -0.8034 -0.8177
  130MOL    H8846786   0.051   1.987   0.039 -0.0264  1.8920 -2.5885
  130MOL    H8946787   7.633   1.815   0.232  0.5310  0.3524 -1.9153
  130MOL    H9046788   7.706   1.927   0.334 -2.2682 -2.1516  2.6216
  130MOL    H9146789   7.526   1.900   0.315 -0.4940 -2.1092 -1.0135
  130MOL    C9246790   7.279   1.939   7.702  0.6287  0.6930  0.5302
  130MOL    C9346791   7.243   1.791   7.744  0.5685 -0.3223  0.0593
  130MOL    C9446792   7.092   1.778   0.037 -0.6824  0.3680  0.0551
  130MOL    C9546793   7.056   1.861   0.166 -0.3881 -0.4238 -0.6540
  130MOL    C9646794   6.907   1.897   0.176  0.0779 -0.9826  0.4806
  130MOL    C9746795   7.092   1.784   0.295 -0.3276  0.0609  0.2771
  130MOL    H9846796   7.185   1.993   7.693  0.0901 -0.4008 -0.5001
  130MOL    H9946797   7.317   1.937   7.600  2.5408  3.0896  1.1691
  130MOL   H10046798   7.298   1.759   0.080 -0.4581  1.3183  1.3344
  130MOL   H10146799   7.057   1.678   0.063 -1.3657  0.4623 -0.4995
  130MOL   H10246800   7.021   1.809   7.713  0.6554 -1.7166 -2.1404
  130MOL   H10346801   7.123   1.946   0.151  1.3193 -1.5337  0.3836
  130MOL   H10446802   6.865   1.953   0.092  0.8091 -1.6863 -0.3566
  130MOL   H10546803   6.889   1.967   0.259 -0.5684  0.2032 -0.6446
  130MOL   H10646804   6.841   1.814   0.202  0.6752 -1.4990  0.3450
  130MOL   H10746805   7.060   1.682   0.278 -0.7184  0.2022  0.1573
  130MOL   H10846806   7.056   1.833   0.385  0.1636  1.2620 -0.1576
  130MOL   H10946807   7.197   1.762   0.315 -0.4655  0.3144  1.3174
  130MOL   C11046808   7.259   1.697   7.621  0.4324 -0.3924  0.3631
  130MOL   C11146809   7.242   1.543   7.650 -0.3435  0.3699  0.6192
  130MOL   C11246810   7.212   1.463   7.512 -1.0543 -0.6946  0.0151
  130MOL   C11346811   7.067   1.436   7.482  0.5212  0.2449  0.3873
  130MOL   C11446812   7.062   1.309   7.397  0.1433 -0.2690  0.1288
  130MOL   C11546813   6.993   1.542   7.399 -0.1152 -0.0745  0.1692
  130MOL   H11646814   7.362   1.709   7.588 -0.2087 -2.3996 -2.5549
  130MOL   H11746815   7.202   1.726   7.533 -0.1228  0.6959  1.0752
  130MOL   H11846816   7.153   1.526   7.710 -0.8323  0.1866 -0.1523
  130MOL   H11946817   7.260   1.367   7.531 -0.5180 -0.4477 -0.0927
  130MOL   H12046818   7.264   1.502   7.425  0.4399  0.9330  1.5950
  130MOL   H12146819   7.017   1.426   7.579  0.7733 -0.4877  0.4438
  130MOL   H12246820   6.961   1.272   7.384  0.3451 -1.0087  0.5859
  130MOL   H12346821   7.122   1.230   7.441  0.7903 -0.1062 -0.4465
  130MOL   H12446822   7.084   1.335   7.293  4.6334  0.4924  1.1594
  130MOL   H12546823   7.008   1.643   7.439 -0.0740  0.5358 -1.3705
  130MOL   H12646824   6.885   1.539   7.401 -0.0859 -1.1738  2.6280
  130MOL   H12746825   7.030   1.554   7.297 -0.6133 -0.0221 -0.0044
  130MOL   C12846826   7.359   1.476   7.727  0.5734  1.0137  0.7113
  130MOL   C12946827   7.321   1.368   0.079  0.3875 -0.4980  0.1155
  130MOL   C13046828   7.268   1.429   0.213  0.3587  0.2744  1.2206
  130MOL   C13146829   7.166   1.346   0.295 -0.0492 -0.0802 -0.3388
  130MOL   C13246830   7.146   1.414   0.430 -0.2146 -0.1920  0.9810
  130MOL   C13346831   7.034   1.325   0.217  0.4481 -0.1479 -0.4375
  130MOL   H13446832   7.410   1.555   0.030  0.6288  0.6742  1.1578
  130MOL   H13546833   7.440   1.447   7.660 -1.3150  0.0833 -1.2392
  130MOL   H13646834   7.254   1.297   0.031 -0.7543  0.8748 -0.3375
  130MOL   H13746835   7.350   1.457   0.279  0.7814  1.2186  0.3116
  130MOL   H13846836   7.228   1.528   0.191 -0.5997 -0.4733 -0.5633
  130MOL   H13946837   7.212   1.248   0.313 -0.4993 -0.3419 -0.6020
  130MOL   H14046838   7.227   1.424   0.503 -0.1168  0.3018  0.8094
  130MOL   H14146839   7.066   1.356   0.476 -0.5031 -0.5578  0.0249
  130MOL   H14246840   7.118   1.518   0.416  0.4265 -0.4479 -2.4514
  130MOL   H14346841   6.968   1.254   0.267 -0.2664  0.9362  0.1731
  130MOL   H14446842   6.976   1.415   0.195  1.7268  0.8021  0.0350
  130MOL   H14546843   7.046   1.293   0.114 -1.5263  2.5378 -1.5510
  130MOL   C14646844   7.456   1.284   0.112 -0.3364  0.0292 -0.5927
  130MOL   C14746845   7.454   1.153   0.026  0.2665 -0.4819  0.9705
  130MOL   C14846846   7.346   1.048   0.080  0.2229 -1.0647  0.3480
  130MOL   C14946847   7.282   0.953   7.719 -0.4152 -0.3014  0.2409
  130MOL   C15046848   7.201   0.831   0.021 -0.7310  0.5238  0.4977
  130MOL   C15146849   7.191   1.034   7.620  0.6595  0.6011  0.5738
  130MOL   H15246850   7.453   1.247   0.214 -0.2134 -1.0714 -0.9911
  130MOL   H15346851   7.543   1.348   0.097  0.2724 -0.8647 -0.9010
  130MOL   H15446852   7.420   1.192   7.683  0.5086  0.4221  1.2453
  130MOL   H15546853   7.395   0.972   0.141 -1.8844 -0.8412  2.3856
  130MOL   H15646854   7.276   1.100   0.144 -1.6417 -1.5333 -1.2647
  130MOL   H15746855   7.361   0.908   7.659 -0.3948  0.9420 -0.6860
  130MOL   H15846856   7.258   0.763   0.084  2.0995  2.9488  0.6548
  130MOL   H15946857   7.146   0.781   7.694  1.7401 -1.2948 -0.1329
  130MOL   H16046858   7.124   0.863   0.091 -0.1352 -1.6019  2.1682
  130MOL   H16146859   7.245   1.100   7.551  2.1348 -0.2087  0.9466
  130MOL   H16246860   7.109   1.087   7.668 -1.0601 -1.9448  0.5023
  130MOL   H16346861   7.137   0.963   7.558 -2.9955  2.6683  1.2255
  130MOL   C16446862   7.590   1.074   0.010 -0.4128 -0.4794 -0.3722
  130MOL   C16546863   7.697   1.129   7.665  0.1158 -0.6098 -0.5779
  130MOL   C16646864   7.646   1.155   7.529 -0.0127  0.2022 -0.5132
  130MOL   C16746865   7.570   1.052   7.444 -1.0234 -0.3681 -0.9472
  130MOL   C16846866   7.493   1.115   7.314 -0.0301 -0.1482  1.0608
  130MOL   C16946867   7.666   0.937   7.418  0.5187  0.7367  0.1025
  130MOL   H17046868   7.637   1.063   0.108 -1.1391 -0.6467 -0.0383
  130MOL   H17146869   7.561   0.976   7.722  0.1927 -0.6257 -0.4593
  130MOL   H17246870   0.014   1.046   7.648 -0.1875 -0.8961 -0.4215
  130MOL   H17346871   7.572   1.234   7.537  1.1427  1.0153  3.0839
  130MOL   H17446872   7.730   1.196   7.472  0.3568  0.4125  0.1704
  130MOL   H17546873   7.492   1.017   7.510 -0.0320 -1.2607 -0.2314
  130MOL   H17646874   7.435   1.204   7.338  0.5603  0.9449 -1.4490
  130MOL   H17746875   7.422   1.048   7.264 -0.9433  0.6733  1.2428
  130MOL   H17846876   7.573   1.149   7.249 -1.4309  2.2668  0.5709
  130MOL   H17946877   7.744   0.955   7.344 -1.4120 -0.5481 -2.3155
  130MOL   H18046878   7.614   0.847   7.384  0.9379  0.5631 -0.0871
  130MOL   H18146879   7.720   0.914   7.509  1.1215  1.3171 -0.1021
  130MOL   C18246880   0.033   1.244   7.736  0.5041 -0.2154  0.2514
  130MOL   C18346881   0.170   1.257   7.669 -0.0033 -0.0205 -0.1729
  130MOL   C18446882   0.242   1.391   7.709 -0.1330 -0.2459  0.0741
  130MOL   C18546883   0.167   1.522   7.680  0.5599 -0.2835  0.3943
  130MOL   C18646884   0.255   1.652   7.696 -0.4586 -0.5120  0.2464
  130MOL   C18746885   0.094   1.533   7.543 -0.9350 -0.2916  0.1163
  130MOL   H18846886   0.036   1.227   0.091  1.1441  1.4482  0.5081
  130MOL   H18946887   7.733   1.339   7.726  1.1220  0.0935 -0.0246
  130MOL   H19046888   0.151   1.264   7.562 -1.0254  0.1125  0.0137
  130MOL   H19146889   0.337   1.393   7.656  0.7736 -0.6536  1.6506
  130MOL   H19246890   0.274   1.396   0.061  1.4121 -2.0115 -0.3004
  130MOL   H19346891   0.082   1.525   7.749 -0.9309  0.0531 -1.4197
  130MOL   H19446892   0.299   1.676   0.041 -0.1531  0.1305 -0.0476
  130MOL   H19546893   0.187   1.737   7.685  1.6210  1.4466  1.9982
  130MOL   H19646894   0.335   1.669   7.624  0.0481  0.5662  1.0476
  130MOL   H19746895   0.168   1.523   7.464 -0.6601  0.0665  0.3286
  130MOL   H19846896   0.040   1.627   7.531  2.4349  1.7892  0.4788
  130MOL   H19946897   0.025   1.449   7.550 -0.1641 -1.0728 -1.5545
  130MOL   C20046898   0.272   1.141   7.696 -0.4278  0.1782  0.0622
  130MOL   C20146899   0.366   1.112   7.569 -0.6621  0.1875  0.2043
  130MOL   C20246900   0.272   1.061   7.451 -0.3081 -0.2651  0.0781
  130MOL   C20346901   0.291   1.119   7.306 -0.1384  0.0432 -0.1631
  130MOL   C20446902   0.426   1.069   7.251 -0.1243 -0.3189  0.2390
  130MOL   C20546903   0.179   1.092   7.208  0.0507 -0.0796 -0.6873
  130MOL   H20646904   0.220   1.046   7.711  0.1089 -0.0837  0.3065
  130MOL   H20746905   0.331   1.173   0.030 -3.9427 -2.4890  3.6102
  130MOL   H20846906   0.421   1.201   7.537 -0.0301 -0.5614 -0.8514
  130MOL   H20946907   0.267   0.952   7.448  0.0765 -0.2508 -2.2118
  130MOL   H21046908   0.168   1.086   7.470 -1.1386 -2.9955 -0.6517
  130MOL   H21146909   0.297   1.227   7.318  3.2166 -0.0001 -1.0660
  130MOL   H21246910   0.452   1.117   7.156 -0.9396 -1.0458 -0.3568
  130MOL   H21346911   0.428   0.961   7.239  0.1224 -0.2793 -0.0799
  130MOL   H21446912   0.504   1.084   7.326 -0.0656 -1.4586  0.4069
  130MOL   H21546913   0.088   1.134   7.252  0.2391  0.1858 -0.5529
  130MOL   H21646914   0.163   0.984   7.199 -0.6782 -0.0721  0.3324
  130MOL   H21746915   0.186   1.134   7.108 -1.2541  2.2497  0.1685
  130MOL   C21846916   0.469   0.999   7.608 -0.1612 -0.0558  1.0082
  130MOL   C21946917   0.584   1.052   7.699 -1.1136  0.4326 -0.5637
  130MOL   C22046918   0.667   1.163   7.626 -0.3455 -0.3607 -0.0428
  130MOL   C22146919   0.769   1.243   7.712  0.8724  0.4018 -0.3742
  130MOL   C22246920   0.904   1.238   7.641 -0.6041 -0.3433  0.4406
  130MOL   C22346921   0.736   1.388   7.738 -0.8278  0.3674  0.4754
  130MOL   H22446922   0.417   0.908   7.636 -0.4065 -1.1427 -2.6776
  130MOL   H22546923   0.521   0.960   7.521 -0.1376  0.2149  0.8984
  130MOL   H22646924   0.540   1.098   0.035 -1.7590  0.7282 -1.0250
  130MOL   H22746925   0.716   1.127   7.535  0.2452 -0.8182  0.4558
  130MOL   H22846926   0.610   1.242   7.577  1.1276  0.8530  0.1244
  130MOL   H22946927   0.777   1.193   0.056  0.5887 -0.5709 -0.8541
  130MOL   H23046928   0.915   1.307   7.557  1.9342 -3.5543 -2.0324
  130MOL   H23146929   0.973   1.258   7.723 -0.6284  0.3957  0.2875
  130MOL   H23246930   0.922   1.136   7.606  2.0858  0.1724  0.1851
  130MOL   H23346931   0.704   1.439   7.647  0.5993  1.9245  0.8294
  130MOL   H23446932   0.663   1.402   0.066 -0.8486 -0.2510  0.5626
  130MOL   H23546933   0.820   1.446   0.024 -1.1193 -1.1274  3.4765
  130MOL   C23646934   0.671   0.934   7.735 -0.5094 -0.4654 -0.0080
  130MOL   C23746935   0.614   0.823   0.068  0.1437  0.6560  0.1266
  130MOL   C23846936   0.563   0.883   0.202  0.4972 -0.3671  0.1548
  130MOL   C23946937   0.408   0.896   0.216  0.2400  0.5249  0.0858
  130MOL   C24046938   0.335   0.762   0.215 -0.3645 -0.2474 -0.4521
  130MOL   C24146939   0.373   0.984   0.336  0.6083  0.5126 -0.6952
  130MOL   H24246940   0.755   0.969   0.043 -0.2887 -1.1048  0.0546
  130MOL   H24346941   0.712   0.894   7.643 -0.6660  0.7011 -0.6042
  130MOL   H24446942   0.523   0.789   0.018  1.5706 -1.1240 -1.3082
  130MOL   H24546943   0.603   0.980   0.230 -1.7134  0.5673  0.1867
  130MOL   H24646944   0.590   0.820   0.286 -0.6362  1.3953  1.8768
  130MOL   H24746945   0.375   0.950   0.128 -0.3835  0.3145  0.1863
  130MOL   H24846946   0.338   0.710   0.120  2.7547  2.2744 -1.8095
  130MOL   H24946947   0.228   0.762   0.240  0.0002  1.3858  1.2386
  130MOL   H25046948   0.372   0.697   0.294  0.5819  0.8486  0.0148
  130MOL   H25146949   0.379   0.934   0.433 -4.3239  3.4221  1.2977
  130MOL   H25246950   0.274   1.026   0.319  0.3129  1.1429  2.2286
  130MOL   H25346951   0.441   1.068   0.351 -0.7410  1.7204 -1.2901
  130MOL   C25446952   0.735   0.718   0.101 -0.7342  0.0317 -0.4650
  130MOL   C25546953   0.699   0.578   0.148 -0.0020  0.1075 -1.1866
  130MOL   C25646954   0.652   0.494   0.025 -0.1668  0.2894 -0.1485
  130MOL   C25746955   0.557   0.373   0.058  0.1279  0.0032 -0.7063
  130MOL   C25846956   0.551   0.278   7.687 -0.1867  0.7951 -0.5639
  130MOL   C25946957   0.410   0.421   0.090 -0.1293 -0.1521  0.1675
  130MOL   H26046958   0.813   0.702   0.026 -0.7030  0.2377 -0.4772
  130MOL   H26146959   0.795   0.768   0.177 -0.8575 -3.2057  1.8819
  130MOL   H26246960   0.619   0.583   0.223  3.1072 -1.6717  2.4605
  130MOL   H26346961   0.744   0.449   7.740 -0.2952  0.6983 -0.9725
  130MOL   H26446962   0.617   0.560   7.698  1.9776  1.0178 -0.4938
  130MOL   H26546963   0.601   0.320   0.142 -1.3651 -0.1680 -0.0179
  130MOL   H26646964   0.484   0.194   7.709  1.6783 -0.5760 -0.0242
  130MOL   H26746965   0.645   0.229   7.661 -0.2603  0.3508 -0.0130
  130MOL   H26846966   0.507   0.319   7.596 -0.5087  2.1734  0.1973
  130MOL   H26946967   0.369   0.324   0.118  4.2537 -2.1549  0.1040
  130MOL   H27046968   0.399   0.490   0.174 -2.1213 -1.5431  1.0866
  130MOL   H27146969   0.362   0.455   7.750 -1.1460 -0.5465  0.5389
  130MOL   C27246970   0.821   0.521   0.223 -0.1181 -0.2027 -0.6320
  130MOL   C27346971   0.844   0.571   0.369  0.3338  0.0789 -0.5007
  130MOL   C27446972   0.731   0.516   0.462 -0.0746  0.6746 -0.0216
  130MOL   C27546973   0.739   0.559   0.611  0.4491  0.4894  0.4101
  130MOL   C27646974   0.619   0.500   0.693 -0.1056  0.0199  0.2360
  130MOL   C27746975   0.734   0.713   0.622 -0.6380  0.1899 -0.0484
  130MOL   H27846976   0.812   0.414   0.239 -0.9718 -0.1769 -0.8929
  130MOL   H27946977   0.910   0.529   0.161  1.4149 -2.1759  1.2565
  130MOL   H28046978   0.836   0.679   0.380 -0.9867 -0.3332  3.0697
  130MOL   H28146979   0.726   0.407   0.462  3.6224  0.4386  2.1686
  130MOL   H28246980   0.632   0.545   0.425  0.6806  1.6910 -1.2943
  130MOL   H28346981   0.828   0.524   0.663 -0.2754  2.4091  3.0376
  130MOL   H28446982   0.623   0.531   0.797 -1.2547  2.4612 -0.4228
  130MOL   H28546983   0.517   0.522   0.662  0.3758  2.6620  0.4035
  130MOL   H28646984   0.623   0.391   0.694  0.5339  0.0470  1.8426
  130MOL   H28746985   0.805   0.775   0.566  0.3841 -0.0390  0.9862
  130MOL   H28846986   0.640   0.762   0.596 -0.7488  1.3268  2.3542
  130MOL   H28946987   0.738   0.742   0.727 -1.7615  3.0648 -0.7453
  130MOL   C29046988   0.987   0.536   0.413  0.0737  0.4767  0.3216
  130MOL   C29146989   1.113   0.604   0.358  0.5544  1.0602  0.4561
  130MOL   C29246990   1.111   0.756   0.369 -0.0069  0.0631 -0.2627
  130MOL   C29346991   1.084   0.830   0.239 -0.2037  0.0256 -0.8816
  130MOL   C29446992   1.034   0.972   0.266 -0.5802 -0.8007 -0.5715
  130MOL   C29546993   1.203   0.816   0.146  0.0851  0.4883  0.2517
  130MOL   H29646994   1.002   0.528   0.520 -1.5171 -3.3142  0.3588
  130MOL   H29746995   0.995   0.431   0.381 -0.8138  0.0966  1.3319
  130MOL   H29846996   1.099   0.583   0.252  1.3450  0.3850  0.4835
  130MOL   H29946997   1.210   0.789   0.402 -0.3030  1.6540 -0.9182
  130MOL   H30046998   1.043   0.781   0.451 -0.6434 -1.2921 -0.3661
  130MOL   H30146999   0.997   0.776   0.201 -0.7290  0.8079 -0.8015
  130MOL   H30247000   0.937   0.973   0.317  0.2191  2.4858  1.0647
  130MOL   H30347001   1.024   1.011   0.165 -1.6975  2.0230  0.5735
  130MOL   H30447002   1.097   1.032   0.332 -0.4736 -1.8758  0.3242
  130MOL   H30547003   1.232   0.711   0.140 -2.4666 -0.2087 -0.3535
  130MOL   H30647004   1.290   0.875   0.176  0.4338  0.4984 -0.7598
  130MOL   H30747005   1.180   0.846   0.043  1.9475  0.1507 -0.2884
  130MOL   C30847006   1.244   0.536   0.408 -0.6791  0.7741 -0.7411
  130MOL   C30947007   1.261   0.511   0.559 -0.5841  0.3592  0.0945
  130MOL   C31047008   1.403   0.455   0.579  0.2426  0.4095 -0.1569
  130MOL   C31147009   1.420   0.301   0.562  0.1277  0.1551 -0.0798
  130MOL   C31247010   1.564   0.264   0.520 -0.0514  0.7307 -0.3115
  130MOL   C31347011   1.382   0.225   0.689  0.3372  0.0373  0.3332
  130MOL   H31447012   1.275   0.445   0.356  0.9176 -1.4563  3.8603
  130MOL   H31547013   1.324   0.605   0.383  0.3147 -0.6168 -1.4551
  130MOL   H31647014   1.194   0.432   0.589  1.1620 -1.0949  0.2508
  130MOL   H31747015   1.438   0.485   0.677 -0.5116  2.3492 -0.4723
  130MOL   H31847016   1.475   0.507   0.516 -0.2569  1.9815  0.5487
  130MOL   H31947017   1.352   0.272   0.482 -0.7757  0.3364  0.6169
  130MOL   H32047018   1.600   0.328   0.439  0.7152  0.3009 -0.3102
  130MOL   H32147019   1.576   0.162   0.483 -1.4700  0.5073 -0.1896
  130MOL   H32247020   1.634   0.276   0.603 -1.7962  2.0984  0.9987
  130MOL   H32347021   1.276   0.252   0.696  0.7183  1.5308  0.5129
  130MOL   H32447022   1.386   0.116   0.682 -0.3514 -0.0740  1.4786
  130MOL   H32547023   1.436   0.256   0.779  1.4024 -1.9440  0.3929
  130MOL   C32647024   1.232   0.633   0.656  0.1256 -0.5225 -0.7131
  130MOL   C32747025   1.225   0.604   0.808  0.9656 -0.0649 -0.7007
  130MOL   C32847026   1.138   0.482   0.842  0.1501 -0.0389 -0.1785
  130MOL   C32947027   1.121   0.440   0.986 -0.1716 -0.5813 -0.0208
  130MOL   C33047028   1.017   0.335   1.005  0.3076  0.0890  0.1116
  130MOL   C33147029   1.251   0.397   1.052 -0.1849  0.4685  0.3597
  130MOL   H33247030   1.146   0.686   0.616  2.0563  1.8374 -1.8325
  130MOL   H33347031   1.320   0.693   0.633 -0.3822 -0.0662 -1.5000
  130MOL   H33447032   1.331   0.591   0.825  0.8365  1.7302  1.6595
  130MOL   H33547033   1.041   0.506   0.798 -2.1271 -3.0867  2.8475
  130MOL   H33647034   1.179   0.390   0.799  1.0178  0.2478  0.0417
  130MOL   H33747035   1.082   0.523   1.045 -0.3885  0.6054 -1.8239
  130MOL   H33847036   1.048   0.231   0.991 -0.9750 -0.3130  0.2140
  130MOL   H33947037   0.937   0.349   0.933  1.1521  1.5776 -0.5472
  130MOL   H34047038   0.966   0.326   1.101  0.2779  0.1931  0.1052
  130MOL   H34147039   1.321   0.475   1.080 -0.0029 -0.2545  1.9778
  130MOL   H34247040   1.240   0.356   1.152  2.2584  1.8364  1.2432
  130MOL   H34347041   1.309   0.321   0.998 -0.3460 -0.2445  1.1807
  130MOL   C34447042   1.182   0.730   0.886 -0.0491  0.3783  0.7177
  130MOL   C34547043   1.250   0.866   0.869 -0.2945  0.3509  0.4030
  130MOL   C34647044   1.405   0.863   0.878  0.1726 -0.3003 -0.0621
  130MOL   C34747045   1.475   0.991   0.840  0.2968 -0.6339 -0.2035
  130MOL   C34847046   1.432   1.111   0.923  0.2700 -1.0650 -0.4156
  130MOL   C34947047   1.468   1.022   0.688 -0.2531 -0.9113 -0.0004
  130MOL   H35047048   1.187   0.689   0.987 -3.4735 -1.2950  0.2954
  130MOL   H35147049   1.076   0.745   0.868  0.2022 -0.5612 -1.6217
  130MOL   H35247050   1.214   0.929   0.949  0.3750  1.1672  0.0652
  130MOL   H35347051   1.435   0.830   0.978  3.3444  2.1392 -0.1123
  130MOL   H35447052   1.451   0.781   0.823  0.6478 -0.5156  0.6465
  130MOL   H35547053   1.580   0.970   0.858  0.7273 -0.0883 -1.9035
  130MOL   H35647054   1.341   1.157   0.883  1.1105  0.6819 -0.3783
  130MOL   H35747055   1.414   1.096   1.030 -0.3106 -0.7445 -0.4621
  130MOL   H35847056   1.500   1.196   0.912  0.2708 -1.1132 -0.7615
  130MOL   H35947057   1.374   1.062   0.652 -0.0807  1.4202  2.0659
  130MOL   H36047058   1.491   0.932   0.630  0.5777 -0.4638 -0.3807
  130MOL   H36147059   1.544   1.093   0.655 -1.0225 -0.5785 -1.1080
  130MOL   H36247060   1.223   0.909   0.773 -0.1466  0.3330  0.3529
  131MOL     C147061   6.631   3.764   4.930 -0.4467 -0.2415  0.1312
  131MOL     C247062   6.769   3.739   4.881 -0.5959 -0.0425 -0.4698
  131MOL     C347063   6.858   3.693   5.006 -0.2862  0.0428  0.5572
  131MOL     C447064   7.002   3.650   4.983  0.5223 -0.4588 -0.0508
  131MOL     C547065   7.008   3.505   4.946 -0.0479  0.1043 -0.1750
  131MOL     C647066   7.094   3.683   5.101 -0.2811 -0.0195 -0.1167
  131MOL     H747067   6.591   3.663   4.945 -1.1876 -0.2627 -1.9214
  131MOL     H847068   6.609   3.816   5.023 -3.6270 -2.6561  0.8200
  131MOL     H947069   6.757   3.659   4.809  1.8447 -0.9445  0.0691
  131MOL    H1047070   6.849   3.765   5.087 -0.2463 -0.2328  0.8062
  131MOL    H1147071   6.815   3.607   5.058 -0.0978 -0.3902  0.0062
  131MOL    H1247072   7.035   3.712   4.900  0.1543 -2.0029 -1.3685
  131MOL    H1347073   6.995   3.431   5.026 -1.2792  1.8370  1.2690
  131MOL    H1447074   6.938   3.481   4.866  0.6031  2.3052 -1.4378
  131MOL    H1547075   7.109   3.490   4.907  0.7035  1.4535  1.1834
  131MOL    H1647076   7.198   3.664   5.076 -0.4168 -0.8764 -0.0481
  131MOL    H1747077   7.070   3.616   5.184 -0.6294 -2.4389 -2.1175
  131MOL    H1847078   7.078   3.782   5.143  1.7849 -0.1288  0.9803
  131MOL    H1947079   6.561   3.815   4.864 -0.7089 -0.8462 -0.0592
  131MOL    C2047080   6.833   3.870   4.818 -0.5143 -0.3940  0.2153
  131MOL    C2147081   6.749   3.975   4.730 -0.1913  0.9352 -0.1458
  131MOL    C2247082   6.829   4.105   4.715  0.5026  0.1540 -0.2756
  131MOL    C2347083   6.845   4.194   4.843  0.1690 -0.6733 -0.2642
  131MOL    C2447084   6.926   4.313   4.802 -0.2479  0.2370  1.0735
  131MOL    C2547085   6.700   4.238   4.896 -0.2715 -0.4857  0.3830
  131MOL    H2647086   6.875   3.924   4.903  0.7615  0.0014 -0.6563
  131MOL    H2747087   6.920   3.849   4.757 -0.2081  0.2810  0.4110
  131MOL    H2847088   6.668   4.002   4.799 -0.5718  0.2613 -0.3260
  131MOL    H2947089   6.771   4.159   4.640  0.7133 -1.0013 -1.2667
  131MOL    H3047090   6.930   4.085   4.682  0.6436  0.7226 -0.2030
  131MOL    H3147091   6.893   4.137   4.923  0.0212 -1.0076 -0.4144
  131MOL    H3247092   6.940   4.381   4.886  2.5992 -0.7693  1.4587
  131MOL    H3347093   6.862   4.356   4.725 -1.9498 -2.3385  0.9993
  131MOL    H3447094   7.026   4.285   4.768 -0.2617  1.0611  0.3499
  131MOL    H3547095   6.709   4.305   4.982  0.3772 -0.3373  0.1961
  131MOL    H3647096   6.648   4.293   4.817 -0.2453  2.3012  2.2439
  131MOL    H3747097   6.636   4.155   4.927 -0.0258 -0.0697  2.0558
  131MOL    C3847098   6.696   3.907   4.599  1.3746  0.1969  0.3239
  131MOL    C3947099   6.603   3.976   4.500  0.6767 -0.0574  0.2566
  131MOL    C4047100   6.453   3.967   4.552 -0.5595 -0.2972  1.1290
  131MOL    C4147101   6.343   4.051   4.475 -0.7045 -0.8295 -0.5078
  131MOL    C4247102   6.336   4.195   4.525 -0.4962  0.3722  0.7097
  131MOL    C4347103   6.207   3.983   4.490  0.3895 -0.2280 -0.0638
  131MOL    H4447104   6.654   3.814   4.637 -2.4072  1.4252 -0.6190
  131MOL    H4547105   6.788   3.872   4.551 -0.1560 -2.2344 -0.9910
  131MOL    H4647106   6.629   4.081   4.504  0.2794 -0.0053  1.5769
  131MOL    H4747107   6.450   3.986   4.659 -0.6821 -1.5058  1.3449
  131MOL    H4847108   6.422   3.863   4.544  2.0186 -1.1617  1.9097
  131MOL    H4947109   6.366   4.047   4.369  1.2996  1.8189 -0.1944
  131MOL    H5047110   6.285   4.267   4.461  0.7878  0.3529 -0.3568
  131MOL    H5147111   6.287   4.201   4.622 -0.0796  2.6461  0.8048
  131MOL    H5247112   6.438   4.228   4.543 -0.6626  1.2762  0.0105
  131MOL    H5347113   6.195   3.951   4.594 -1.3837 -0.4367 -0.3116
  131MOL    H5447114   6.190   3.885   4.445 -0.6877  0.2039 -0.6021
  131MOL    H5547115   6.126   4.052   4.469  0.4436 -0.2193 -0.2428
  131MOL    C5647116   6.607   3.924   4.352 -0.1332 -1.0864  0.6048
  131MOL    C5747117   6.739   3.969   4.280 -0.1106 -0.0105 -0.1753
  131MOL    C5847118   6.709   4.110   4.215 -0.6713  0.7710 -0.8029
  131MOL    C5947119   6.832   4.185   4.152 -0.0579 -0.5140 -0.3522
  131MOL    C6047120   6.941   4.212   4.258 -0.3969  0.1903  0.4586
  131MOL    C6147121   6.788   4.313   4.081  0.1604 -0.4904 -0.4052
  131MOL    H6247122   6.522   3.952   4.289  1.2043  0.2970 -0.6311
  131MOL    H6347123   6.597   3.815   4.348  2.2986 -1.4245  2.7285
  131MOL    H6447124   6.823   3.966   4.350 -0.7541  1.5057  0.6953
  131MOL    H6547125   6.624   4.091   4.150 -0.4170  0.7445 -1.1260
  131MOL    H6647126   6.646   4.176   4.275  0.3694  4.5358 -3.6442
  131MOL    H6747127   6.876   4.123   4.074  1.6051 -0.9791  0.9256
  131MOL    H6847128   7.020   4.136   4.265 -1.6996 -1.3630 -1.3456
  131MOL    H6947129   6.889   4.216   4.354 -0.3837  2.8512  0.3784
  131MOL    H7047130   6.987   4.311   4.259  1.4731 -0.6521 -0.1897
  131MOL    H7147131   6.720   4.280   4.003 -0.1932 -0.5298 -0.0770
  131MOL    H7247132   6.867   4.354   4.017  0.5948 -1.2490 -0.3612
  131MOL    H7347133   6.735   4.373   4.155 -1.6023 -2.4779 -0.0200
  131MOL    C7447134   6.782   3.868   4.176 -0.7694  0.3257 -1.3149
  131MOL    C7547135   6.844   3.735   4.230  0.3652  0.0346 -0.3408
  131MOL    C7647136   6.979   3.741   4.313  0.3020 -0.3645 -0.0964
  131MOL    C7747137   6.999   3.629   4.417 -0.0537  0.3448 -0.0085
  131MOL    C7847138   7.112   3.674   4.503  0.1382 -0.6511 -0.4539
  131MOL    C7947139   7.042   3.492   4.360  0.2680 -0.2216 -0.2901
  131MOL    H8047140   6.846   3.916   4.101 -1.2132  2.0479 -0.6167
  131MOL    H8147141   6.686   3.843   4.132 -1.8169  1.4700  0.2845
  131MOL    H8247142   6.773   3.688   4.298  1.0348 -0.0123  0.3401
  131MOL    H8347143   7.064   3.752   4.246 -2.3228 -2.0030 -3.8249
  131MOL    H8447144   6.970   3.828   4.378  1.1694 -0.3815  0.0443
  131MOL    H8547145   6.914   3.617   4.484  1.1930 -1.0002  1.3753
  131MOL    H8647146   7.205   3.688   4.449 -0.1082 -1.6582 -1.1441
  131MOL    H8747147   7.144   3.593   4.569 -0.1878  0.9889  1.8070
  131MOL    H8847148   7.086   3.763   4.561 -1.6963 -0.7629 -1.0766
  131MOL    H8947149   7.068   3.423   4.441  0.5071  0.9531  0.6524
  131MOL    H9047150   6.960   3.446   4.305 -1.3332  0.7434  1.2548
  131MOL    H9147151   7.131   3.498   4.297  1.1848  0.7532  1.0494
  131MOL    C9247152   6.851   3.635   4.116  0.4790 -0.0169 -0.1570
  131MOL    C9347153   6.945   3.665   3.995 -0.0332  0.4429 -0.0001
  131MOL    C9447154   7.064   3.568   4.007 -0.5640  0.4309  0.1540
  131MOL    C9547155   7.173   3.588   3.903 -0.5322 -0.2230 -0.1189
  131MOL    C9647156   7.239   3.731   3.896  0.4017 -0.5060  0.4204
  131MOL    C9747157   7.291   3.494   3.953 -0.0730 -0.0051 -0.4324
  131MOL    H9847158   6.865   3.536   4.159 -1.1895 -0.1928 -0.0149
  131MOL    H9947159   6.755   3.624   4.066 -1.2867  2.2143  2.6491
  131MOL   H10047160   6.981   3.766   4.008  0.7319  0.3427 -1.2135
  131MOL   H10147161   7.042   3.462   4.013  2.7972 -0.3239  0.2848
  131MOL   H10247162   7.109   3.573   4.106  1.1235 -1.9147 -0.4597
  131MOL   H10347163   7.133   3.556   3.807 -3.2472  1.8975  0.2629
  131MOL   H10447164   7.308   3.757   3.816  0.6211 -0.2806  0.6816
  131MOL   H10547165   7.275   3.757   3.996  0.2541 -2.8730  1.1218
  131MOL   H10647166   7.161   3.806   3.882  0.9410  0.2985  1.5992
  131MOL   H10747167   7.263   3.389   3.951 -0.7818  0.1558  0.6511
  131MOL   H10847168   7.332   3.529   4.047 -0.7202 -1.0898  0.2568
  131MOL   H10947169   7.366   3.494   3.873 -0.7643 -0.0887 -1.0885
  131MOL   C11047170   6.870   3.641   3.860  0.2083 -0.0785 -0.0530
  131MOL   C11147171   6.767   3.755   3.829 -0.6859 -0.0425  0.0341
  131MOL   C11247172   6.806   3.845   3.704 -0.1417  0.0488  0.2308
  131MOL   C11347173   6.892   3.958   3.736 -0.1333 -0.6794 -0.1095
  131MOL   C11447174   6.810   4.089   3.778  0.4174  0.0049 -0.5869
  131MOL   C11547175   6.988   3.993   3.624 -0.0727 -0.0242 -0.1233
  131MOL   H11647176   6.831   3.540   3.871 -0.7102  0.1750 -0.8573
  131MOL   H11747177   6.947   3.632   3.784 -0.6253 -2.0402 -0.6958
  131MOL   H11847178   6.751   3.822   3.914 -0.6182 -0.0359  0.0415
  131MOL   H11947179   6.729   3.884   3.637  0.6979  0.6644 -0.3787
  131MOL   H12047180   6.857   3.795   3.623 -0.4858  0.7326 -0.4128
  131MOL   H12147181   6.957   3.921   3.815 -0.9665  0.8397  1.3253
  131MOL   H12247182   6.743   4.126   3.700  0.3826  1.2535  0.0210
  131MOL   H12347183   6.885   4.160   3.811 -0.7574  1.1037 -0.2201
  131MOL   H12447184   6.755   4.072   3.871 -0.2236  2.2678 -0.5311
  131MOL   H12547185   7.046   4.076   3.664  0.6623 -0.6750  0.1677
  131MOL   H12647186   6.950   4.015   3.524  0.4456  0.6165 -0.1803
  131MOL   H12747187   7.078   3.935   3.605  0.9037  2.1501 -2.4119
  131MOL   C12847188   6.633   3.690   3.798 -0.1837  1.1354  0.5714
  131MOL   C12947189   6.510   3.780   3.755 -0.1576  0.5048  0.3906
  131MOL   C13047190   6.488   3.887   3.863 -0.0968 -0.2686  0.0928
  131MOL   C13147191   6.382   3.996   3.839 -0.2539 -0.3311 -0.1913
  131MOL   C13247192   6.371   4.094   3.956 -0.2796 -0.0595  0.1519
  131MOL   C13347193   6.416   4.071   3.709  0.3664  0.4491 -0.0989
  131MOL   H13447194   6.617   3.628   3.886  0.1027  1.5413  0.9103
  131MOL   H13547195   6.658   3.628   3.712 -2.5117  0.1223  0.5979
  131MOL   H13647196   6.535   3.825   3.659  0.3732 -3.5477 -1.5034
  131MOL   H13747197   6.458   3.836   3.955 -0.3367 -1.6826 -0.7446
  131MOL   H13847198   6.579   3.942   3.884 -0.0456 -0.3738  0.1505
  131MOL   H13947199   6.285   3.946   3.831 -0.3011 -0.1542 -0.8117
  131MOL   H14047200   6.463   4.150   3.970 -0.1966 -0.4535  1.2951
  131MOL   H14147201   6.349   4.050   4.054 -2.7902  1.7571  0.4557
  131MOL   H14247202   6.298   4.168   3.923  0.2742 -0.2231 -1.4755
  131MOL   H14347203   6.362   4.164   3.688  1.2208  0.7895 -0.8618
  131MOL   H14447204   6.513   4.122   3.715 -0.9005  3.3889 -3.1321
  131MOL   H14547205   6.414   4.010   3.619 -2.3573 -0.2356  0.3891
  131MOL   C14647206   6.383   3.690   3.744  0.7393 -0.4373 -0.1264
  131MOL   C14747207   6.387   3.555   3.660  0.1405 -0.3096 -0.3393
  131MOL   C14847208   6.386   3.596   3.505  0.0421  0.0586 -0.9952
  131MOL   C14947209   6.437   3.495   3.404  0.0956 -0.7035  0.2257
  131MOL   C15047210   6.407   3.520   3.259 -0.4769  0.0555  0.4459
  131MOL   C15147211   6.596   3.471   3.413  0.8755 -0.6096  0.4932
  131MOL   H15247212   6.293   3.747   3.722 -0.7306 -1.6604  2.4975
  131MOL   H15347213   6.358   3.657   3.845 -0.3251 -0.6522 -0.4563
  131MOL   H15447214   6.483   3.510   3.683 -1.2028 -1.6038  2.9773
  131MOL   H15547215   6.287   3.618   3.465  1.2295  1.8597 -3.0764
  131MOL   H15647216   6.445   3.687   3.498 -2.5873  1.8063 -1.2666
  131MOL   H15747217   6.392   3.397   3.415 -1.1160 -0.1382  0.3321
  131MOL   H15847218   6.452   3.609   3.214  2.3029  0.1490  3.2579
  131MOL   H15947219   6.304   3.550   3.238  0.5388  2.1601 -1.7924
  131MOL   H16047220   6.429   3.431   3.200  1.7589  0.6943  0.2903
  131MOL   H16147221   6.643   3.569   3.408 -0.6803  0.2020  1.0911
  131MOL   H16247222   6.640   3.423   3.326  1.1423  1.1324 -0.3576
  131MOL   H16347223   6.619   3.430   3.512  0.1751  0.2724  1.0363
  131MOL   C16447224   6.274   3.460   3.713  0.0286 -0.4360 -0.2032
  131MOL   C16547225   6.268   3.311   3.664  0.3825  0.6996 -0.5371
  131MOL   C16647226   6.409   3.240   3.655  0.2060 -0.2060  0.3619
  131MOL   C16747227   6.474   3.201   3.793  0.4532  0.2283  0.2770
  131MOL   C16847228   6.571   3.080   3.788 -0.3367 -0.0754 -0.1864
  131MOL   C16947229   6.554   3.320   3.857 -0.2978  0.4513 -0.3994
  131MOL   H17047230   6.286   3.456   3.822 -0.7678  0.0696 -0.0927
  131MOL   H17147231   6.179   3.508   3.693  0.0850  1.0987  2.8922
  131MOL   H17247232   6.237   3.321   3.560  1.1438  0.5421 -0.7790
  131MOL   H17347233   6.398   3.148   3.597 -0.3083  0.8871 -1.3163
  131MOL   H17447234   6.474   3.301   3.591  0.2643 -2.2839 -1.6557
  131MOL   H17547235   6.395   3.176   3.863 -0.9121 -0.1488 -1.3592
  131MOL   H17647236   6.654   3.095   3.718  1.5695  0.5476  2.1427
  131MOL   H17747237   6.518   2.996   3.744 -0.8265  1.0796 -1.8561
  131MOL   H17847238   6.625   3.046   3.877 -0.2311 -0.2119 -0.3017
  131MOL   H17947239   6.500   3.410   3.886 -0.3394  0.0479  0.8006
  131MOL   H18047240   6.624   3.359   3.782 -1.6699  0.4084 -1.7140
  131MOL   H18147241   6.612   3.292   3.945  0.9674 -0.0673 -1.3741
  131MOL   C18247242   6.151   3.212   3.722  0.8466  0.0462 -0.1507
  131MOL   C18347243   6.011   3.272   3.744 -0.2337  0.9974 -0.6680
  131MOL   C18447244   5.942   3.305   3.614 -0.0779 -0.2751  0.0973
  131MOL   C18547245   5.823   3.403   3.629  0.6309  0.5559 -1.0646
  131MOL   C18647246   5.856   3.541   3.672 -0.1371 -0.0528  0.6854
  131MOL   C18747247   5.754   3.419   3.484 -0.2889  0.5398  0.0692
  131MOL   H18847248   6.183   3.169   3.816  0.6301  0.4405  0.1058
  131MOL   H18947249   6.152   3.135   3.645 -3.9868 -0.5610  0.2491
  131MOL   H19047250   6.026   3.365   3.799  3.1424 -0.1885  0.5532
  131MOL   H19147251   5.906   3.217   3.561  2.4176 -0.6554 -1.0616
  131MOL   H19247252   6.013   3.358   3.550 -1.6697  2.6395  0.6664
  131MOL   H19347253   5.752   3.351   3.693  0.5923  1.7089 -0.1457
  131MOL   H19447254   5.782   3.612   3.637 -0.1251 -0.3500  0.0510
  131MOL   H19547255   5.951   3.564   3.625  0.0286  0.2193  1.1432
  131MOL   H19647256   5.865   3.543   3.781 -1.1968 -1.1777  0.8066
  131MOL   H19747257   5.673   3.492   3.487 -0.1136  0.7696 -0.6992
  131MOL   H19847258   5.705   3.331   3.444  0.8524 -0.0988  0.0483
  131MOL   H19947259   5.831   3.444   3.411 -0.3630 -0.5363 -0.3800
  131MOL   C20047260   5.916   3.178   3.826 -0.3707 -0.2033 -0.2543
  131MOL   C20147261   5.953   3.147   3.974 -0.0513 -0.3700 -0.0606
  131MOL   C20247262   5.857   3.028   4.026 -0.2383 -0.8056  0.3783
  131MOL   C20347263   5.876   2.887   3.965  0.7216 -0.2564  0.1027
  131MOL   C20447264   5.994   2.806   4.020  0.2150 -0.3410  0.3776
  131MOL   C20547265   5.748   2.803   3.969 -0.2008  0.5054 -0.3018
  131MOL   H20647266   5.917   3.090   3.763 -0.1451  0.8325 -1.7192
  131MOL   H20747267   5.812   3.210   3.824 -0.1463  0.4775 -1.3193
  131MOL   H20847268   6.050   3.096   3.977 -0.3124 -0.8126  1.4399
  131MOL   H20947269   5.861   3.028   4.135 -0.9134  3.2048  0.4711
  131MOL   H21047270   5.757   3.061   4.000  0.3922  1.0551  0.2668
  131MOL   H21147271   5.889   2.896   3.857 -1.5431  0.6805 -0.1037
  131MOL   H21247272   5.988   2.792   4.128  1.5292 -1.3048  0.3404
  131MOL   H21347273   6.088   2.854   3.994  0.2142 -1.2638 -1.4401
  131MOL   H21447274   5.999   2.708   3.973 -2.0317  0.5395 -1.8194
  131MOL   H21547275   5.730   2.746   3.878 -2.2114  0.4127  0.1380
  131MOL   H21647276   5.650   2.845   3.989 -0.4551 -0.8864  1.5207
  131MOL   H21747277   5.766   2.727   4.045  2.4680  0.6626 -0.7314
  131MOL   C21847278   5.964   3.266   4.060 -0.0161  0.8205 -0.9657
  131MOL   C21947279   6.025   3.231   4.199  0.5944 -0.4552 -0.1594
  131MOL   C22047280   5.976   3.326   4.310  0.1874  0.3350 -0.0967
  131MOL   C22147281   5.938   3.257   4.440  0.5521  0.2715 -0.4955
  131MOL   C22247282   5.908   3.352   4.556 -0.3625  0.3868  0.2473
  131MOL   C22347283   5.818   3.164   4.441 -0.9836  0.6672 -0.0999
  131MOL   H22447284   6.021   3.348   4.017 -0.1805  1.5286  0.1457
  131MOL   H22547285   5.859   3.297   4.062 -0.8012 -1.7646  0.6918
  131MOL   H22647286   5.999   3.131   4.235  1.2175 -0.6758 -0.3310
  131MOL   H22747287   6.039   3.415   4.311 -1.1440  1.3083  2.5682
  131MOL   H22847288   5.884   3.364   4.267  1.1166  0.8932 -1.6146
  131MOL   H22947289   6.025   3.198   4.468 -1.3732 -2.4979 -0.1205
  131MOL   H23047290   5.978   3.436   4.564  0.4703 -0.3375  0.6687
  131MOL   H23147291   5.808   3.394   4.542 -0.3709 -0.5738 -3.0292
  131MOL   H23247292   5.926   3.292   4.645  2.6105 -2.7751 -2.3389
  131MOL   H23347293   5.723   3.206   4.406 -2.0819  0.4771  2.5866
  131MOL   H23447294   5.840   3.080   4.376 -0.4160  0.1014  0.8216
  131MOL   H23547295   5.806   3.130   4.543  0.6659  0.8462  0.1633
  131MOL   C23647296   6.177   3.229   4.175 -0.6550  0.3077  1.0100
  131MOL   C23747297   6.264   3.148   4.278 -0.4505 -0.4322  0.1323
  131MOL   C23847298   6.410   3.200   4.279  0.1581 -0.3406 -0.0660
  131MOL   C23947299   6.436   3.357   4.296  0.1398  0.3305  0.0922
  131MOL   C24047300   6.345   3.432   4.397  0.1811  0.9531 -0.0626
  131MOL   C24147301   6.584   3.381   4.337  0.4151 -0.6850 -0.2487
  131MOL   H24247302   6.220   3.328   4.163  1.0460 -0.6177 -0.6306
  131MOL   H24347303   6.205   3.197   4.075 -2.6495  1.3042  0.1022
  131MOL   H24447304   6.220   3.171   4.375 -3.1310  0.3491 -1.2098
  131MOL   H24547305   6.455   3.171   4.184  0.7994  0.5183 -0.0298
  131MOL   H24647306   6.476   3.154   4.352  1.8214  1.8921 -0.1170
  131MOL   H24747307   6.421   3.406   4.200 -1.3214  0.5988  0.4463
  131MOL   H24847308   6.246   3.450   4.356 -0.8684 -0.9187  1.5806
  131MOL   H24947309   6.391   3.530   4.411  2.1701  0.4227 -2.3734
  131MOL   H25047310   6.335   3.377   4.490  1.2040 -2.1050 -1.6944
  131MOL   H25147311   6.612   3.330   4.429 -1.1281 -2.0537 -0.5348
  131MOL   H25247312   6.600   3.488   4.351  1.2992 -1.0402  1.6096
  131MOL   H25347313   6.653   3.346   4.260 -0.6799 -2.6186 -0.3684
  131MOL   C25447314   6.261   3.002   4.236 -0.1849 -0.5057  0.4395
  131MOL   C25547315   6.257   2.907   4.356 -0.1406 -0.0490 -0.3961
  131MOL   C25647316   6.107   2.892   4.405 -0.2416 -0.6610 -0.0823
  131MOL   C25747317   6.093   2.843   4.554 -0.1020 -0.2813  0.2277
  131MOL   C25847318   5.944   2.820   4.569  0.5193  0.4836  0.4071
  131MOL   C25947319   6.153   2.931   4.665 -0.3609 -0.6517  0.4285
  131MOL   H26047320   6.160   2.985   4.200  0.1631  0.0813 -0.8595
  131MOL   H26147321   6.333   2.992   4.155 -0.5158 -0.1466  0.0954
  131MOL   H26247322   6.317   2.953   4.435  1.4452 -0.6959 -1.2120
  131MOL   H26347323   6.053   2.826   4.336 -0.0399 -0.5714 -0.3273
  131MOL   H26447324   6.061   2.991   4.403  0.0947 -0.5033  0.0020
  131MOL   H26547325   6.148   2.749   4.561  0.0989 -0.1764  0.0558
  131MOL   H26647326   5.885   2.910   4.587 -2.1154 -1.3097  1.0139
  131MOL   H26747327   5.930   2.754   4.654  3.9683  0.9509  1.4149
  131MOL   H26847328   5.909   2.775   4.476  2.2135 -0.2868  0.1203
  131MOL   H26947329   6.106   3.029   4.664  1.4343  0.2321  0.6056
  131MOL   H27047330   6.144   2.892   4.766  0.1657 -3.7029 -0.6464
  131MOL   H27147331   6.260   2.953   4.658 -0.6320  0.5007 -0.2221
  131MOL   C27247332   6.325   2.775   4.325 -0.1643 -0.9297 -0.3194
  131MOL   C27347333   6.471   2.779   4.267  0.2059 -0.2454  0.1819
  131MOL   C27447334   6.572   2.845   4.369 -0.3551  0.3085 -0.2571
  131MOL   C27547335   6.721   2.856   4.322  0.0516 -0.2341 -0.3623
  131MOL   C27647336   6.811   2.910   4.433 -0.4803 -0.1670 -0.1012
  131MOL   C27747337   6.739   2.934   4.185  0.7112 -0.3869  0.1330
  131MOL   H27847338   6.342   2.727   4.421  1.3531 -1.8007 -1.0082
  131MOL   H27947339   6.262   2.714   4.261  1.8067 -1.4048 -1.8809
  131MOL   H28047340   6.472   2.835   4.173  1.2234 -2.1647 -0.9939
  131MOL   H28147341   6.561   2.788   4.461 -2.2616 -0.7535 -1.1210
  131MOL   H28247342   6.534   2.941   4.403 -0.1137 -0.4441  2.2275
  131MOL   H28347343   6.757   2.754   4.314  1.3517  0.2035 -0.2709
  131MOL   H28447344   6.800   3.015   4.461 -1.2223 -0.2321 -0.1485
  131MOL   H28547345   6.811   2.845   4.520 -1.1072 -1.1332 -0.8140
  131MOL   H28647346   6.910   2.923   4.389 -0.5886  0.4230 -0.1836
  131MOL   H28747347   6.836   2.983   4.177  0.5517 -0.0785  0.0733
  131MOL   H28847348   6.728   2.870   4.097 -4.5748  1.4712 -0.7689
  131MOL   H28947349   6.682   3.027   4.185  1.1076 -0.1403 -0.5796
  131MOL   C29047350   6.517   2.640   4.225 -0.3753 -0.4807  0.1429
  131MOL   C29147351   6.457   2.578   4.096 -0.2864  0.5567  1.1543
  131MOL   C29247352   6.539   2.633   3.976  0.0709  0.2233 -0.3190
  131MOL   C29347353   6.492   2.594   3.831 -0.4005 -0.6345  0.2776
  131MOL   C29447354   6.344   2.642   3.801 -0.0185  0.0941  0.4905
  131MOL   C29547355   6.593   2.659   3.732 -0.3320  0.1323 -0.1427
  131MOL   H29647356   6.625   2.626   4.227  0.2070  3.4353 -0.0247
  131MOL   H29747357   6.493   2.580   4.313  2.3913 -0.3474  1.0398
  131MOL   H29847358   6.352   2.606   4.088  0.3903  2.3536 -2.1177
  131MOL   H29947359   6.633   2.581   3.995 -0.3257  0.0392  1.2383
  131MOL   H30047360   6.567   2.738   3.987  1.8897 -0.1124 -1.4330
  131MOL   H30147361   6.501   2.487   3.813  1.2616 -0.4979  0.2230
  131MOL   H30247362   6.268   2.597   3.865  0.0218 -0.6994 -0.0120
  131MOL   H30347363   6.315   2.617   3.699  0.5722 -0.1588  0.3876
  131MOL   H30447364   6.345   2.750   3.817  2.2813  0.4168 -1.5631
  131MOL   H30547365   6.590   2.768   3.730 -1.3483  0.1025 -0.1686
  131MOL   H30647366   6.569   2.629   3.631  2.3320 -1.0314 -0.4729
  131MOL   H30747367   6.697   2.627   3.735 -0.2459  0.4137 -0.0710
  131MOL   C30847368   6.457   2.422   4.106 -0.3518 -0.8321 -0.4047
  131MOL   C30947369   6.325   2.353   4.133 -0.6961  0.3221 -0.6706
  131MOL   C31047370   6.345   2.211   4.103 -0.4747  0.1693  0.4013
  131MOL   C31147371   6.370   2.160   3.956 -0.0509  0.0044 -0.3331
  131MOL   C31247372   6.343   2.006   3.947  0.7587  0.4455 -0.5546
  131MOL   C31347373   6.293   2.231   3.846 -0.0292  1.0023 -0.4204
  131MOL   H31447374   6.499   2.392   4.010  1.0098  3.0503 -1.1182
  131MOL   H31547375   6.532   2.394   4.179 -0.1501 -0.5128 -0.4870
  131MOL   H31647376   6.256   2.395   4.060  0.2150  2.4505 -0.3419
  131MOL   H31747377   6.245   2.179   4.134 -1.5309  2.6290 -0.3084
  131MOL   H31847378   6.416   2.161   4.169  2.1986  4.5669  1.0727
  131MOL   H31947379   6.476   2.171   3.932 -0.0458  0.3720 -0.1415
  131MOL   H32047380   6.413   1.945   4.005 -0.0813 -0.9024 -0.9297
  131MOL   H32147381   6.362   1.971   3.846  1.0545 -0.1594 -0.2950
  131MOL   H32247382   6.241   1.976   3.970  0.2125  2.2403 -0.5355
  131MOL   H32347383   6.185   2.215   3.845  0.3810 -2.0241 -0.3392
  131MOL   H32447384   6.305   2.340   3.844 -0.6854  1.1474  1.6687
  131MOL   H32547385   6.339   2.194   3.755 -0.1483  1.0912 -0.5165
  131MOL   C32647386   6.274   2.383   4.274 -0.3855  0.0515  0.0435
  131MOL   C32747387   6.124   2.360   4.307  0.0436  0.9916  1.0174
  131MOL   C32847388   6.025   2.463   4.234  0.4033 -0.2832 -0.0949
  131MOL   C32947389   5.914   2.378   4.159 -0.4538  0.2247  0.9159
  131MOL   C33047390   5.785   2.463   4.128 -0.1006  0.5159 -0.7469
  131MOL   C33147391   5.962   2.291   4.034  0.8271 -0.1043 -0.3450
  131MOL   H33247392   6.297   2.485   4.304 -2.4301  0.0616  1.6957
  131MOL   H33347393   6.333   2.316   4.336 -0.5704 -0.7214 -0.6113
  131MOL   H33447394   6.097   2.261   4.271  1.4717  0.7769  0.4726
  131MOL   H33547395   5.979   2.533   4.303 -0.3651 -0.2715 -0.6105
  131MOL   H33647396   6.082   2.526   4.166 -0.9433 -0.5705 -1.5261
  131MOL   H33747397   5.881   2.306   4.234 -0.5769  0.0300  0.6772
  131MOL   H33847398   5.693   2.406   4.134 -0.2129  0.6998 -0.7220
  131MOL   H33947399   5.791   2.509   4.029  1.2154 -0.6594 -1.2310
  131MOL   H34047400   5.771   2.546   4.197 -0.0319 -0.9805  1.0916
  131MOL   H34147401   6.021   2.204   4.060 -0.3452 -0.5698  0.8253
  131MOL   H34247402   5.877   2.244   3.984 -1.9761  3.0203  1.2468
  131MOL   H34347403   6.008   2.361   3.964 -0.9061 -1.4377 -2.9192
  131MOL   C34447404   6.098   2.360   4.456 -0.0554  0.2504 -1.2448
  131MOL   C34547405   6.159   2.236   4.533  0.4617  0.0631 -0.2522
  131MOL   C34647406   6.141   2.259   4.684 -0.4254 -0.5891 -0.5355
  131MOL   C34747407   6.004   2.321   4.738 -0.4502  0.0350  0.1080
  131MOL   C34847408   6.022   2.374   4.881  0.0414  0.6771  0.3922
  131MOL   C34947409   5.883   2.230   4.736  0.1675  0.2677  0.8231
  131MOL   H35047410   5.989   2.364   4.463  0.0123 -0.4881  0.6106
  131MOL   H35147411   6.133   2.456   4.493  0.8497  0.0136 -1.4758
  131MOL   H35247412   6.268   2.229   4.525  0.6700 -0.7534  2.8430
  131MOL   H35347413   6.153   2.164   4.735  0.2085 -0.5303 -0.5681
  131MOL   H35447414   6.220   2.321   4.727 -0.5521 -1.0153  0.3237
  131MOL   H35547415   5.987   2.413   4.682  1.6900  0.5063  0.1955
  131MOL   H35647416   6.043   2.294   4.952 -0.1332  1.2146  1.0527
  131MOL   H35747417   6.103   2.444   4.901 -1.1604  2.1210  0.3043
  131MOL   H35847418   5.937   2.431   4.918 -0.8987 -1.9654  2.4060
  131MOL   H35947419   5.789   2.275   4.769 -1.1282 -1.4174 -0.5055
  131MOL   H36047420   5.892   2.146   4.804 -0.9266  0.4422  1.2080
  131MOL   H36147421   5.859   2.190   4.638 -0.3492  2.3524  0.0713
  131MOL   H36247422   6.113   2.145   4.494  0.5075  0.1743 -0.5722
  132MOL     C147423   2.782   5.834   1.974  0.0580  0.1649  0.0522
  132MOL     C247424   2.890   5.916   2.039  0.7761 -0.3535  0.4639
  132MOL     C347425   2.893   6.061   1.986  0.1107 -0.4152  0.0951
  132MOL     C447426   2.982   6.169   2.050 -0.8920 -0.5622 -0.3473
  132MOL     C547427   2.916   6.212   2.181 -0.0270 -0.4922 -0.1277
  132MOL     C647428   3.009   6.299   1.977 -0.1900 -0.0935  0.2336
  132MOL     H747429   2.775   5.737   2.023  0.7167  0.3825  0.5869
  132MOL     H847430   2.682   5.874   1.988 -0.1107  0.2453 -1.3253
  132MOL     H947431   2.852   5.927   2.140  0.4123  2.4451  0.0699
  132MOL    H1047432   2.906   6.060   1.877  0.2523  1.2052  0.0873
  132MOL    H1147433   2.791   6.100   1.985  0.4078  0.3710 -0.3369
  132MOL    H1247434   3.076   6.131   2.089 -0.5343  1.0206  0.3832
  132MOL    H1347435   2.990   6.264   2.242 -0.1675 -0.4795  0.0325
  132MOL    H1447436   2.829   6.278   2.173 -0.2014 -0.6206  0.6738
  132MOL    H1547437   2.879   6.133   2.247  0.3816  0.1171  0.8536
  132MOL    H1647438   2.917   6.350   1.948  0.8499  1.9823  0.4956
  132MOL    H1747439   3.064   6.294   1.884 -0.5956  0.7541 -0.0603
  132MOL    H1847440   3.063   6.363   2.047 -1.9707  1.2129  0.4731
  132MOL    H1947441   2.805   5.819   1.868  0.4199  1.5388 -0.0761
  132MOL    C2047442   3.034   5.850   2.048 -0.4663 -0.9963  0.2731
  132MOL    C2147443   3.043   5.702   2.091  0.1577  0.0839 -0.4339
  132MOL    C2247444   3.187   5.653   2.091 -0.2019 -0.4354  0.3950
  132MOL    C2347445   3.212   5.529   2.001 -0.0728  0.2079 -0.0893
  132MOL    C2447446   3.182   5.556   1.854  0.0339 -0.4576 -0.3382
  132MOL    C2547447   3.352   5.480   2.015  0.0832  0.3385 -0.1028
  132MOL    H2647448   3.084   5.852   1.951  1.0554 -3.1677  0.9636
  132MOL    H2747449   3.091   5.909   2.119 -1.5587  0.0103  0.3095
  132MOL    H2847450   2.986   5.631   2.031  1.0057  0.4945 -1.7388
  132MOL    H2947451   3.227   5.638   2.191 -0.4235  0.0122  0.5514
  132MOL    H3047452   3.255   5.725   2.045 -0.5196 -1.5885 -1.9752
  132MOL    H3147453   3.143   5.449   2.029  1.8375 -1.0511  1.1350
  132MOL    H3247454   3.077   5.576   1.832  0.2236  2.6079  1.3436
  132MOL    H3347455   3.197   5.464   1.798 -1.0944  0.7213 -2.5956
  132MOL    H3447456   3.250   5.633   1.818  0.6758 -0.3538  1.0509
  132MOL    H3547457   3.366   5.373   2.024  1.0645  0.6342  2.3011
  132MOL    H3647458   3.419   5.521   1.939 -0.9564  0.1020 -1.1621
  132MOL    H3747459   3.409   5.525   2.097  0.8763 -0.7677 -0.0348
  132MOL    C3847460   2.992   5.694   2.237  0.3298 -0.1223 -0.2701
  132MOL    C3947461   2.987   5.554   2.307  0.0639 -0.3115 -0.3794
  132MOL    C4047462   2.849   5.485   2.284  0.4631 -0.5725  0.0651
  132MOL    C4147463   2.853   5.401   2.154 -0.0068  0.6971  0.1117
  132MOL    C4247464   2.714   5.378   2.102 -0.2339 -0.2565  0.1790
  132MOL    C4347465   2.927   5.263   2.159 -0.0766 -0.7205 -0.2839
  132MOL    H4447466   2.897   5.746   2.240  0.0331 -0.7706  3.1542
  132MOL    H4547467   3.060   5.755   2.295  1.3710  0.1420 -1.7223
  132MOL    H4647468   3.070   5.493   2.271  1.3307  1.0982  0.1208
  132MOL    H4747469   2.763   5.553   2.294 -1.2883 -3.0737  2.6528
  132MOL    H4847470   2.835   5.408   2.360 -1.0243 -1.9669 -1.5933
  132MOL    H4947471   2.901   5.452   2.070  0.3120  2.5791  1.3926
  132MOL    H5047472   2.666   5.474   2.088 -2.2060 -0.8856  2.3988
  132MOL    H5147473   2.723   5.327   2.006 -2.5905 -1.1285  0.4003
  132MOL    H5247474   2.648   5.312   2.158  0.4906 -0.1990  1.1020
  132MOL    H5347475   3.031   5.286   2.184 -0.3453  0.9713 -0.6475
  132MOL    H5447476   2.928   5.229   2.056  2.6352  2.3547 -1.3457
  132MOL    H5547477   2.881   5.184   2.220 -0.6085  0.9907  1.5807
  132MOL    C5647478   3.002   5.571   2.457 -0.0566  0.0308  0.1978
  132MOL    C5747479   3.139   5.623   2.509  0.4507 -0.2775  0.1814
  132MOL    C5847480   3.256   5.519   2.497  0.2618 -0.1503  0.3129
  132MOL    C5947481   3.394   5.573   2.532  0.3679 -0.0979 -0.7890
  132MOL    C6047482   3.438   5.672   2.423 -0.6622  0.1529  0.2911
  132MOL    C6147483   3.500   5.466   2.564 -0.2910 -0.8299  0.0594
  132MOL    H6247484   2.985   5.472   2.501  0.3472 -0.0188  0.2464
  132MOL    H6347485   2.924   5.634   2.499  1.2509  0.1245  2.5711
  132MOL    H6447486   3.176   5.706   2.449 -1.7128  1.6405  1.4453
  132MOL    H6547487   3.237   5.440   2.569 -0.8173  0.2764  0.5098
  132MOL    H6647488   3.255   5.478   2.396 -0.5005  0.7386 -0.0500
  132MOL    H6747489   3.388   5.634   2.622  0.1883  0.2191 -1.0186
  132MOL    H6847490   3.537   5.716   2.436 -1.2217  1.8243 -0.9456
  132MOL    H6947491   3.372   5.758   2.411 -1.1976 -0.3726 -0.6164
  132MOL    H7047492   3.453   5.618   2.329  2.1337 -0.9112  1.3149
  132MOL    H7147493   3.599   5.509   2.576  0.4291 -2.6604  0.7778
  132MOL    H7247494   3.509   5.390   2.487 -1.6988 -0.9356 -0.0079
  132MOL    H7347495   3.488   5.418   2.661 -0.5783  0.2036  0.5458
  132MOL    C7447496   3.118   5.686   2.648 -0.0544  0.0728  0.1312
  132MOL    C7547497   3.056   5.829   2.653 -0.0988  0.0646 -0.1726
  132MOL    C7647498   3.170   5.941   2.669 -0.2790 -0.0157  0.5738
  132MOL    C7747499   3.151   6.068   2.590 -0.2335 -0.5398  0.3586
  132MOL    C7847500   3.151   6.033   2.440  0.7175  0.2101  0.4394
  132MOL    C7947501   3.247   6.178   2.621  0.5029 -0.4862  0.3757
  132MOL    H8047502   3.208   5.688   2.709  0.1677 -1.2135 -0.1470
  132MOL    H8147503   3.069   5.617   2.717  0.6569  2.7647  3.4864
  132MOL    H8247504   3.008   5.836   2.555 -0.7578 -1.2254  0.0496
  132MOL    H8347505   3.186   5.950   2.776 -2.5105 -2.9639  1.2088
  132MOL    H8447506   3.264   5.900   2.631  0.0066  0.4615  0.7526
  132MOL    H8547507   3.051   6.110   2.599 -0.4339 -0.9483  0.0604
  132MOL    H8647508   3.243   6.005   2.389 -0.1976  0.8151 -1.6267
  132MOL    H8747509   3.113   6.117   2.382 -3.5408  0.5416  3.4880
  132MOL    H8847510   3.072   5.965   2.405  1.2735 -0.1765 -0.0849
  132MOL    H8947511   3.338   6.168   2.561 -0.8321  0.1378 -1.8186
  132MOL    H9047512   3.202   6.274   2.596 -1.0930 -0.9477  1.3979
  132MOL    H9147513   3.281   6.175   2.724  0.3908 -3.0992  0.3756
  132MOL    C9247514   2.950   5.854   2.758  0.3632  0.7767  0.3327
  132MOL    C9347515   2.803   5.806   2.741  0.2576 -0.1206  0.3102
  132MOL    C9447516   2.729   5.844   2.614 -0.6006 -0.0533  1.0933
  132MOL    C9547517   2.746   5.985   2.560 -0.0698 -0.6426 -0.3596
  132MOL    C9647518   2.695   6.007   2.423 -0.2930  0.9275  0.1683
  132MOL    C9747519   2.687   6.085   2.655 -0.0391  0.9916  0.2124
  132MOL    H9847520   2.985   5.828   2.858  0.7195  2.6516  0.7167
  132MOL    H9947521   2.948   5.963   2.763 -0.0702  0.8527 -1.1508
  132MOL   H10047522   2.746   5.857   2.819 -0.2300 -0.7655  0.3806
  132MOL   H10147523   2.624   5.824   2.636 -0.2559 -1.5472  1.4633
  132MOL   H10247524   2.750   5.769   2.537 -1.7234 -1.8276  2.4764
  132MOL   H10347525   2.851   6.013   2.566  0.0838 -1.3128  0.1256
  132MOL   H10447526   2.586   6.000   2.423 -0.1924 -2.3254 -3.6849
  132MOL   H10547527   2.723   5.919   2.366 -1.9021  0.4018  0.1621
  132MOL   H10647528   2.733   6.098   2.377 -0.8356 -0.3850 -2.9752
  132MOL   H10747529   2.733   6.077   2.753 -1.2656 -0.4358  0.6756
  132MOL   H10847530   2.580   6.068   2.669 -0.3505  0.5066 -2.5510
  132MOL   H10947531   2.697   6.188   2.618 -0.1935  1.3836  1.2440
  132MOL   C11047532   2.797   5.652   2.776  0.4906  0.0935 -0.4184
  132MOL   C11147533   2.656   5.602   2.793 -0.0187  0.4913  0.6279
  132MOL   C11247534   2.651   5.450   2.765  0.5625  0.7569  0.0968
  132MOL   C11347535   2.643   5.400   2.619 -0.1444 -0.2286 -0.1289
  132MOL   C11447536   2.508   5.432   2.553 -0.6779  0.0258 -0.1655
  132MOL   C11547537   2.672   5.255   2.613 -0.3777  0.4207  0.5283
  132MOL   H11647538   2.845   5.639   2.873  2.6970 -0.0531 -1.5038
  132MOL   H11747539   2.852   5.593   2.702  1.5655  0.8453 -0.2241
  132MOL   H11847540   2.592   5.635   2.712  2.5230 -0.3569 -1.8023
  132MOL   H11947541   2.562   5.407   2.812  1.0590 -0.4226 -0.0185
  132MOL   H12047542   2.736   5.403   2.814  2.7289  3.9261 -0.5127
  132MOL   H12147543   2.728   5.451   2.573  0.9568 -1.8182  0.1066
  132MOL   H12247544   2.490   5.540   2.558 -3.2558 -0.4244  0.7024
  132MOL   H12347545   2.425   5.402   2.617  1.9258 -1.3750  2.6577
  132MOL   H12447546   2.493   5.395   2.451  0.4318 -0.6705 -0.0806
  132MOL   H12547547   2.675   5.233   2.506 -1.3284  3.2182 -0.1225
  132MOL   H12647548   2.592   5.204   2.666 -0.8394 -1.2524 -1.6987
  132MOL   H12747549   2.766   5.225   2.659 -0.6093 -1.5294 -0.2269
  132MOL   C12847550   2.600   5.646   2.932  0.3966  0.7328 -0.2338
  132MOL   C12947551   2.445   5.641   2.946 -0.3859  0.2152 -1.0496
  132MOL   C13047552   2.398   5.778   3.003  0.4535 -0.1269  0.7141
  132MOL   C13147553   2.397   5.887   2.895 -0.4714  0.5362 -0.0609
  132MOL   C13247554   2.265   5.894   2.821 -0.2051 -0.0680 -0.6094
  132MOL   C13347555   2.425   6.025   2.947 -0.1766 -0.8790 -0.6474
  132MOL   H13447556   2.642   5.743   2.958 -1.0325  1.6306 -1.1678
  132MOL   H13547557   2.635   5.572   3.004  1.0606  0.6776 -0.6085
  132MOL   H13647558   2.400   5.633   2.847  0.9519  0.1698 -1.6613
  132MOL   H13747559   2.298   5.778   3.046 -0.3217 -1.1599 -1.0152
  132MOL   H13847560   2.453   5.796   3.095  0.3785 -0.3591  0.8047
  132MOL   H13947561   2.482   5.881   2.826 -0.3751  2.7289 -0.1718
  132MOL   H14047562   2.182   5.849   2.874  0.9491 -0.1893  1.1488
  132MOL   H14147563   2.273   5.856   2.719  3.1226 -0.5910 -0.2136
  132MOL   H14247564   2.236   5.998   2.810  1.1329  0.3364 -0.4055
  132MOL   H14347565   2.511   6.026   3.014  1.9275 -1.2758 -3.2423
  132MOL   H14447566   2.461   6.095   2.871 -0.0469  0.6622  0.8098
  132MOL   H14547567   2.339   6.064   3.001  0.5996  1.2182 -0.9052
  132MOL   C14647568   2.393   5.527   3.027 -0.3345  0.0885  0.4148
  132MOL   C14747569   2.240   5.516   3.020  0.2592  0.3983 -0.0148
  132MOL   C14847570   2.198   5.428   3.135  0.0842  0.0439 -0.3317
  132MOL   C14947571   2.216   5.489   3.280 -0.4099  0.3468  0.1918
  132MOL   C15047572   2.151   5.622   3.304  0.0724 -0.4660  0.0983
  132MOL   C15147573   2.164   5.393   3.386 -0.4666  0.5152  0.3919
  132MOL   H15247574   2.421   5.560   3.127  0.6760  2.4504 -0.5946
  132MOL   H15347575   2.450   5.436   3.010 -0.8507 -0.5834  2.2023
  132MOL   H15447576   2.189   5.612   3.030 -1.6905 -0.6950  0.6474
  132MOL   H15547577   2.090   5.415   3.125 -0.1616  2.4143 -1.1486
  132MOL   H15647578   2.227   5.324   3.128 -2.2866 -0.5995 -1.2606
  132MOL   H15747579   2.323   5.500   3.300 -0.3592  0.2937 -0.0509
  132MOL   H15847580   2.046   5.614   3.277 -0.4443 -1.4610  2.3073
  132MOL   H15947581   2.196   5.696   3.237  0.0716  0.5849  1.2356
  132MOL   H16047582   2.163   5.655   3.407  0.7447  0.3538 -0.2332
  132MOL   H16147583   2.184   5.433   3.485 -2.2859  0.8033  0.6586
  132MOL   H16247584   2.211   5.295   3.387 -1.1139  0.2023  0.9615
  132MOL   H16347585   2.055   5.392   3.380 -0.4753  2.1819 -0.1144
  132MOL   C16447586   2.186   5.466   2.878  0.5846 -0.4920 -0.0153
  132MOL   C16547587   2.049   5.400   2.876  0.4056 -0.4074 -0.2788
  132MOL   C16647588   1.941   5.498   2.930  0.2709  0.1486 -0.1829
  132MOL   C16747589   1.801   5.431   2.952 -0.3692 -0.0825  0.3240
  132MOL   C16847590   1.812   5.307   3.046 -0.1314  0.0226 -0.4348
  132MOL   C16947591   1.704   5.533   3.009  0.3263 -0.5773 -0.2946
  132MOL   H17047592   2.192   5.540   2.799 -2.9902  0.2468  0.3413
  132MOL   H17147593   2.261   5.391   2.850  1.8954  0.8726 -0.2256
  132MOL   H17247594   2.048   5.323   2.954  1.1197  1.9913  2.1576
  132MOL   H17347595   1.975   5.556   3.015  3.1282  0.0745 -1.2306
  132MOL   H17447596   1.913   5.578   2.861  0.3272 -1.0633 -1.6374
  132MOL   H17547597   1.760   5.399   2.856  1.3564 -0.7603 -0.2037
  132MOL   H17647598   1.879   5.235   2.998 -1.0448 -0.2185 -1.3631
  132MOL   H17747599   1.715   5.259   3.053  0.3576 -1.1043 -1.2653
  132MOL   H17847600   1.841   5.333   3.148  2.5082  0.1626 -1.1711
  132MOL   H17947601   1.611   5.488   3.046 -0.4461 -0.2671 -1.8065
  132MOL   H18047602   1.673   5.600   2.929  0.0795  0.3411  0.5498
  132MOL   H18147603   1.743   5.594   3.091 -2.6626  1.4258 -0.2502
  132MOL   C18247604   2.007   5.330   2.744  0.1241  0.0080  0.2296
  132MOL   C18347605   2.101   5.227   2.677 -0.3048 -0.7928 -0.4913
  132MOL   C18447606   2.106   5.092   2.761 -0.1537 -0.3062 -0.0840
  132MOL   C18547607   2.227   5.062   2.848 -0.2087 -0.0990  0.5930
  132MOL   C18647608   2.203   4.934   2.936  0.6404  0.0292 -0.0448
  132MOL   C18747609   2.360   5.041   2.765  0.3989  0.3395  0.1268
  132MOL   H18847610   1.985   5.408   2.670  0.9185  1.1073  1.1235
  132MOL   H18947611   1.907   5.287   2.751  1.0894 -2.0701  1.5090
  132MOL   H19047612   2.197   5.277   2.661 -0.3082 -0.4026  0.6435
  132MOL   H19147613   2.094   5.004   2.698  1.1237  0.6160 -1.6728
  132MOL   H19247614   2.023   5.080   2.830 -1.8665 -0.8844 -2.1810
  132MOL   H19347615   2.235   5.148   2.914  1.5241  0.3909 -0.2424
  132MOL   H19447616   2.136   4.935   3.022 -0.7193 -1.6911 -1.0611
  132MOL   H19547617   2.299   4.913   2.984  0.6763 -0.6668 -0.4089
  132MOL   H19647618   2.182   4.847   2.874 -0.3039  0.2532 -0.0400
  132MOL   H19747619   2.358   4.955   2.698 -0.2682  0.3405  0.1418
  132MOL   H19847620   2.444   5.024   2.832 -1.1424 -0.5640  1.9095
  132MOL   H19947621   2.389   5.128   2.707 -1.4837 -0.5005 -2.1290
  132MOL   C20047622   2.056   5.209   2.530  0.1525 -0.4005 -0.1752
  132MOL   C20147623   2.138   5.111   2.437 -0.3386 -0.1937 -0.2639
  132MOL   C20247624   2.258   5.180   2.384  0.2447  0.4719 -0.2494
  132MOL   C20347625   2.345   5.086   2.294 -0.0891 -0.1335 -0.3587
  132MOL   C20447626   2.456   5.176   2.239 -0.0035 -0.3927  0.3031
  132MOL   C20547627   2.404   4.968   2.375  0.2885 -0.2466  0.4371
  132MOL   H20647628   2.046   5.305   2.479 -0.9902 -1.4107 -1.9019
  132MOL   H20747629   1.952   5.176   2.530  0.0681 -0.1588 -1.3807
  132MOL   H20847630   2.153   5.018   2.491 -0.4104  0.6497  1.2273
  132MOL   H20947631   2.231   5.272   2.331 -0.7862  1.2357  1.5516
  132MOL   H21047632   2.322   5.213   2.467  3.2421 -0.2962 -2.1838
  132MOL   H21147633   2.296   5.045   2.206  0.2123  0.7657 -0.9548
  132MOL   H21247634   2.521   5.208   2.320 -1.4882  0.6950  1.0949
  132MOL   H21347635   2.423   5.270   2.194 -0.7000 -1.1005 -0.7005
  132MOL   H21447636   2.513   5.124   2.162  3.2536  2.7974  0.4259
  132MOL   H21547637   2.462   5.004   2.460  0.8453  1.0675 -0.4875
  132MOL   H21647638   2.473   4.903   2.321  0.6223  0.2301  0.2945
  132MOL   H21747639   2.333   4.896   2.418 -0.2019 -1.9201 -3.0261
  132MOL   C21847640   2.045   5.067   2.317 -0.1671 -0.2849 -0.5990
  132MOL   C21947641   1.937   4.966   2.364  0.0259 -0.4890 -0.4071
  132MOL   C22047642   1.994   4.822   2.354 -0.0736  0.9676 -0.2009
  132MOL   C22147643   1.915   4.715   2.438  0.8997 -0.0401  0.3563
  132MOL   C22247644   1.966   4.573   2.414 -0.0597 -0.1792  0.9234
  132MOL   C22347645   1.903   4.735   2.596  0.0844 -1.2216  0.5348
  132MOL   H22447646   2.006   5.159   2.273  1.2449  0.9231  0.6296
  132MOL   H22547647   2.101   5.015   2.239  0.1950  0.9046 -1.1400
  132MOL   H22647648   1.903   4.983   2.466  2.1584 -2.0330  0.5893
  132MOL   H22747649   1.996   4.785   2.251 -1.8743 -2.0654  0.7639
  132MOL   H22847650   2.094   4.823   2.398 -1.0700  0.5682  2.1796
  132MOL   H22947651   1.814   4.721   2.398  0.3569 -0.8713  1.5692
  132MOL   H23047652   2.072   4.554   2.427 -0.2110 -0.5658  1.5682
  132MOL   H23147653   1.914   4.503   2.478 -2.1053  0.6039  0.1838
  132MOL   H23247654   1.940   4.557   2.309  3.0913  1.6800 -0.2140
  132MOL   H23347655   2.004   4.739   2.639 -0.6552 -1.0274  2.3243
  132MOL   H23447656   1.860   4.833   2.614 -0.5093 -0.9272 -2.2824
  132MOL   H23547657   1.841   4.658   2.644 -1.1579 -0.9683 -0.6439
  132MOL   C23647658   1.802   4.981   2.278 -0.1419 -0.0572 -0.1014
  132MOL   C23747659   1.709   5.098   2.334 -0.1174  0.4561 -0.0545
  132MOL   C23847660   1.613   5.047   2.436  0.1843  0.7197 -0.0333
  132MOL   C23947661   1.543   5.154   2.520  0.0628 -0.0374  0.2789
  132MOL   C24047662   1.435   5.085   2.603 -0.0750 -0.2531  0.8094
  132MOL   C24147663   1.643   5.217   2.615  0.3053 -0.2714  0.1164
  132MOL   H24247664   1.754   4.885   2.256 -1.4922  0.7551 -0.7500
  132MOL   H24347665   1.825   5.016   2.177  0.2932  0.0622  0.0383
  132MOL   H24447666   1.776   5.174   2.374  0.4299 -0.2609  0.4110
  132MOL   H24547667   1.658   4.962   2.488  1.0538  1.7466  0.8988
  132MOL   H24647668   1.540   4.985   2.384  1.3977 -1.3048  0.6323
  132MOL   H24747669   1.498   5.228   2.453 -0.7888 -1.4608 -0.7629
  132MOL   H24847670   1.383   5.164   2.659 -1.7914 -1.1857  0.5564
  132MOL   H24947671   1.477   5.020   2.679  1.3613  0.6976  0.8360
  132MOL   H25047672   1.357   5.028   2.552  0.3425  0.4899 -0.7003
  132MOL   H25147673   1.713   5.137   2.641  3.0676  0.7095 -3.9010
  132MOL   H25247674   1.595   5.259   2.704 -1.4909 -0.2307 -0.8564
  132MOL   H25347675   1.701   5.299   2.573 -0.3822 -0.9647 -2.2160
  132MOL   C25447676   1.631   5.168   2.219 -0.5224  0.8546  0.0230
  132MOL   C25547677   1.711   5.258   2.122  0.2908 -0.3407 -0.4841
  132MOL   C25647678   1.626   5.278   1.992 -0.2613 -0.0068 -0.0295
  132MOL   C25747679   1.595   5.148   1.914  0.3400  0.1923  0.1661
  132MOL   C25847680   1.714   5.053   1.891  0.0528  0.0616 -0.4276
  132MOL   C25947681   1.527   5.173   1.777  0.3610 -0.8847  0.6798
  132MOL   H26047682   1.588   5.083   2.166 -0.7344  1.1814 -0.3344
  132MOL   H26147683   1.543   5.227   2.244  0.0118  0.4467  3.0893
  132MOL   H26247684   1.802   5.205   2.093 -0.8914 -2.8617  0.1892
  132MOL   H26347685   1.664   5.355   1.925  0.0456 -0.0022  0.1509
  132MOL   H26447686   1.534   5.332   2.017 -1.4843 -0.8719 -2.5092
  132MOL   H26547687   1.522   5.093   1.972 -0.2537 -0.4906 -1.2011
  132MOL   H26647688   1.698   4.979   1.812 -0.9335 -0.3508  0.1562
  132MOL   H26747689   1.728   4.991   1.979  4.8248  1.2372 -0.2265
  132MOL   H26847690   1.812   5.098   1.876 -0.8390  1.7248 -1.4366
  132MOL   H26947691   1.599   5.214   1.705 -0.0747 -1.1373  0.0989
  132MOL   H27047692   1.491   5.080   1.735 -0.7407  0.4164 -1.3643
  132MOL   H27147693   1.445   5.245   1.785  0.7773 -0.4435  1.0003
  132MOL   C27247694   1.741   5.394   2.186  0.3840 -0.6404 -0.4679
  132MOL   C27347695   1.843   5.486   2.108 -0.1102  0.8062  0.5092
  132MOL   C27447696   1.797   5.631   2.074  1.0509 -0.4808  0.2697
  132MOL   C27547697   1.667   5.637   1.998  0.2153 -0.1009  0.3124
  132MOL   C27647698   1.698   5.630   1.846  0.1145 -0.2454  0.0905
  132MOL   C27747699   1.603   5.773   2.042 -0.1670 -0.3219  0.0301
  132MOL   H27847700   1.646   5.446   2.195 -0.0474 -1.1769 -1.7846
  132MOL   H27947701   1.777   5.391   2.289  1.6263 -1.6641 -0.9143
  132MOL   H28047702   1.852   5.444   2.008  0.9524  0.0079  0.9269
  132MOL   H28147703   1.882   5.678   2.025  2.0299  0.1796  2.5361
  132MOL   H28247704   1.788   5.682   2.170  1.4563 -0.5585  0.3492
  132MOL   H28347705   1.599   5.557   2.027 -0.3545  0.1298 -0.3485
  132MOL   H28447706   1.602   5.638   1.795  1.0900  2.0726 -1.4676
  132MOL   H28547707   1.768   5.712   1.829 -2.6786  2.6694  1.9452
  132MOL   H28647708   1.729   5.532   1.813  1.3662 -0.6231  2.2946
  132MOL   H28747709   1.675   5.854   2.034  1.7346 -2.0252 -0.6957
  132MOL   H28847710   1.520   5.798   1.977 -0.8949 -0.2842  0.9596
  132MOL   H28947711   1.568   5.756   2.144  2.9013 -4.2758  0.5639
  132MOL   C29047712   1.990   5.476   2.166  0.3638  0.0184  0.1672
  132MOL   C29147713   2.102   5.480   2.057 -0.0276 -0.0558 -0.4151
  132MOL   C29247714   2.247   5.537   2.095  0.4267  0.0580  0.0983
  132MOL   C29347715   2.247   5.685   2.143 -0.3108  0.5438  0.5821
  132MOL   C29447716   2.369   5.702   2.233 -0.0406 -0.5129 -0.2146
  132MOL   C29547717   2.249   5.786   2.025 -0.1490  0.4736  0.4131
  132MOL   H29647718   2.001   5.558   2.237 -1.4544  1.5856 -1.3170
  132MOL   H29747719   2.015   5.396   2.236  0.9751  0.5793  0.5993
  132MOL   H29847720   2.067   5.548   1.980  2.2200  0.2906 -1.1793
  132MOL   H29947721   2.317   5.542   2.011  0.0614  2.2163 -0.1072
  132MOL   H30047722   2.282   5.469   2.172 -0.0807 -1.6185 -1.1159
  132MOL   H30147723   2.164   5.701   2.212  1.1918 -2.3954  3.2522
  132MOL   H30247724   2.355   5.649   2.327  1.3233 -0.0705  0.2414
  132MOL   H30347725   2.388   5.809   2.246  0.9542 -0.3840 -2.4890
  132MOL   H30447726   2.458   5.665   2.183  2.3364  3.9950  0.4041
  132MOL   H30547727   2.178   5.768   1.944 -0.7049 -1.0856  1.2359
  132MOL   H30647728   2.341   5.785   1.968 -0.1394  0.1698  0.4380
  132MOL   H30747729   2.234   5.885   2.068 -0.8234  1.5148 -2.1122
  132MOL   C30847730   2.109   5.336   1.993  0.0521 -0.3077 -0.6375
  132MOL   C30947731   2.143   5.324   1.847  0.3694  0.7139  0.3002
  132MOL   C31047732   2.193   5.180   1.823 -0.2256 -0.1682  0.4748
  132MOL   C31147733   2.333   5.146   1.872 -0.0343  0.5661 -0.2338
  132MOL   C31247734   2.362   5.000   1.868  0.4701  0.6489  0.6911
  132MOL   C31347735   2.433   5.217   1.782 -0.4872  0.3225  0.3186
  132MOL   H31447736   2.183   5.283   2.053  0.3449  0.7990 -0.0071
  132MOL   H31547737   2.019   5.280   2.017 -0.6566  0.6628 -0.9626
  132MOL   H31647738   2.216   5.398   1.814 -0.7592  1.8766  0.4239
  132MOL   H31747739   2.181   5.147   1.720  1.7331  3.0142 -0.8516
  132MOL   H31847740   2.126   5.104   1.863  0.5465 -0.7506  0.6631
  132MOL   H31947741   2.358   5.196   1.966 -2.8302 -0.5960  1.1873
  132MOL   H32047742   2.306   4.957   1.952 -0.3954  0.5442  0.0669
  132MOL   H32147743   2.467   4.972   1.876 -0.2703 -1.6771  3.0296
  132MOL   H32247744   2.318   4.963   1.775  2.6629 -0.9882  0.2818
  132MOL   H32347745   2.427   5.170   1.683  0.3228 -0.0437  0.4426
  132MOL   H32447746   2.417   5.325   1.784 -0.2058  0.3968 -0.7661
  132MOL   H32547747   2.529   5.194   1.826 -1.4695 -0.8132  1.9104
  132MOL   C32647748   2.022   5.351   1.756  0.0948  0.0550 -0.1006
  132MOL   C32747749   2.044   5.373   1.609 -0.5355  0.0023 -0.1638
  132MOL   C32847750   2.019   5.527   1.565  0.1099 -0.7099 -0.5040
  132MOL   C32947751   2.135   5.618   1.625  1.0621  0.4087  0.3633
  132MOL   C33047752   2.268   5.583   1.561 -0.4100 -0.0108 -0.3792
  132MOL   C33147753   2.086   5.761   1.590 -0.2025 -0.1286  0.4256
  132MOL   H33247754   1.979   5.441   1.799 -1.5163 -0.6525 -0.2081
  132MOL   H33347755   1.963   5.262   1.778 -0.8366  0.4460 -0.9918
  132MOL   H33447756   2.146   5.340   1.594  0.1915  2.3135 -0.5802
  132MOL   H33547757   2.028   5.521   1.456  2.1554 -1.3736 -0.3243
  132MOL   H33647758   1.925   5.577   1.585  1.3748  1.7886 -0.6120
  132MOL   H33747759   2.135   5.618   1.734 -1.4137  0.8326  0.4010
  132MOL   H33847760   2.258   5.539   1.462  0.1295 -1.4286  0.1847
  132MOL   H33947761   2.311   5.500   1.617  0.3558  0.0109 -0.9236
  132MOL   H34047762   2.340   5.665   1.563  1.8060 -1.8995 -0.2136
  132MOL   H34147763   1.986   5.787   1.626 -0.6176  1.2706 -1.7245
  132MOL   H34247764   2.157   5.836   1.623 -0.2072  1.1944 -2.4583
  132MOL   H34347765   2.086   5.762   1.481 -1.8987 -4.4726  0.2440
  132MOL   C34447766   1.957   5.288   1.512 -0.4928  0.2145 -0.5263
  132MOL   C34547767   1.970   5.131   1.518  0.2495  0.1531 -0.2143
  132MOL   C34647768   1.886   5.068   1.411 -0.8488 -0.2372  0.3135
  132MOL   C34747769   1.859   4.921   1.436 -0.6888  0.3242 -0.0314
  132MOL   C34847770   1.976   4.829   1.444  0.4905 -0.5190  0.1994
  132MOL   C34947771   1.774   4.866   1.326  0.6869  0.7147 -0.2555
  132MOL   H35047772   1.975   5.328   1.412  0.7677  1.4980  0.1871
  132MOL   H35147773   1.853   5.316   1.532  0.4003  2.6806  0.9715
  132MOL   H35247774   1.922   5.098   1.610 -2.8372  2.3762 -0.9548
  132MOL   H35347775   1.786   5.111   1.413 -0.0245  1.7660 -0.8441
  132MOL   H35447776   1.932   5.102   1.319  2.4319 -2.4370  1.0592
  132MOL   H35547777   1.806   4.910   1.530 -0.6406  1.2661  0.1093
  132MOL   H35647778   1.938   4.733   1.481 -0.2520  0.5065  2.1648
  132MOL   H35747779   2.035   4.827   1.353 -3.0197 -1.3563 -2.1408
  132MOL   H35847780   2.039   4.857   1.529  2.4125  0.2771 -1.4652
  132MOL   H35947781   1.821   4.890   1.230  1.7207  0.4322  0.1727
  132MOL   H36047782   1.673   4.901   1.307 -0.9174 -2.1162  2.6134
  132MOL   H36147783   1.755   4.759   1.321  0.2779  0.8256 -1.2295
  132MOL   H36247784   2.075   5.100   1.510  0.7944  2.1241 -1.1862
  133MOL     C147785   1.598   7.280   3.043  0.0724 -0.1294  0.3876
  133MOL     C247786   1.499   7.376   3.100  0.4621 -0.2245 -0.4934
  133MOL     C347787   1.560   7.457   3.219  0.0276 -0.3873  0.1033
  133MOL     C447788   1.689   7.542   3.196 -0.7271 -0.4479 -0.2172
  133MOL     C547789   1.775   7.541   3.332  0.3943 -0.4863 -0.0082
  133MOL     C647790   1.648   7.681   3.140 -0.0184  0.0634 -0.4990
  133MOL     H747791   1.680   7.333   2.995 -0.0669  0.4264  0.7482
  133MOL     H847792   1.631   7.215   3.124  2.2450 -1.2155 -1.3336
  133MOL     H947793   1.476   7.446   3.019  2.5458  0.6554 -0.3475
  133MOL    H1047794   1.476   7.520   3.246 -2.4963 -2.5658 -2.3911
  133MOL    H1147795   1.570   7.385   3.301  0.9636  0.2394  0.5522
  133MOL    H1247796   1.757   7.501   3.121 -1.6551 -1.8748 -0.2930
  133MOL    H1347797   1.881   7.558   3.310 -0.0764  0.0063 -1.9675
  133MOL    H1447798   1.754   7.630   3.391 -1.9180  0.5994 -2.3692
  133MOL    H1547799   1.761   7.443   3.377  0.5710 -0.4241  0.1837
  133MOL    H1647800   1.596   7.676   3.044 -0.3872  0.6425 -0.3305
  133MOL    H1747801   1.730   7.750   3.123  0.5709 -0.6765 -0.6922
  133MOL    H1847802   1.579   7.725   3.212 -1.2052  1.2710 -2.3320
  133MOL    H1947803   1.566   7.217   2.961  3.0644 -1.7958  0.4547
  133MOL    C2047804   1.368   7.307   3.142  0.0490  0.5269  0.8756
  133MOL    C2147805   1.295   7.221   3.031  0.2507 -0.0146 -0.1614
  133MOL    C2247806   1.199   7.126   3.103 -0.1201 -0.2338  0.4180
  133MOL    C2347807   1.245   6.987   3.125  0.8942 -0.4497  0.8512
  133MOL    C2447808   1.261   6.891   3.006  0.0949  0.3681  0.3574
  133MOL    C2547809   1.366   6.979   3.226 -0.3524 -1.1460  0.3937
  133MOL    H2647810   1.394   7.246   3.229  0.0844 -3.0598 -1.5692
  133MOL    H2747811   1.296   7.378   3.184 -1.2860 -0.0488 -0.3959
  133MOL    H2847812   1.367   7.153   2.984  0.9910 -0.7438  1.9780
  133MOL    H2947813   1.102   7.118   3.053  0.2529 -1.3303 -0.1534
  133MOL    H3047814   1.164   7.166   3.198 -2.2319  0.3975 -0.6052
  133MOL    H3147815   1.166   6.947   3.188 -0.2818  0.7212  0.1300
  133MOL    H3247816   1.164   6.857   2.970  0.6019 -0.8739  0.1413
  133MOL    H3347817   1.306   6.797   3.037 -0.0691  0.5884  1.3105
  133MOL    H3447818   1.311   6.942   2.924 -2.1297  2.9010  0.5138
  133MOL    H3547819   1.398   6.879   3.255 -0.7779 -1.7621 -1.1990
  133MOL    H3647820   1.454   7.024   3.180 -0.2517 -2.2207 -0.4960
  133MOL    H3747821   1.340   7.033   3.317 -0.7303  0.7247 -0.7954
  133MOL    C3847822   1.224   7.303   2.921  0.2582 -0.0319 -0.1446
  133MOL    C3947823   1.189   7.222   2.792  0.1851 -0.5826 -0.4395
  133MOL    C4047824   1.316   7.191   2.706  0.3043 -0.4363  0.1425
  133MOL    C4147825   1.294   7.085   2.594 -0.3878 -0.5011 -0.6071
  133MOL    C4247826   1.231   6.952   2.640 -0.3651 -0.8042  0.0567
  133MOL    C4347827   1.429   7.080   2.506 -0.0865 -0.1503  0.3550
  133MOL    H4447828   1.286   7.386   2.888  2.2841 -1.8191 -0.9279
  133MOL    H4547829   1.133   7.347   2.962  0.5342  0.4047  0.0029
  133MOL    H4647830   1.150   7.133   2.841 -0.2960 -0.6999 -1.0343
  133MOL    H4747831   1.399   7.164   2.772 -2.8163 -2.7617  3.3603
  133MOL    H4847832   1.343   7.289   2.668  1.0803 -0.4811  0.5672
  133MOL    H4947833   1.217   7.135   2.535  0.5436  2.4966  0.6260
  133MOL    H5047834   1.176   6.912   2.555  1.2112 -0.1737 -1.3016
  133MOL    H5147835   1.309   6.882   2.671  0.5108  0.2291  0.2250
  133MOL    H5247836   1.167   6.978   2.724 -1.5906  1.6864 -1.5881
  133MOL    H5347837   1.434   6.990   2.444  0.9058  0.3407 -0.2851
  133MOL    H5447838   1.517   7.064   2.568 -0.0389 -0.0182  0.3216
  133MOL    H5547839   1.440   7.173   2.451 -0.2948 -0.4858 -0.2574
  133MOL    C5647840   1.068   7.292   2.718 -0.4434  0.2144 -0.5972
  133MOL    C5747841   0.944   7.205   2.679  0.5956 -0.1623 -0.4598
  133MOL    C5847842   0.863   7.283   2.576 -0.0490  0.2022  0.4225
  133MOL    C5947843   0.913   7.271   2.436 -0.5133 -0.5966  0.1790
  133MOL    C6047844   0.870   7.393   2.349 -0.2106  0.4361 -0.8591
  133MOL    C6147845   0.871   7.136   2.376 -0.0148 -0.2773  0.5910
  133MOL    H6247846   1.108   7.339   2.628  2.7743 -2.3738 -0.6163
  133MOL    H6347847   1.032   7.382   2.768  0.6720  1.8387 -2.6208
  133MOL    H6447848   0.977   7.113   2.630 -0.5852 -1.3668  0.9217
  133MOL    H6547849   0.759   7.251   2.585 -0.6066  1.9667  0.3863
  133MOL    H6647850   0.854   7.388   2.602  0.4421 -0.0851  1.8021
  133MOL    H6747851   1.021   7.286   2.439 -0.6572  0.5374 -0.1803
  133MOL    H6847852   0.761   7.401   2.357 -0.0451  1.0512  0.9220
  133MOL    H6947853   0.902   7.367   2.248  0.6718 -0.1178 -0.4342
  133MOL    H7047854   0.911   7.483   2.395  0.9195 -0.5324  0.0686
  133MOL    H7147855   0.768   7.140   2.341  0.1165 -0.1241  0.2113
  133MOL    H7247856   0.868   7.049   2.442  0.8290  2.1062  3.8584
  133MOL    H7347857   0.937   7.113   2.292 -1.0246  3.5605 -1.3504
  133MOL    C7447858   0.852   7.175   2.800  0.4811 -0.0586  1.0370
  133MOL    C7547859   0.763   7.045   2.788 -0.4452  0.0100  0.4249
  133MOL    C7647860   0.635   7.064   2.868 -0.3155  0.0423 -0.1274
  133MOL    C7747861   0.522   7.151   2.809 -0.5102 -0.0053  0.2825
  133MOL    C7847862   0.412   7.180   2.917  0.6287 -0.6447  0.1136
  133MOL    C7947863   0.454   7.076   2.693 -0.2875  0.3467  0.6215
  133MOL    H8047864   0.795   7.266   2.818  0.3571 -0.0403  0.5443
  133MOL    H8147865   0.914   7.149   2.886  0.4389 -0.9619  0.7965
  133MOL    H8247866   0.740   7.034   2.683  0.9677  1.2187 -0.0319
  133MOL    H8347867   0.593   6.966   2.887  0.7997 -0.0132  2.2587
  133MOL    H8447868   0.656   7.101   2.968 -0.0835 -2.8662  0.9448
  133MOL    H8547869   0.584   7.238   2.788  1.5017 -1.2898  0.8176
  133MOL    H8647870   0.442   7.213   3.016 -0.4941 -0.2989  0.3520
  133MOL    H8747871   0.365   7.083   2.934  1.6850 -0.9865  1.1623
  133MOL    H8847872   0.342   7.252   2.875  0.5957 -0.0009  1.2485
  133MOL    H8947873   0.382   7.144   2.648 -0.3206 -1.3535 -1.9962
  133MOL    H9047874   0.516   7.048   2.608 -1.0082  0.5850  0.0155
  133MOL    H9147875   0.405   6.984   2.727  2.2797 -1.6210 -0.8925
  133MOL    C9247876   0.838   6.923   2.848 -0.0211 -0.4637  0.2831
  133MOL    C9347877   0.830   6.786   2.776  0.0006  0.1099  0.3131
  133MOL    C9447878   0.915   6.687   2.849  0.1063 -0.6639 -0.3349
  133MOL    C9547879   0.881   6.636   2.995 -0.4287  0.1242 -0.7091
  133MOL    C9647880   0.811   6.499   2.986 -0.2302 -0.2031  0.2194
  133MOL    C9747881   1.000   6.638   3.096 -0.4845  0.3822  0.0119
  133MOL    H9847882   0.945   6.940   2.841  0.1729 -1.6257  0.2334
  133MOL    H9947883   0.828   6.908   2.956 -1.0529  1.8605  0.5429
  133MOL   H10047884   0.872   6.805   2.677 -0.6200 -1.3765 -0.2619
  133MOL   H10147885   1.012   6.736   2.847 -0.7705  1.1657  0.4447
  133MOL   H10247886   0.933   6.602   2.784  1.0362 -0.8674  0.1732
  133MOL   H10347887   0.797   6.694   3.033 -0.3096 -0.4951  0.5209
  133MOL   H10447888   0.878   6.425   2.942 -0.6538  0.6060 -1.8322
  133MOL   H10547889   0.726   6.493   2.919  0.1758  2.5675 -0.5896
  133MOL   H10647890   0.780   6.450   3.079 -0.7663  0.0476  0.1755
  133MOL   H10747891   0.974   6.592   3.192 -3.2634 -0.2671 -0.9849
  133MOL   H10847892   1.026   6.742   3.114  0.5914 -0.0896  1.2896
  133MOL   H10947893   1.083   6.572   3.074  0.3707  1.1992  0.7485
  133MOL   C11047894   0.684   6.736   2.752  0.0766 -0.1119 -0.1841
  133MOL   C11147895   0.663   6.621   2.651  0.4172  0.0373  0.3561
  133MOL   C11247896   0.518   6.574   2.645 -0.2652 -0.4213 -0.2491
  133MOL   C11347897   0.483   6.469   2.749  0.2458  0.1223 -0.1052
  133MOL   C11447898   0.558   6.334   2.733 -0.0825 -0.0652  0.4395
  133MOL   C11547899   0.334   6.446   2.771  0.4180 -0.0336  0.2978
  133MOL   H11647900   0.623   6.819   2.716  1.7290  0.6450 -1.3226
  133MOL   H11747901   0.655   6.712   2.854 -0.4521  0.4681 -0.1966
  133MOL   H11847902   0.728   6.536   2.674  0.8354 -0.5541 -2.8483
  133MOL   H11947903   0.503   6.530   2.547 -0.7315  1.1343 -0.8925
  133MOL   H12047904   0.454   6.662   2.651 -0.9431 -1.0272  1.6622
  133MOL   H12147905   0.512   6.504   2.849  0.6813  1.3922 -0.6705
  133MOL   H12247906   0.573   6.281   2.827  0.6351 -2.2240 -0.8623
  133MOL   H12347907   0.656   6.334   2.685 -0.8381 -1.0401 -1.1663
  133MOL   H12447908   0.499   6.259   2.680 -0.4421 -1.3649  2.6505
  133MOL   H12547909   0.311   6.363   2.837 -1.2256  0.3916  0.2833
  133MOL   H12647910   0.287   6.420   2.676  2.7881 -0.7171 -0.7262
  133MOL   H12747911   0.291   6.534   2.819  0.0988  1.0398 -1.8695
  133MOL   C12847912   0.707   6.661   2.502 -0.2489  0.0426  0.0697
  133MOL   C12947913   0.738   6.558   2.393  0.4195 -0.2941  0.5058
  133MOL   C13047914   0.622   6.530   2.289 -0.4179  0.5448  0.0389
  133MOL   C13147915   0.663   6.520   2.142 -0.2892  0.0329  0.5019
  133MOL   C13247916   0.548   6.466   2.054  0.5174  0.2936 -0.3533
  133MOL   C13347917   0.712   6.664   2.087 -0.1745 -0.9462  0.4729
  133MOL   H13447918   0.795   6.725   2.501 -0.6364  0.5732 -0.8854
  133MOL   H13547919   0.630   6.721   2.452 -0.4383 -0.0155  0.2912
  133MOL   H13647920   0.814   6.616   2.341 -0.6773  0.6931 -0.0356
  133MOL   H13747921   0.579   6.435   2.321  2.6881 -0.4628  1.4083
  133MOL   H13847922   0.541   6.600   2.306 -0.7065 -0.2507  2.0648
  133MOL   H13947923   0.752   6.460   2.123 -0.9842 -1.4250  1.7229
  133MOL   H14047924   0.461   6.532   2.049 -1.0553 -1.7941 -1.9164
  133MOL   H14147925   0.499   6.376   2.093 -1.2425  1.7489  0.8837
  133MOL   H14247926   0.576   6.441   1.951 -0.1807  0.8725 -0.6886
  133MOL   H14347927   0.714   6.663   1.978 -0.9896 -0.4166  0.4509
  133MOL   H14447928   0.643   6.745   2.108 -0.1215 -0.7397 -0.1292
  133MOL   H14547929   0.803   6.690   2.141 -0.8027 -0.4028  1.2829
  133MOL   C14647930   0.820   6.434   2.429 -0.6395  0.1046  0.8325
  133MOL   C14747931   0.972   6.462   2.462  0.6138 -0.0481 -0.4981
  133MOL   C14847932   1.059   6.482   2.340 -0.4014 -0.1875  0.0272
  133MOL   C14947933   1.165   6.595   2.365 -0.2451  0.6832 -0.2425
  133MOL   C15047934   1.279   6.590   2.259 -0.0873  0.6152  0.3245
  133MOL   C15147935   1.109   6.739   2.362 -0.0841 -0.5432 -0.3875
  133MOL   H15247936   0.815   6.345   2.366 -0.1138 -0.7432  1.9536
  133MOL   H15347937   0.779   6.397   2.523 -1.7193 -1.5560 -0.2628
  133MOL   H15447938   0.952   6.558   2.510 -2.1015 -1.9290  2.3825
  133MOL   H15547939   1.108   6.388   2.316  0.0292  0.4646 -1.6964
  133MOL   H15647940   1.001   6.516   2.254 -0.3770 -1.0985 -0.3568
  133MOL   H15747941   1.214   6.585   2.462 -1.8859 -2.5492  0.3308
  133MOL   H15847942   1.343   6.509   2.295 -0.9936  0.0181  0.6118
  133MOL   H15947943   1.337   6.680   2.241  0.6210 -0.0745 -0.9316
  133MOL   H16047944   1.247   6.569   2.157 -0.6422  1.6885  0.2761
  133MOL   H16147945   1.057   6.755   2.456 -0.3396  2.9786 -1.0589
  133MOL   H16247946   1.034   6.751   2.284 -1.2880  0.2894  0.8714
  133MOL   H16347947   1.192   6.810   2.366 -0.5076 -0.1097  1.3508
  133MOL   C16447948   1.024   6.357   2.570 -0.5089 -0.0997 -0.1404
  133MOL   C16547949   1.171   6.359   2.622 -0.1083 -0.2956  0.0334
  133MOL   C16647950   1.207   6.470   2.720  0.2304  0.5593 -0.0110
  133MOL   C16747951   1.361   6.496   2.761  0.2824  0.9416  0.0627
  133MOL   C16847952   1.435   6.550   2.640 -0.5094 -0.3976  0.0647
  133MOL   C16947953   1.371   6.590   2.878 -0.8224  0.4022  0.1251
  133MOL   H17047954   0.964   6.355   2.661 -0.5985 -2.2844 -0.2031
  133MOL   H17147955   1.008   6.259   2.524 -1.5942  0.5431 -1.1209
  133MOL   H17247956   1.227   6.370   2.529 -0.9447 -1.4030 -0.6119
  133MOL   H17347957   1.155   6.561   2.692  1.4697  1.4495  0.5198
  133MOL   H17447958   1.162   6.456   2.819 -0.6215 -0.1311 -0.4900
  133MOL   H17547959   1.404   6.402   2.796 -0.3555  1.0176  1.0727
  133MOL   H17647960   1.415   6.655   2.615 -0.2874 -0.9107 -2.3833
  133MOL   H17747961   1.423   6.479   2.558  0.2114  0.2341 -0.6020
  133MOL   H17847962   1.542   6.556   2.663 -0.7818 -0.5183  1.3994
  133MOL   H17947963   1.315   6.682   2.858  0.5552  0.8112 -2.0391
  133MOL   H18047964   1.476   6.606   2.901 -0.7845  2.0924 -1.1237
  133MOL   H18147965   1.330   6.539   2.965 -0.4682 -0.5437 -0.2552
  133MOL   C18247966   1.210   6.221   2.680  0.7370  0.4460  0.2901
  133MOL   C18347967   1.345   6.164   2.640 -0.3720  0.1985  0.3549
  133MOL   C18447968   1.376   6.050   2.748  0.0583 -0.3472  1.1188
  133MOL   C18547969   1.440   6.094   2.886 -0.3781  0.0859  0.3385
  133MOL   C18647970   1.438   5.977   2.993  0.2163  0.5254 -1.1040
  133MOL   C18747971   1.586   6.137   2.871  0.0326  0.7870 -0.3338
  133MOL   H18847972   1.139   6.145   2.648  2.0635 -0.8085  0.2426
  133MOL   H18947973   1.189   6.222   2.786 -1.0482 -0.7675 -0.0222
  133MOL   H19047974   1.427   6.235   2.651 -0.1215  0.6353 -3.6928
  133MOL   H19147975   1.435   5.972   2.700 -0.1888 -1.1722  2.1361
  133MOL   H19247976   1.279   6.001   2.764 -0.4856 -0.4698 -2.2746
  133MOL   H19347977   1.379   6.169   2.937  1.5847 -0.2016  3.2318
  133MOL   H19447978   1.340   5.930   3.005  0.0006  1.1466 -0.3812
  133MOL   H19547979   1.468   6.022   3.088 -0.8210 -1.7031  0.3034
  133MOL   H19647980   1.509   5.896   2.981 -2.4132 -1.6748 -2.2185
  133MOL   H19747981   1.627   6.155   2.970 -3.8017 -1.2506  1.7664
  133MOL   H19847982   1.594   6.225   2.807  3.4890  0.0372 -1.0185
  133MOL   H19947983   1.632   6.056   2.814 -0.4991 -0.8396  1.5096
  133MOL   C20047984   1.333   6.101   2.501 -0.2511 -0.1128 -0.3331
  133MOL   C20147985   1.462   6.107   2.411  0.0282  0.4523 -0.5219
  133MOL   C20247986   1.428   6.070   2.262 -0.0223  0.2008  0.3997
  133MOL   C20347987   1.407   6.191   2.171  0.1132  0.0674 -0.2297
  133MOL   C20447988   1.540   6.253   2.144  0.2056  1.3619 -0.3651
  133MOL   C20547989   1.344   6.154   2.039 -0.5416  0.4140  0.1346
  133MOL   H20647990   1.256   6.157   2.448 -2.2380 -3.4007 -1.1054
  133MOL   H20747991   1.287   6.002   2.509 -1.2077  0.3830  0.4470
  133MOL   H20847992   1.505   6.207   2.418 -0.0223  0.3892  0.6513
  133MOL   H20947993   1.500   6.002   2.216 -0.9545  0.2188 -1.1215
  133MOL   H21047994   1.341   6.005   2.269 -1.3188  1.8904  0.3971
  133MOL   H21147995   1.341   6.265   2.217  0.8272  0.0362  0.8764
  133MOL   H21247996   1.555   6.329   2.067  1.9060  4.1818  2.5900
  133MOL   H21347997   1.624   6.184   2.141 -1.4563 -0.7314  0.1563
  133MOL   H21447998   1.561   6.318   2.229 -1.9446  2.6267 -0.7632
  133MOL   H21547999   1.326   6.236   1.970  0.6687  0.6662  0.1154
  133MOL   H21648000   1.246   6.110   2.063 -0.3478  0.1970  0.5304
  133MOL   H21748001   1.399   6.074   1.989 -0.6813 -0.1816  0.9207
  133MOL   C21848002   1.575   6.010   2.456  0.7340  0.3993 -0.5673
  133MOL   C21948003   1.722   6.050   2.414  0.4900  0.3022 -0.1724
  133MOL   C22048004   1.819   5.927   2.400  0.4598 -0.7520 -0.4042
  133MOL   C22148005   1.860   5.840   2.524  0.0662 -0.1791 -0.0387
  133MOL   C22248006   1.747   5.745   2.572 -0.1227 -0.2477  0.0693
  133MOL   C22348007   1.989   5.756   2.495  0.4616 -0.0001  0.1385
  133MOL   H22448008   1.582   6.005   2.565 -2.9075 -1.7650 -0.3071
  133MOL   H22548009   1.543   5.911   2.421 -1.9898  0.5072  1.4195
  133MOL   H22648010   1.722   6.095   2.314  1.8083 -0.2731 -0.4455
  133MOL   H22748011   1.763   5.853   2.342  0.8578 -0.8771 -0.6314
  133MOL   H22848012   1.910   5.953   2.346  0.9773 -0.5303  0.5619
  133MOL   H22948013   1.886   5.897   2.614  0.4461  0.0675 -0.3012
  133MOL   H23048014   1.786   5.676   2.647  1.5719 -0.2680 -0.7924
  133MOL   H23148015   1.667   5.790   2.630 -0.2867 -0.7194  0.2156
  133MOL   H23248016   1.703   5.689   2.489 -1.1489  0.1048  0.3742
  133MOL   H23348017   2.070   5.805   2.442 -0.3663 -0.4150 -1.5391
  133MOL   H23448018   2.040   5.727   2.587 -0.4254  1.0278  0.9664
  133MOL   H23548019   1.963   5.671   2.432 -0.6871  0.4762 -0.0442
  133MOL   C23648020   1.768   6.166   2.515 -0.9922  1.2010 -0.0904
  133MOL   C23748021   1.900   6.246   2.472 -0.3130  0.0945 -0.8896
  133MOL   C23848022   2.040   6.176   2.510 -0.5575 -0.7358  0.1878
  133MOL   C23948023   2.163   6.222   2.423  0.0863 -0.2388 -0.0502
  133MOL   C24048024   2.296   6.175   2.486 -0.2417 -0.0358 -0.1282
  133MOL   C24148025   2.159   6.178   2.279 -0.0399  0.7977  0.1295
  133MOL   H24248026   1.787   6.110   2.606 -1.9420 -0.4285 -0.8603
  133MOL   H24348027   1.687   6.234   2.539 -0.9282  0.6543  1.7465
  133MOL   H24448028   1.901   6.241   2.364 -1.0863  0.8460 -0.9366
  133MOL   H24548029   2.037   6.067   2.500  0.7538 -0.9924  2.4644
  133MOL   H24648030   2.068   6.190   2.614  0.8522 -1.2748 -0.1085
  133MOL   H24748031   2.174   6.331   2.426 -0.4751 -0.1651 -0.5971
  133MOL   H24848032   2.294   6.203   2.591 -1.6306  0.4516 -0.2834
  133MOL   H24948033   2.385   6.217   2.439  2.5376 -2.8158  2.4522
  133MOL   H25048034   2.315   6.068   2.477  1.6749  0.1798  0.9950
  133MOL   H25148035   2.064   6.212   2.239 -0.9035 -1.4580  0.1856
  133MOL   H25248036   2.166   6.069   2.275 -3.1778  0.4401  2.7442
  133MOL   H25348037   2.239   6.222   2.218  1.2663 -1.4893  0.1382
  133MOL   C25448038   1.898   6.398   2.511 -0.5598 -1.1324 -0.1363
  133MOL   C25548039   1.833   6.490   2.408  0.4299  0.0139 -0.1709
  133MOL   C25648040   1.785   6.624   2.468  0.3324  0.5332  0.4063
  133MOL   C25748041   1.900   6.729   2.494  0.7388 -0.2686  0.4778
  133MOL   C25848042   1.985   6.687   2.615  0.9266  0.4863  0.9231
  133MOL   C25948043   1.842   6.865   2.522  0.2982  0.3621 -0.0345
  133MOL   H26048044   1.843   6.415   2.604  1.5935 -0.0648  1.0030
  133MOL   H26148045   2.004   6.424   2.521 -0.8259 -0.4853  1.0948
  133MOL   H26248046   1.742   6.438   2.380 -0.5798  0.7269  1.6677
  133MOL   H26348047   1.722   6.606   2.554 -1.1003  0.1440 -0.7104
  133MOL   H26448048   1.716   6.663   2.393  0.3749  1.3744  0.8018
  133MOL   H26548049   1.958   6.735   2.402  0.6373  0.0708  0.4365
  133MOL   H26648050   1.930   6.671   2.707  0.5054 -5.5488 -0.1972
  133MOL   H26748051   2.054   6.771   2.629  1.6825  0.5208 -2.4752
  133MOL   H26848052   2.057   6.605   2.608  0.7253  0.3947 -0.3681
  133MOL   H26948053   1.781   6.865   2.613 -0.0018 -1.7124 -0.2040
  133MOL   H27048054   1.913   6.948   2.523 -0.3961  0.9558 -0.2872
  133MOL   H27148055   1.772   6.900   2.447  0.8545  0.9285 -0.3002
  133MOL   C27248056   1.923   6.508   2.282  0.5691  0.1673 -0.7322
  133MOL   C27348057   1.876   6.599   2.165  0.1185 -0.5363  0.0219
  133MOL   C27448058   1.990   6.598   2.054  0.6108 -0.1430  0.0671
  133MOL   C27548059   2.120   6.670   2.087  0.8396 -0.5099 -0.4498
  133MOL   C27648060   2.095   6.812   2.031 -0.6644 -0.6633 -0.1756
  133MOL   C27748061   2.241   6.598   2.025  1.0737 -0.7674 -0.3318
  133MOL   H27848062   2.026   6.521   2.317  0.1446 -2.2219  1.4378
  133MOL   H27948063   1.941   6.414   2.230 -0.3798 -0.0937 -0.5953
  133MOL   H28048064   1.864   6.700   2.203  0.2647 -0.0013 -1.3254
  133MOL   H28148065   1.956   6.621   1.953  0.7420  1.6990  0.4286
  133MOL   H28248066   2.007   6.490   2.048 -0.0625 -0.3161  1.1867
  133MOL   H28348067   2.140   6.673   2.195  0.6930  0.2313 -0.4441
  133MOL   H28448068   2.083   6.812   1.923  0.9990  0.1749 -0.3746
  133MOL   H28548069   2.009   6.867   2.068  0.3445  0.2641  0.7968
  133MOL   H28648070   2.182   6.871   2.057 -0.2531 -1.2922 -0.1009
  133MOL   H28748071   2.340   6.630   2.060 -0.8594  2.7696  2.2643
  133MOL   H28848072   2.232   6.495   2.059  0.0004  0.5339  3.5080
  133MOL   H28948073   2.222   6.611   1.918  0.8788 -0.2293 -0.2362
  133MOL   C29048074   1.742   6.555   2.108  0.1434 -0.6927  0.2647
  133MOL   C29148075   1.680   6.646   1.996  0.4671 -0.5320  0.5074
  133MOL   C29248076   1.652   6.559   1.869  0.2689  0.2796 -0.8182
  133MOL   C29348077   1.603   6.630   1.744 -0.9865 -0.2647  0.3565
  133MOL   C29448078   1.718   6.707   1.679 -0.8217  0.0559  0.4222
  133MOL   C29548079   1.540   6.521   1.653 -0.3072  0.4006  0.9881
  133MOL   H29648080   1.757   6.458   2.061  0.1557 -1.2048  1.3250
  133MOL   H29748081   1.669   6.537   2.187 -1.6122 -0.8202 -1.3563
  133MOL   H29848082   1.749   6.724   1.964 -1.6700  2.2991  2.5440
  133MOL   H29948083   1.572   6.488   1.891  0.5491 -0.2640 -1.5454
  133MOL   H30048084   1.742   6.504   1.843  0.4354 -1.0635  2.4348
  133MOL   H30148085   1.525   6.696   1.782 -0.3543  0.8488 -0.2519
  133MOL   H30248086   1.798   6.642   1.646 -1.1810  0.5399 -1.5006
  133MOL   H30348087   1.756   6.779   1.751  0.7159  0.2369 -0.5650
  133MOL   H30448088   1.674   6.762   1.596 -1.0572 -1.1459 -0.2586
  133MOL   H30548089   1.467   6.464   1.711  0.5487 -0.9702  0.7353
  133MOL   H30648090   1.600   6.440   1.611 -2.4038 -1.2074  1.0234
  133MOL   H30748091   1.490   6.576   1.573 -0.3316 -1.8270 -0.5679
  133MOL   C30848092   1.554   6.725   2.056 -0.0026  0.1297  0.2657
  133MOL   C30948093   1.537   6.874   2.039  0.7309 -0.5951  0.4736
  133MOL   C31048094   1.388   6.918   2.055  0.4727  0.7425 -0.4582
  133MOL   C31148095   1.288   6.885   1.938  0.2635  0.3787  0.0748
  133MOL   C31248096   1.136   6.892   1.985 -0.5528 -0.4053 -0.4026
  133MOL   C31348097   1.315   6.972   1.813  0.4572  0.2424  0.8812
  133MOL   H31448098   1.475   6.676   1.998 -0.2505  2.1472 -1.1725
  133MOL   H31548099   1.537   6.692   2.158  0.2705 -0.0534  0.2529
  133MOL   H31648100   1.569   6.912   1.941 -0.6434 -0.5417  0.0294
  133MOL   H31748101   1.385   7.025   2.072  0.3683  0.7392 -0.4590
  133MOL   H31848102   1.350   6.879   2.149  0.2953  1.0887 -0.3858
  133MOL   H31948103   1.313   6.781   1.918  0.5133  0.4903 -0.2001
  133MOL   H32048104   1.119   6.997   2.010 -1.1817 -0.1243 -2.0206
  133MOL   H32148105   1.105   6.833   2.072  0.0807  1.7491  1.3451
  133MOL   H32248106   1.074   6.865   1.901 -0.5127 -1.2887 -0.1500
  133MOL   H32348107   1.315   7.075   1.849  0.3533  0.5891 -0.1084
  133MOL   H32448108   1.415   6.948   1.777 -0.9392 -0.8899 -2.3470
  133MOL   H32548109   1.245   6.959   1.731 -0.1270 -0.1479  1.4301
  133MOL   C32648110   1.629   6.943   2.145 -0.2881 -0.0345 -0.6385
  133MOL   C32748111   1.703   7.070   2.097  0.4171  0.0363 -0.3053
  133MOL   C32848112   1.815   7.103   2.199 -1.0081  0.0412  0.5566
  133MOL   C32948113   1.919   7.218   2.176  1.5167 -0.0010  0.3786
  133MOL   C33048114   1.946   7.304   2.297 -0.4194  0.0123  0.8201
  133MOL   C33148115   2.045   7.175   2.106  0.8522  0.5861 -0.3147
  133MOL   H33248116   1.714   6.879   2.169 -0.1129  0.6775  0.6982
  133MOL   H33348117   1.573   6.954   2.238  1.8989 -1.0388  0.8391
  133MOL   H33448118   1.753   7.044   2.004  1.6564  2.8819 -0.5005
  133MOL   H33548119   1.772   7.121   2.297  1.4136  1.0026  1.4758
  133MOL   H33648120   1.872   7.012   2.212  0.1752  0.6388 -0.2987
  133MOL   H33748121   1.874   7.284   2.102  2.3530  0.3230  0.1485
  133MOL   H33848122   1.992   7.265   2.388  1.7338  2.1672  0.6836
  133MOL   H33948123   1.857   7.358   2.331  0.4295  0.7345  1.9706
  133MOL   H34048124   2.019   7.382   2.275 -0.7292  0.0002 -0.2626
  133MOL   H34148125   2.115   7.258   2.099  1.9474 -0.0063  2.8097
  133MOL   H34248126   2.104   7.096   2.152  1.9373  1.7667  0.3608
  133MOL   H34348127   2.015   7.138   2.008 -1.2535  0.6518  0.2918
  133MOL   C34448128   1.612   7.193   2.076 -0.1421 -1.6177 -0.3346
  133MOL   C34548129   1.545   7.247   2.201  0.0607  0.4442 -0.3823
  133MOL   C34648130   1.456   7.373   2.176 -0.6375  0.2126 -0.6071
  133MOL   C34748131   1.327   7.335   2.109  0.3601 -0.4721  0.3995
  133MOL   C34848132   1.260   7.466   2.058  0.0435 -0.5699 -0.3150
  133MOL   C34948133   1.231   7.268   2.218  0.3247  0.5349 -0.4142
  133MOL   H35048134   1.540   7.172   1.996 -3.6324  1.1268  1.9412
  133MOL   H35148135   1.670   7.276   2.034  0.9897 -2.5203 -0.5976
  133MOL   H35248136   1.616   7.286   2.275  1.3411  0.5387 -1.6363
  133MOL   H35348137   1.436   7.420   2.272  0.4609 -2.4486  0.9799
  133MOL   H35448138   1.498   7.446   2.107 -1.6110  0.7555 -0.6429
  133MOL   H35548139   1.337   7.279   2.016 -3.8116 -0.8714  0.0711
  133MOL   H35648140   1.336   7.509   1.992 -0.2189  0.6503  0.1592
  133MOL   H35748141   1.177   7.423   2.002 -0.0043 -0.5099 -0.2907
  133MOL   H35848142   1.228   7.537   2.134 -0.7498 -1.9322  0.6395
  133MOL   H35948143   1.149   7.222   2.163  1.0465  0.2003 -1.2162
  133MOL   H36048144   1.189   7.341   2.287 -0.4976  1.7765 -2.1596
  133MOL   H36148145   1.268   7.187   2.279  1.9384  0.7241 -1.1186
  133MOL   H36248146   1.475   7.176   2.244  1.2346 -2.0736 -2.5486
  134MOL     C148147   3.279   3.918   4.950  0.0098 -0.1293 -0.2585
  134MOL     C248148   3.135   3.901   5.007  0.2845 -0.1276  0.5283
  134MOL     C348149   3.133   3.926   5.161  0.2011 -0.5721  0.5896
  134MOL     C448150   3.166   4.065   5.214 -1.0393 -0.2315 -0.2408
  134MOL     C548151   3.159   4.068   5.371 -0.5834 -0.4400  0.4986
  134MOL     C648152   3.083   4.179   5.154 -0.1764 -0.1291 -0.2167
  134MOL     H748153   3.292   3.936   4.844 -1.2556  1.7406 -0.1248
  134MOL     H848154   3.320   4.006   5.000 -1.9489  0.2140  0.8309
  134MOL     H948155   3.062   3.965   4.958  1.5607 -1.0326 -2.6228
  134MOL    H1048156   3.032   3.898   5.193  0.9382 -2.4752  1.3674
  134MOL    H1148157   3.191   3.841   5.198 -0.3387 -1.3929 -0.4203
  134MOL    H1248158   3.272   4.079   5.196 -0.5354 -1.7067  1.4087
  134MOL    H1348159   3.056   4.051   5.401 -0.9130  1.3026  0.3763
  134MOL    H1448160   3.219   3.986   5.411  1.0531 -0.2603 -1.5289
  134MOL    H1548161   3.193   4.168   5.398  0.5132 -0.6504 -0.0618
  134MOL    H1648162   3.084   4.270   5.215  1.9230 -0.9160  0.9570
  134MOL    H1748163   2.976   4.158   5.143 -0.1165 -0.6040  0.0910
  134MOL    H1848164   3.120   4.210   5.057 -0.7922 -0.8446 -0.6844
  134MOL    H1948165   3.335   3.826   4.968  0.6099  0.7974  3.0435
  134MOL    C2048166   3.083   3.756   4.971  1.2724 -0.0866 -0.3390
  134MOL    C2148167   3.042   3.748   4.821 -0.5660 -0.1277 -0.5758
  134MOL    C2248168   3.055   3.597   4.778 -0.2829  0.5802  0.6636
  134MOL    C2348169   3.191   3.522   4.786  0.1413 -0.4609 -0.2828
  134MOL    C2448170   3.181   3.369   4.766 -0.5601  0.2303 -0.0058
  134MOL    C2548171   3.286   3.587   4.686  0.4052  1.3325  0.1332
  134MOL    H2648172   3.171   3.701   5.002  0.9067  0.9796  2.7189
  134MOL    H2748173   3.007   3.720   5.041  1.3698  0.5401  0.0828
  134MOL    H2848174   3.104   3.798   4.747 -1.6812 -0.2395 -1.6013
  134MOL    H2948175   3.024   3.592   4.674 -0.1741  0.6763  0.6258
  134MOL    H3048176   2.984   3.537   4.835 -1.2850 -0.2051 -1.3638
  134MOL    H3148177   3.236   3.528   4.885 -0.7293 -2.1242  0.2258
  134MOL    H3248178   3.273   3.324   4.729 -0.3352  1.7634 -1.3972
  134MOL    H3348179   3.103   3.343   4.694  0.6989  0.2180 -1.3833
  134MOL    H3448180   3.156   3.315   4.857  1.5770 -1.1919 -0.2203
  134MOL    H3548181   3.281   3.696   4.683  0.3959  1.2804 -2.9702
  134MOL    H3648182   3.388   3.567   4.718 -0.4736 -0.3364  2.0305
  134MOL    H3748183   3.256   3.544   4.591 -0.3947  0.4224  0.7823
  134MOL    C3848184   2.898   3.792   4.804 -0.2009  0.4806 -0.1337
  134MOL    C3948185   2.872   3.915   4.709  0.0996 -0.4795 -0.5971
  134MOL    C4048186   2.731   3.983   4.722  1.0409  0.2008  0.0292
  134MOL    C4148187   2.700   4.055   4.855  0.2288  0.2821 -0.6518
  134MOL    C4248188   2.552   4.094   4.852 -0.7404  0.1833  0.1885
  134MOL    C4348189   2.777   4.184   4.883  0.5055 -1.1035  0.3488
  134MOL    H4448190   2.858   3.823   4.901  0.0258  0.8931 -0.1709
  134MOL    H4548191   2.840   3.703   4.777  2.9827 -1.6719 -0.1974
  134MOL    H4648192   2.944   3.989   4.744  0.4042 -1.0262 -0.0669
  134MOL    H4748193   2.664   3.898   4.709  1.6219 -0.1414 -0.7923
  134MOL    H4848194   2.699   4.048   4.640 -1.5131  2.9496  3.0634
  134MOL    H4948195   2.721   3.994   4.942  1.6470  1.9664  0.2295
  134MOL    H5048196   2.526   4.156   4.766  1.1933  0.3208 -0.3232
  134MOL    H5148197   2.492   4.003   4.848  0.8430 -0.8146 -3.5673
  134MOL    H5248198   2.521   4.139   4.946  2.4617 -0.4451  1.6074
  134MOL    H5348199   2.883   4.162   4.877  0.5527 -0.9567  0.6558
  134MOL    H5448200   2.771   4.224   4.984 -2.1419  1.7891 -0.8640
  134MOL    H5548201   2.756   4.263   4.811 -1.1919 -0.6683  1.2907
  134MOL    C5648202   2.902   3.879   4.560 -0.5699 -1.0988  0.6730
  134MOL    C5748203   2.923   3.999   4.456  0.7876  0.1877  0.2297
  134MOL    C5848204   2.905   3.942   4.316  0.4655  0.0047  0.4900
  134MOL    C5948205   2.755   3.970   4.270  0.0646  0.1006 -0.2620
  134MOL    C6048206   2.718   3.868   4.157 -0.2088 -0.1069  0.6028
  134MOL    C6148207   2.747   4.114   4.211 -0.4810  0.3870  0.6686
  134MOL    H6248208   2.814   3.822   4.529 -0.2271 -0.3212 -1.7997
  134MOL    H6348209   2.983   3.807   4.551  0.4124 -0.0131  0.7823
  134MOL    H6448210   2.851   4.077   4.481  0.4438 -1.0254  3.3079
  134MOL    H6548211   2.977   3.987   4.247 -0.3563 -0.3306 -0.6049
  134MOL    H6648212   2.927   3.835   4.309  2.6954  0.3376  1.9966
  134MOL    H6748213   2.694   3.950   4.358  0.9015  0.3416  0.3857
  134MOL    H6848214   2.781   3.875   4.068 -2.8138  1.1230 -1.2139
  134MOL    H6948215   2.621   3.885   4.112 -0.6714  0.2368  1.7076
  134MOL    H7048216   2.726   3.765   4.193  1.2789 -0.2759 -0.1585
  134MOL    H7148217   2.647   4.152   4.192 -0.9467 -0.3825  1.6014
  134MOL    H7248218   2.814   4.134   4.127  0.9305  0.3808  1.7778
  134MOL    H7348219   2.783   4.189   4.281  0.4986  2.4217 -1.8800
  134MOL    C7448220   3.060   4.061   4.487  0.0162  0.2064  0.6640
  134MOL    C7548221   3.092   4.195   4.415 -0.4474  0.5270  0.2010
  134MOL    C7648222   3.243   4.238   4.410 -0.3226 -0.7891  0.2143
  134MOL    C7748223   3.356   4.133   4.379  0.9707 -0.2717 -0.5592
  134MOL    C7848224   3.493   4.176   4.398 -0.0110 -0.2285  0.2545
  134MOL    C7948225   3.332   4.084   4.238 -0.5832  0.0179 -0.8703
  134MOL    H8048226   3.125   3.979   4.459 -0.6366 -1.1204  2.8522
  134MOL    H8148227   3.071   4.076   4.595  0.5559  0.7585  0.5346
  134MOL    H8248228   3.056   4.172   4.315  1.0737 -0.1263 -0.2020
  134MOL    H8348229   3.256   4.310   4.328 -0.7144  1.1715  1.8289
  134MOL    H8448230   3.271   4.299   4.495  1.0451 -0.1827 -0.6506
  134MOL    H8548231   3.337   4.049   4.446  1.5598 -0.2434 -0.3498
  134MOL    H8648232   3.512   4.224   4.494 -0.1076  1.7731 -0.7091
  134MOL    H8748233   3.523   4.248   4.322  1.5795  0.2267  1.2831
  134MOL    H8848234   3.560   4.091   4.390  1.0536  0.5168  1.0452
  134MOL    H8948235   3.398   4.004   4.205  2.4012  1.4821  1.2694
  134MOL    H9048236   3.229   4.050   4.239 -0.9599  1.1144  1.9581
  134MOL    H9148237   3.344   4.164   4.165 -0.1989 -0.8117 -1.7196
  134MOL    C9248238   3.007   4.312   4.468  0.1665  0.6233 -0.3741
  134MOL    C9348239   3.001   4.442   4.377 -0.4166 -0.2377  0.0452
  134MOL    C9448240   2.934   4.415   4.237  0.3824  0.2269 -0.4515
  134MOL    C9548241   2.952   4.518   4.127 -0.2413 -0.5674 -0.3590
  134MOL    C9648242   2.986   4.460   3.992 -0.0140 -0.8201 -0.2181
  134MOL    C9748243   2.841   4.625   4.121  0.2471  0.4454 -0.2440
  134MOL    H9848244   2.903   4.277   4.469  0.6945 -1.0171 -0.6904
  134MOL    H9948245   3.028   4.330   4.573 -1.4900 -2.2885  0.5099
  134MOL   H10048246   3.106   4.466   4.357 -0.3945 -0.1144  0.3127
  134MOL   H10148247   2.830   4.387   4.255  0.2822  1.3124  0.6919
  134MOL   H10248248   2.983   4.326   4.197 -1.2062  0.3803 -2.8164
  134MOL   H10348249   3.040   4.574   4.157 -1.1733 -0.2238  1.8289
  134MOL   H10448250   2.897   4.417   3.947  1.1568 -4.3098  0.6649
  134MOL   H10548251   3.070   4.390   3.992  0.6632 -0.0363  1.1435
  134MOL   H10648252   3.015   4.537   3.921 -0.9780  2.1595  2.4850
  134MOL   H10748253   2.755   4.580   4.072  0.7288  0.5695 -1.1996
  134MOL   H10848254   2.875   4.706   4.057 -1.5902  1.0741 -0.4498
  134MOL   H10948255   2.812   4.658   4.221  0.7290  1.4373 -0.4233
  134MOL   C11048256   2.928   4.558   4.447  0.3219  0.1136  0.6130
  134MOL   C11148257   2.966   4.597   4.595  0.0355  0.4902 -0.1402
  134MOL   C11248258   3.120   4.597   4.612 -0.6484  0.6612 -0.7502
  134MOL   C11348259   3.169   4.601   4.758  0.0172 -0.0014 -0.0773
  134MOL   C11448260   3.323   4.623   4.763  0.2767  0.6160  0.0164
  134MOL   C11548261   3.125   4.485   4.845 -0.2922 -0.5484  0.3966
  134MOL   H11648262   2.819   4.554   4.443  0.3420 -0.2654  0.4464
  134MOL   H11748263   2.952   4.646   4.387  0.1311 -0.2905 -0.0610
  134MOL   H11848264   2.932   4.514   4.656 -0.4491 -0.5504 -1.7912
  134MOL   H11948265   3.159   4.684   4.560  2.4241 -0.0978  0.1486
  134MOL   H12048266   3.158   4.505   4.567 -0.3755  1.3020 -1.8558
  134MOL   H12148267   3.131   4.695   4.799 -1.2673  0.0431 -1.3590
  134MOL   H12248268   3.380   4.567   4.689 -0.7940  2.4988 -2.2984
  134MOL   H12348269   3.362   4.594   4.861  1.5881  1.2135 -0.3078
  134MOL   H12448270   3.350   4.729   4.753 -1.6245  1.1700  0.6023
  134MOL   H12548271   3.018   4.465   4.847 -0.4110  0.1385  1.2862
  134MOL   H12648272   3.167   4.488   4.946  1.1349  2.1340 -0.2190
  134MOL   H12748273   3.165   4.391   4.806 -4.7164 -1.6299 -1.8167
  134MOL   C12848274   2.895   4.728   4.642  0.5087  0.0407 -0.3658
  134MOL   C12948275   2.743   4.724   4.633  0.1782  0.3976 -0.3849
  134MOL   C13048276   2.692   4.849   4.708 -0.0429  0.2931 -0.3805
  134MOL   C13148277   2.678   4.973   4.621 -0.7947 -0.4779 -0.3065
  134MOL   C13248278   2.599   4.952   4.494 -0.1293  0.0253  0.6374
  134MOL   C13348279   2.622   5.096   4.698  0.0506 -0.4610  0.0443
  134MOL   H13448280   2.928   4.817   4.588 -0.0261  0.4914  0.0364
  134MOL   H13548281   2.915   4.745   4.748 -1.7201  3.2602 -0.3685
  134MOL   H13648282   2.712   4.730   4.528  0.9775 -0.5660 -0.6950
  134MOL   H13748283   2.593   4.837   4.754  0.3899  2.0558  1.0251
  134MOL   H13848284   2.752   4.865   4.797 -2.8149 -1.8642  1.9972
  134MOL   H13948285   2.777   4.991   4.581  1.6239 -0.6755  5.1376
  134MOL   H14048286   2.550   5.034   4.441 -2.4256 -2.2743 -0.8952
  134MOL   H14148287   2.515   4.885   4.513  0.5970 -1.0518  0.0676
  134MOL   H14248288   2.663   4.909   4.418  0.0962  0.9567  0.2902
  134MOL   H14348289   2.640   5.193   4.653 -1.3798 -0.3381 -0.2712
  134MOL   H14448290   2.517   5.083   4.725  0.1070  0.9797  1.0384
  134MOL   H14548291   2.660   5.112   4.799  0.2663  0.1124 -0.1271
  134MOL   C14648292   2.668   4.600   4.685  0.2034 -0.2786 -0.1771
  134MOL   C14748293   2.524   4.598   4.628 -0.2253 -0.1627  0.3924
  134MOL   C14848294   2.430   4.528   4.730 -0.5825  0.0099  0.0660
  134MOL   C14948295   2.390   4.612   4.856  0.5965 -0.3091  0.2845
  134MOL   C15048296   2.290   4.723   4.846  0.0042  0.0492 -0.0357
  134MOL   C15148297   2.348   4.519   4.976 -0.4500 -0.1286  0.1705
  134MOL   H15248298   2.674   4.609   4.793  0.3568  1.2163 -0.2974
  134MOL   H15348299   2.719   4.508   4.655  1.7921  0.2933  0.7818
  134MOL   H15448300   2.482   4.696   4.605 -3.0384 -1.0804  1.4591
  134MOL   H15548301   2.333   4.492   4.696 -1.6082  0.7943  2.1005
  134MOL   H15648302   2.478   4.440   4.773 -2.1885  0.0447  2.0120
  134MOL   H15748303   2.480   4.660   4.894  0.2542  0.1303  0.5394
  134MOL   H15848304   2.291   4.765   4.746  1.5567 -2.1516 -0.9920
  134MOL   H15948305   2.322   4.797   4.919 -2.0831 -0.4823  1.4893
  134MOL   H16048306   2.186   4.702   4.874  0.1358  0.6762  0.9440
  134MOL   H16148307   2.407   4.429   4.991 -2.2669 -0.7661  4.2742
  134MOL   H16248308   2.246   4.484   4.957 -0.8032 -0.3331  2.4049
  134MOL   H16348309   2.340   4.570   5.071 -1.4055  0.4359 -0.1990
  134MOL   C16448310   2.527   4.523   4.493 -0.5351  0.9589  1.4364
  134MOL   C16548311   2.386   4.491   4.419 -0.3134  0.2582 -0.6228
  134MOL   C16648312   2.318   4.627   4.393  0.5107 -0.5342  1.0794
  134MOL   C16748313   2.163   4.636   4.365  0.2720 -0.0862  0.2720
  134MOL   C16848314   2.080   4.555   4.468  0.1760 -0.0945  0.2195
  134MOL   C16948315   2.124   4.784   4.366  0.3945  0.4619 -0.2331
  134MOL   H17048316   2.593   4.564   4.417  1.6649 -2.4421  1.3891
  134MOL   H17148317   2.575   4.430   4.524  2.2505  1.1075 -2.1495
  134MOL   H17248318   2.324   4.441   4.494 -1.0843  0.1287 -1.3365
  134MOL   H17348319   2.337   4.697   4.475  1.9733  0.8331 -0.3803
  134MOL   H17448320   2.363   4.674   4.305  1.6347 -1.2340  1.2706
  134MOL   H17548321   2.142   4.599   4.264 -1.4444  1.2759  0.1038
  134MOL   H17648322   2.098   4.448   4.471  1.3679  0.0977  0.1247
  134MOL   H17748323   1.975   4.582   4.451  0.3253 -0.0972 -0.7170
  134MOL   H17848324   2.106   4.591   4.567 -1.5714 -0.2808  0.7670
  134MOL   H17948325   2.118   4.805   4.473  0.0495 -1.4179  0.1296
  134MOL   H18048326   2.030   4.810   4.317 -0.4431  1.0299  1.6228
  134MOL   H18148327   2.199   4.847   4.317  0.2463  1.4679  0.8193
  134MOL   C18248328   2.390   4.394   4.294  0.6022 -0.6229  0.4686
  134MOL   C18348329   2.303   4.271   4.305  0.3330  0.6494 -0.1164
  134MOL   C18448330   2.295   4.192   4.173 -0.5742 -0.4451  0.1564
  134MOL   C18548331   2.305   4.275   4.042 -0.4090  0.2957  1.2482
  134MOL   C18648332   2.351   4.186   3.923  0.2321  0.0600  0.2848
  134MOL   C18748333   2.169   4.342   4.004 -0.8747  0.3612 -0.6507
  134MOL   H18848334   2.491   4.375   4.258  0.0638  0.6327 -1.8180
  134MOL   H18948335   2.349   4.454   4.213  0.3005 -3.7260 -1.7446
  134MOL   H19048336   2.207   4.313   4.336  0.6114  0.8132  0.5360
  134MOL   H19148337   2.197   4.145   4.180 -1.3166  1.1518  0.6657
  134MOL   H19248338   2.378   4.123   4.159 -0.5255 -0.2092 -0.7936
  134MOL   H19348339   2.389   4.344   4.039 -0.0804 -0.1124  1.0569
  134MOL   H19448340   2.351   4.234   3.825 -1.4331 -4.0510 -1.8341
  134MOL   H19548341   2.291   4.097   3.910 -0.2587  0.2298  1.3553
  134MOL   H19648342   2.453   4.151   3.942  1.0449  1.3789 -1.4715
  134MOL   H19748343   2.117   4.374   4.095  0.2669 -0.3307  0.2640
  134MOL   H19848344   2.090   4.279   3.964 -2.9134  2.0012  0.6791
  134MOL   H19948345   2.187   4.428   3.940 -0.9784  0.0722 -1.0646
  134MOL   C20048346   2.362   4.176   4.412  0.7395  0.3857  0.4228
  134MOL   C20148347   2.269   4.062   4.450 -0.2158  0.4254 -0.0731
  134MOL   C20248348   2.237   4.057   4.603 -0.1544  0.1520  0.1316
  134MOL   C20348349   2.149   4.172   4.655  0.5562  0.1456 -0.2628
  134MOL   C20448350   2.002   4.132   4.666  0.3423 -0.3740  0.2844
  134MOL   C20548351   2.188   4.219   4.795 -0.4642 -0.0985 -1.2813
  134MOL   H20648352   2.382   4.230   4.505  0.0439  0.1330  0.7243
  134MOL   H20748353   2.455   4.139   4.369  1.2627 -0.4318  2.1969
  134MOL   H20848354   2.170   4.073   4.406 -0.2204  1.9864  0.3065
  134MOL   H20948355   2.195   3.962   4.636 -3.6094  1.2600 -0.8808
  134MOL   H21048356   2.332   4.062   4.656 -0.3436  0.1003  0.4788
  134MOL   H21148357   2.148   4.257   4.587 -3.0537  0.7402  0.4486
  134MOL   H21248358   1.962   4.112   4.567  2.5734  0.9223 -0.9170
  134MOL   H21348359   1.948   4.211   4.719 -0.2832 -0.7071  0.1503
  134MOL   H21448360   1.990   4.039   4.721 -1.9029  1.1477  2.4687
  134MOL   H21548361   2.195   4.139   4.869 -2.1079  2.3923  1.6496
  134MOL   H21648362   2.113   4.295   4.818 -3.4211 -3.5868  1.3350
  134MOL   H21748363   2.286   4.266   4.782  1.1581 -2.5080  1.6240
  134MOL   C21848364   2.336   3.932   4.408 -0.1551  0.7531  0.3631
  134MOL   C21948365   2.265   3.794   4.430  0.2765  0.0742  0.0636
  134MOL   C22048366   2.345   3.680   4.363  0.1497 -0.1196  0.1252
  134MOL   C22148367   2.494   3.680   4.400 -0.3453  0.0546 -0.6351
  134MOL   C22248368   2.522   3.663   4.544  0.6146  0.3855 -0.1135
  134MOL   C22348369   2.556   3.573   4.322  0.0396 -0.4750 -0.2876
  134MOL   H22448370   2.366   3.943   4.303 -0.2662 -1.8364  0.0449
  134MOL   H22548371   2.429   3.939   4.464 -1.1684 -1.2217  2.3803
  134MOL   H22648372   2.269   3.776   4.537  0.0667  1.7603  0.3585
  134MOL   H22748373   2.311   3.578   4.382 -1.2695  0.9183  3.7065
  134MOL   H22848374   2.338   3.690   4.255 -0.8712 -2.9003 -0.1162
  134MOL   H22948375   2.541   3.773   4.369 -0.1060  0.0299 -0.3450
  134MOL   H23048376   2.483   3.566   4.575  2.3576 -0.5107 -0.6539
  134MOL   H23148377   2.630   3.658   4.556  1.2050 -1.1090 -5.0295
  134MOL   H23248378   2.472   3.732   4.612 -1.6261 -1.1960 -0.1012
  134MOL   H23348379   2.510   3.480   4.353 -1.6606 -0.2476 -2.0477
  134MOL   H23448380   2.539   3.582   4.215 -0.3890  0.5512 -0.1435
  134MOL   H23548381   2.661   3.552   4.340  0.5666  1.1469 -1.3325
  134MOL   C23648382   2.118   3.803   4.378  0.4285  0.0707 -0.2519
  134MOL   C23748383   2.027   3.677   4.397 -0.1226 -0.2151 -0.6492
  134MOL   C23848384   1.919   3.656   4.286  0.3563 -0.3754 -0.0389
  134MOL   C23948385   1.963   3.596   4.154  0.3636 -0.1704 -0.1216
  134MOL   C24048386   1.866   3.493   4.092 -0.6583  0.4739 -0.1776
  134MOL   C24148387   2.005   3.701   4.050 -0.4396 -0.3226 -0.8644
  134MOL   H24248388   2.119   3.835   4.274 -1.8528 -0.7662 -0.5610
  134MOL   H24348389   2.070   3.884   4.432  0.5959  0.6021 -0.8805
  134MOL   H24448390   2.095   3.592   4.388 -1.5245 -0.9843 -5.0830
  134MOL   H24548391   1.877   3.751   4.253  1.3960 -0.3340 -1.3024
  134MOL   H24648392   1.839   3.591   4.320  0.4448 -0.0882  0.7293
  134MOL   H24748393   2.057   3.544   4.171  0.2686 -0.0895  0.6724
  134MOL   H24848394   1.786   3.537   4.032 -1.6046 -1.3446 -0.2860
  134MOL   H24948395   1.830   3.426   4.170  2.3302  0.9807  1.7192
  134MOL   H25048396   1.919   3.430   4.021  1.5426  1.3523  0.6526
  134MOL   H25148397   2.042   3.655   3.959  3.4772 -3.3211  2.0573
  134MOL   H25248398   2.073   3.781   4.078 -0.6560 -1.0718  1.9719
  134MOL   H25348399   1.915   3.761   4.035  0.8363  1.5805 -0.9406
  134MOL   C25448400   1.956   3.673   4.540  0.5659  0.0335  0.1764
  134MOL   C25548401   1.930   3.533   4.600  0.0516  1.0985 -0.0592
  134MOL   C25648402   2.050   3.476   4.674 -0.2396  0.3036  0.4167
  134MOL   C25748403   2.071   3.322   4.669 -0.3292 -0.4135  0.1570
  134MOL   C25848404   2.158   3.263   4.787  0.1903 -0.1023  0.1358
  134MOL   C25948405   2.140   3.284   4.535 -0.7264 -0.2278 -0.3117
  134MOL   H26048406   2.027   3.715   4.612  1.0049  0.7335 -0.6544
  134MOL   H26148407   1.870   3.740   4.543 -0.7386 -1.6884  2.3366
  134MOL   H26248408   1.905   3.465   4.518 -1.8144 -0.1417  1.4859
  134MOL   H26348409   2.050   3.507   4.778  0.6237  1.0549  0.1997
  134MOL   H26448410   2.140   3.520   4.632  0.5328 -1.0312  0.6519
  134MOL   H26548411   1.983   3.258   4.664 -1.0620  0.5966 -0.0185
  134MOL   H26648412   2.149   3.154   4.788  1.3403 -0.2148  3.2311
  134MOL   H26748413   2.136   3.303   4.886 -4.0572 -0.1506 -0.7081
  134MOL   H26848414   2.262   3.287   4.763  0.3539 -0.5992  0.3461
  134MOL   H26948415   2.108   3.341   4.447  1.1054 -0.6964 -1.3010
  134MOL   H27048416   2.248   3.291   4.530 -0.7895  0.4038 -0.9375
  134MOL   H27148417   2.119   3.179   4.517 -0.3237 -0.4657  0.5839
  134MOL   C27248418   1.815   3.528   4.693 -0.4175 -0.0577  0.4078
  134MOL   C27348419   1.675   3.539   4.631 -0.6407 -0.5026 -0.0547
  134MOL   C27448420   1.612   3.395   4.594  0.4993  0.3295 -0.2717
  134MOL   C27548421   1.494   3.402   4.498  0.0250  0.5346 -0.0414
  134MOL   C27648422   1.420   3.271   4.512  0.0952  0.2722 -0.1240
  134MOL   C27748423   1.546   3.426   4.354 -0.3285  0.0300 -0.3234
  134MOL   H27848424   1.806   3.438   4.755 -0.9996 -0.9628 -0.9575
  134MOL   H27948425   1.827   3.614   4.758 -1.7801  2.0119 -1.9897
  134MOL   H28048426   1.681   3.588   4.534 -0.7209  1.3648  0.8632
  134MOL   H28148427   1.581   3.346   4.686  2.2018 -1.6215 -0.7165
  134MOL   H28248428   1.690   3.328   4.558 -0.2746 -0.3874 -0.6269
  134MOL   H28348429   1.416   3.468   4.534 -1.4602 -1.1091 -0.2047
  134MOL   H28448430   1.486   3.186   4.497 -0.6216 -0.4331  0.6889
  134MOL   H28548431   1.384   3.248   4.612 -0.9773 -0.0674 -0.5850
  134MOL   H28648432   1.334   3.261   4.446 -0.6505 -2.7036  1.2284
  134MOL   H28748433   1.644   3.385   4.333  0.7925  0.8658  3.0401
  134MOL   H28848434   1.476   3.394   4.276 -0.9844 -0.8256  0.6177
  134MOL   H28948435   1.557   3.534   4.344  0.8993  0.3648  3.7743
  134MOL   C29048436   1.576   3.618   4.721  0.0475  0.0947  0.1965
  134MOL   C29148437   1.549   3.768   4.699  0.0032  0.2352  0.1148
  134MOL   C29248438   1.501   3.796   4.555  0.0163 -0.5327 -0.3195
  134MOL   C29348439   1.513   3.951   4.519  0.5761 -0.2807  0.0639
  134MOL   C29448440   1.656   4.009   4.519 -0.2818 -0.0140 -0.0481
  134MOL   C29548441   1.464   3.973   4.372  0.3013 -0.2107 -0.2617
  134MOL   H29648442   1.477   3.572   4.717  0.8227 -1.4972 -1.2808
  134MOL   H29748443   1.613   3.604   4.822 -0.2992  0.5018  0.3845
  134MOL   H29848444   1.643   3.820   4.716 -2.0556  4.2623 -0.1984
  134MOL   H29948445   1.396   3.773   4.540  0.6328 -1.3223 -3.7165
  134MOL   H30048446   1.565   3.746   4.482 -0.1325 -0.8296 -0.2469
  134MOL   H30148447   1.454   4.009   4.589 -0.0509  0.9133 -1.4227
  134MOL   H30248448   1.725   3.932   4.486 -1.0277 -1.4106  1.5725
  134MOL   H30348449   1.693   4.054   4.611 -0.9311 -1.3246  0.8632
  134MOL   H30448450   1.656   4.103   4.463 -1.9868 -0.3112 -0.5851
  134MOL   H30548451   1.504   3.897   4.305  3.4430  0.2770  0.9487
  134MOL   H30648452   1.481   4.073   4.333 -1.6063  0.4359  0.5046
  134MOL   H30748453   1.355   3.961   4.370  0.1684 -0.2336  3.5991
  134MOL   C30848454   1.449   3.818   4.806  0.4497  0.6872  0.7064
  134MOL   C30948455   1.509   3.845   4.946 -0.3367 -0.3226  0.7863
  134MOL   C31048456   1.598   3.975   4.940 -0.3017 -0.6901 -0.3278
  134MOL   C31148457   1.706   3.988   5.045 -0.0011  0.3321  0.3056
  134MOL   C31248458   1.800   3.867   5.045 -0.4578 -0.1898  0.0836
  134MOL   C31348459   1.781   4.115   4.998  0.2871  0.4989  0.2092
  134MOL   H31448460   1.410   3.911   4.765 -0.5269  1.1538  2.6487
  134MOL   H31548461   1.365   3.749   4.804  1.9845 -1.2102  0.6527
  134MOL   H31648462   1.571   3.763   4.983 -1.0619  0.1380  3.1308
  134MOL   H31748463   1.532   4.062   4.945 -1.5611 -1.6875  0.8960
  134MOL   H31848464   1.644   3.984   4.842  0.3405 -0.1781  0.0221
  134MOL   H31948465   1.664   4.001   5.145  0.9996  0.9825  0.6517
  134MOL   H32048466   1.893   3.890   5.099 -1.9304  3.7588  1.1065
  134MOL   H32148467   1.835   3.840   4.946  2.0036 -0.0032  0.8579
  134MOL   H32248468   1.755   3.777   5.088  1.4794 -0.8009  0.9453
  134MOL   H32348469   1.876   4.137   5.048 -0.1811 -0.5974  1.6384
  134MOL   H32448470   1.811   4.110   4.894 -2.1811 -2.4441 -0.4450
  134MOL   H32548471   1.709   4.197   4.999 -2.8496 -2.0379 -3.8715
  134MOL   C32648472   1.400   3.871   5.048 -0.5233 -0.4086 -0.2745
  134MOL   C32748473   1.315   3.744   5.090  0.7205 -0.3463  0.5785
  134MOL   C32848474   1.172   3.776   5.148 -0.1873  0.0362 -0.2778
  134MOL   C32948475   1.056   3.817   5.049  0.4509 -0.0793 -0.1823
  134MOL   C33048476   1.037   3.721   4.934 -0.5165  0.3487  0.4352
  134MOL   C33148477   0.921   3.835   5.120  0.1847 -0.2809 -0.6896
  134MOL   H33248478   1.329   3.943   5.010  1.4343  2.4241  1.2547
  134MOL   H33348479   1.451   3.914   5.134  0.1977  0.0005 -0.9040
  134MOL   H33448480   1.298   3.697   4.993 -1.3297 -0.1946  0.8459
  134MOL   H33548481   1.132   3.696   5.211  0.5565  0.7011  1.0541
  134MOL   H33648482   1.177   3.864   5.211 -1.1660 -1.2067  1.6010
  134MOL   H33748483   1.071   3.920   5.014  2.6246 -1.5212 -3.8771
  134MOL   H33848484   1.003   3.619   4.950 -0.5964  0.6063  1.9862
  134MOL   H33948485   1.124   3.711   4.870 -0.7525  0.4296  0.1024
  134MOL   H34048486   0.972   3.770   4.861 -0.1825 -1.2450 -0.9653
  134MOL   H34148487   0.856   3.901   5.063  2.0033  0.1375 -2.3617
  134MOL   H34248488   0.877   3.737   5.138  1.7139 -0.7681  0.5283
  134MOL   H34348489   0.923   3.881   5.219  1.6168 -1.5022 -0.1395
  134MOL   C34448490   1.391   3.652   5.186  0.3425 -0.6021 -0.2633
  134MOL   C34548491   1.325   3.535   5.259  0.4575 -0.2268  0.0209
  134MOL   C34648492   1.429   3.433   5.321  0.3794 -0.2699 -0.1193
  134MOL   C34748493   1.387   3.309   5.397  0.9676  0.2191  0.7402
  134MOL   C34848494   1.486   3.267   5.495 -0.6241 -0.3663 -0.7013
  134MOL   C34948495   1.342   3.196   5.307  0.0978 -0.0824  0.0456
  134MOL   H35048496   1.421   3.722   5.264 -1.2831 -0.5942  0.3655
  134MOL   H35148497   1.475   3.620   5.124  0.4662 -0.4554 -0.1716
  134MOL   H35248498   1.253   3.483   5.196 -0.3048 -0.1163  0.7898
  134MOL   H35348499   1.494   3.401   5.240  3.9759  4.2094  0.7874
  134MOL   H35448500   1.490   3.500   5.382  0.4866  0.4843 -1.0538
  134MOL   H35548501   1.304   3.355   5.451  1.5500  2.1236  0.0258
  134MOL   H35648502   1.449   3.194   5.566  3.1570 -1.2791  0.4653
  134MOL   H35748503   1.573   3.226   5.443 -1.3212 -2.8404  0.0105
  134MOL   H35848504   1.527   3.346   5.559 -2.3082  1.0729 -1.3739
  134MOL   H35948505   1.298   3.112   5.361  1.4404  0.0110  1.3141
  134MOL   H36048506   1.425   3.157   5.249  0.3975  0.3142  0.2065
  134MOL   H36148507   1.263   3.232   5.241  1.2391 -0.7987 -1.7290
  134MOL   H36248508   1.259   3.583   5.332  1.2222  2.0203 -0.7427
  135MOL     C148509   4.343   4.489   1.583  0.0756 -0.5563  0.5127
  135MOL     C248510   4.360   4.605   1.678  0.3458  0.4826 -0.2447
  135MOL     C348511   4.406   4.536   1.814 -0.0775  0.1912 -0.3730
  135MOL     C448512   4.434   4.636   1.931 -0.1978 -0.5671  0.6005
  135MOL     C548513   4.567   4.708   1.916  0.3599  0.5389  0.0009
  135MOL     C648514   4.422   4.561   2.060 -0.3562  0.5917  0.0426
  135MOL     H748515   4.365   4.533   1.486  4.3822  0.3055  1.7729
  135MOL     H848516   4.426   4.419   1.593  2.2180  1.6817 -1.0147
  135MOL     H948517   4.447   4.663   1.648 -0.5293  1.7116 -0.4573
  135MOL    H1048518   4.330   4.462   1.841  0.4183  0.1422  0.9244
  135MOL    H1148519   4.502   4.486   1.819  0.1631  0.7356  0.4966
  135MOL    H1248520   4.355   4.712   1.927 -0.0256 -0.4496 -0.7441
  135MOL    H1348521   4.560   4.795   1.982  3.8887  0.3307  0.7787
  135MOL    H1448522   4.652   4.642   1.934  0.2983  0.4383 -0.0827
  135MOL    H1548523   4.567   4.766   1.824 -0.2310  1.1283  0.3634
  135MOL    H1648524   4.318   4.530   2.072 -0.6751  1.4616 -0.4229
  135MOL    H1748525   4.444   4.616   2.151 -0.1057  0.4415  0.0726
  135MOL    H1848526   4.481   4.470   2.065 -1.2270  0.0975  1.7793
  135MOL    H1948527   4.250   4.433   1.592  0.4319 -1.0603  1.0338
  135MOL    C2048528   4.234   4.689   1.673  0.2720  0.4631  0.3934
  135MOL    C2148529   4.188   4.727   1.530 -0.7046  0.5081  0.2623
  135MOL    C2248530   4.044   4.770   1.535  0.1603 -0.0591  0.0235
  135MOL    C2348531   3.939   4.666   1.551 -0.0781  0.0742 -0.5965
  135MOL    C2448532   3.803   4.724   1.574  0.2297  0.1566  0.6106
  135MOL    C2548533   3.930   4.567   1.436 -0.8646  0.3078  0.4802
  135MOL    H2648534   4.153   4.635   1.722  0.4443  2.0578  2.4658
  135MOL    H2748535   4.251   4.786   1.718  1.6420 -0.1377  1.2188
  135MOL    H2848536   4.173   4.645   1.459 -2.5113  0.4005  0.7705
  135MOL    H2948537   4.032   4.820   1.438  0.9731  0.7969  0.3592
  135MOL    H3048538   4.029   4.859   1.596 -1.4272 -0.3139  0.0189
  135MOL    H3148539   3.961   4.611   1.643  0.3027 -1.4984 -1.6005
  135MOL    H3248540   3.765   4.774   1.485 -0.6229 -1.5988 -0.0227
  135MOL    H3348541   3.805   4.792   1.660  2.7601  0.0603  0.6729
  135MOL    H3448542   3.749   4.633   1.598  0.0425 -1.0123 -3.8781
  135MOL    H3548543   3.935   4.625   1.344  0.1874  2.5690  1.9156
  135MOL    H3648544   4.017   4.501   1.435  0.6483  2.2496  0.4033
  135MOL    H3748545   3.844   4.501   1.439  0.0416 -0.8570  1.1920
  135MOL    C3848546   4.278   4.836   1.462 -0.4625 -0.8661 -0.3781
  135MOL    C3948547   4.255   4.879   1.309 -0.0308 -0.0082 -0.5768
  135MOL    C4048548   4.291   4.766   1.213  0.3425  0.1253 -0.3517
  135MOL    C4148549   4.207   4.760   1.080  0.8926  0.9153 -0.3295
  135MOL    C4248550   4.064   4.705   1.099 -0.1680 -0.3478 -0.4921
  135MOL    C4348551   4.283   4.683   0.974  0.5054  0.4651  0.2781
  135MOL    H4448552   4.381   4.804   1.455 -0.6686 -1.9702  1.3430
  135MOL    H4548553   4.267   4.918   1.533 -1.9215  0.1360 -1.7276
  135MOL    H4648554   4.150   4.907   1.294 -0.0825 -0.0684 -0.3230
  135MOL    H4748555   4.272   4.671   1.264  3.0672 -1.0132 -1.3812
  135MOL    H4848556   4.397   4.762   1.188  0.0921  0.0111 -1.4079
  135MOL    H4948557   4.194   4.861   1.040 -0.4738 -0.0212 -2.3323
  135MOL    H5048558   4.071   4.598   1.113  1.0397 -0.3027 -0.6946
  135MOL    H5148559   4.010   4.748   1.184  0.0907  0.9929 -0.9811
  135MOL    H5248560   4.010   4.724   1.007 -0.2029 -0.3021 -0.4623
  135MOL    H5348561   4.381   4.729   0.970  0.9247 -0.2049  2.3978
  135MOL    H5448562   4.235   4.703   0.877 -0.7888  2.3739  1.2753
  135MOL    H5548563   4.276   4.575   0.984  1.1450  0.3705 -0.2967
  135MOL    C5648564   4.335   5.008   1.291  0.6272  0.2656  0.9676
  135MOL    C5748565   4.251   5.133   1.328  0.3174  0.2397  0.4849
  135MOL    C5848566   4.162   5.174   1.200 -0.0892  0.3786  0.4168
  135MOL    C5948567   4.058   5.293   1.220 -0.4376  0.1655 -0.5602
  135MOL    C6048568   3.953   5.263   1.332 -0.7024 -0.6300  0.0760
  135MOL    C6148569   3.994   5.312   1.084  0.1573  0.1117 -0.4633
  135MOL    H6248570   4.355   5.022   1.185 -0.2993 -1.6649  0.5232
  135MOL    H6348571   4.434   5.002   1.336  1.3368  0.8779 -0.4726
  135MOL    H6448572   4.178   5.102   1.403  1.2863 -2.4416  0.3356
  135MOL    H6548573   4.232   5.223   1.132  0.0803  0.0969  0.3901
  135MOL    H6648574   4.111   5.092   1.150  0.8294 -0.5668  1.0200
  135MOL    H6748575   4.112   5.381   1.253 -0.4249  0.7926 -2.2010
  135MOL    H6848576   3.887   5.180   1.306 -1.2380 -0.3573  0.5591
  135MOL    H6948577   3.899   5.355   1.356  0.0768  0.1087 -0.9689
  135MOL    H7048578   4.010   5.230   1.419  0.2550 -3.2742 -1.4799
  135MOL    H7148579   3.935   5.402   1.073 -2.0719 -1.3764 -0.9272
  135MOL    H7248580   3.928   5.230   1.056 -2.3220  1.8197  0.1656
  135MOL    H7348581   4.066   5.302   1.003 -0.6560  0.7022 -1.2661
  135MOL    C7448582   4.344   5.252   1.373 -0.0657 -0.5940 -0.2050
  135MOL    C7548583   4.409   5.254   1.517  0.4735 -0.5476 -0.3531
  135MOL    C7648584   4.324   5.331   1.620  0.0237 -0.0455  0.3966
  135MOL    C7748585   4.373   5.312   1.773 -0.2651  0.3138  0.5366
  135MOL    C7848586   4.356   5.169   1.814  0.0135 -0.3987  1.0540
  135MOL    C7948587   4.288   5.411   1.853 -0.2002 -0.1771  0.9006
  135MOL    H8048588   4.297   5.349   1.360 -0.9172 -0.6280  2.2853
  135MOL    H8148589   4.422   5.251   1.297 -1.4430 -0.0764 -1.6504
  135MOL    H8248590   4.420   5.150   1.547 -3.5127 -1.1484 -0.6375
  135MOL    H8348591   4.333   5.435   1.588 -0.3197 -0.7300 -2.0278
  135MOL    H8448592   4.221   5.296   1.611 -0.2973  1.0305 -0.1911
  135MOL    H8548593   4.478   5.334   1.788  0.3741 -1.3867 -1.1645
  135MOL    H8648594   4.375   5.153   1.920  0.7858 -1.5336  0.7576
  135MOL    H8748595   4.421   5.110   1.749 -0.3131 -0.7518  1.0482
  135MOL    H8848596   4.256   5.131   1.792  0.4319 -0.4376 -0.8714
  135MOL    H8948597   4.315   5.516   1.839 -0.0506 -0.3089  0.1572
  135MOL    H9048598   4.183   5.388   1.842 -0.8859  1.6626  3.1672
  135MOL    H9148599   4.302   5.382   1.957  0.0763  2.9737  1.7945
  135MOL    C9248600   4.552   5.307   1.516  0.0133  0.0130  0.7741
  135MOL    C9348601   4.665   5.220   1.442  0.5793  0.1152  0.0494
  135MOL    C9448602   4.794   5.318   1.433  0.3972  0.4061  0.9796
  135MOL    C9548603   4.783   5.428   1.328  0.5197 -0.0312 -0.4203
  135MOL    C9648604   4.910   5.516   1.335 -0.1495  0.3282  0.2348
  135MOL    C9748605   4.753   5.365   1.194  0.3380  0.4033 -0.0948
  135MOL    H9848606   4.557   5.412   1.487 -1.6880 -0.0636  0.1536
  135MOL    H9948607   4.588   5.307   1.619  1.2078 -2.1981  0.3779
  135MOL   H10048608   4.622   5.190   1.347  1.2769  1.9673 -0.8787
  135MOL   H10148609   4.886   5.261   1.423 -0.3802 -1.4085  3.5326
  135MOL   H10248610   4.820   5.363   1.529 -2.1688  2.3634  0.8002
  135MOL   H10348611   4.700   5.496   1.349 -0.3787  0.1515 -4.1118
  135MOL   H10448612   4.903   5.615   1.290  0.4569  0.5242  0.5623
  135MOL   H10548613   4.999   5.467   1.295  1.1407  2.0857  0.8807
  135MOL   H10648614   4.929   5.526   1.442 -1.8102  1.1633  0.4651
  135MOL   H10748615   4.741   5.436   1.112  0.7079 -0.4280 -0.8913
  135MOL   H10848616   4.651   5.327   1.200  0.2089  0.7940  0.2381
  135MOL   H10948617   4.823   5.290   1.157  0.5705  0.2813  0.5983
  135MOL   C11048618   4.695   5.087   1.523 -0.2790 -0.2942  0.1119
  135MOL   C11148619   4.800   4.996   1.458  0.2764  0.1012  0.2702
  135MOL   C11248620   4.835   4.879   1.552 -0.3640 -0.4818 -0.6771
  135MOL   C11348621   4.874   4.908   1.699 -1.0858 -0.0349  0.4476
  135MOL   C11448622   5.000   4.998   1.709  0.8075  0.3552 -0.0320
  135MOL   C11548623   4.907   4.783   1.776  0.0414 -0.5654 -0.5873
  135MOL   H11648624   4.602   5.036   1.548 -0.6006  0.2806  0.0866
  135MOL   H11748625   4.731   5.121   1.620  1.9242  1.2527 -1.2044
  135MOL   H11848626   4.888   5.057   1.438  1.1959 -1.8640 -1.9911
  135MOL   H11948627   4.915   4.820   1.508 -1.6567 -1.7239 -1.4234
  135MOL   H12048628   4.750   4.811   1.558 -0.6628  0.0034  0.9000
  135MOL   H12148629   4.795   4.961   1.751 -0.1260  0.6310  1.2313
  135MOL   H12248630   4.991   5.097   1.665 -2.1902 -0.0305 -0.3514
  135MOL   H12348631   5.082   4.940   1.666 -0.5294 -0.6387 -1.2726
  135MOL   H12448632   5.033   5.002   1.813  0.8139  0.8830 -0.0509
  135MOL   H12548633   4.918   4.808   1.881 -1.2932 -1.1599 -0.2914
  135MOL   H12648634   4.993   4.728   1.738  0.4805 -0.1453 -0.1954
  135MOL   H12748635   4.819   4.718   1.768 -0.5548 -0.1529  2.2695
  135MOL   C12848636   4.768   4.941   1.311 -0.1951 -0.0770  0.6367
  135MOL   C12948637   4.899   4.913   1.228  0.2844  0.0072 -0.1604
  135MOL   C13048638   4.944   5.054   1.183 -0.4845  0.7787 -0.0841
  135MOL   C13148639   5.082   5.065   1.137 -0.2862  0.3751 -0.0341
  135MOL   C13248640   5.093   5.199   1.050  1.1774 -0.3245 -0.4489
  135MOL   C13348641   5.189   5.062   1.249  0.3965  0.1172  0.1207
  135MOL   H13448642   4.705   5.014   1.260  1.3402 -0.2253 -1.5817
  135MOL   H13548643   4.712   4.850   1.328  0.9455 -0.9025  0.0789
  135MOL   H13648644   4.983   4.868   1.282 -1.1186 -1.3596  0.9243
  135MOL   H13748645   4.878   5.090   1.104  0.2815  0.7652 -0.7349
  135MOL   H13848646   4.946   5.130   1.261  0.5363 -1.7180  2.4216
  135MOL   H13948647   5.106   4.987   1.064  1.5686  1.3999 -0.5443
  135MOL   H14048648   5.188   5.212   0.998  1.3002 -1.2912 -0.4672
  135MOL   H14148649   5.080   5.288   1.111  0.9389 -0.4294 -0.3514
  135MOL   H14248650   5.017   5.198   0.972 -0.2453 -2.9226  0.9373
  135MOL   H14348651   5.193   5.145   1.320 -0.2919  0.6768 -0.4896
  135MOL   H14448652   5.183   4.972   1.310  0.3235  0.2299  0.2815
  135MOL   H14548653   5.284   5.080   1.198  0.2935  3.7247  1.0820
  135MOL   C14648654   4.863   4.817   1.103 -0.4816  0.0553 -0.4493
  135MOL   C14748655   4.859   4.667   1.137  0.5746  0.0564 -0.1224
  135MOL   C14848656   4.967   4.596   1.055  0.1035  0.1480  0.9245
  135MOL   C14948657   5.112   4.640   1.089  0.4672  0.1250  0.5978
  135MOL   C15048658   5.165   4.598   1.233  0.4757 -0.3408  0.1368
  135MOL   C15148659   5.199   4.571   0.979 -0.6717 -1.0047  0.3029
  135MOL   H15248660   4.932   4.834   1.020  1.0319  0.4701  0.8800
  135MOL   H15348661   4.768   4.842   1.056 -0.6616  1.4020  0.5989
  135MOL   H15448662   4.889   4.651   1.240  0.2780  2.2808  0.3348
  135MOL   H15548663   4.959   4.489   1.076 -0.9250  0.0447  0.0998
  135MOL   H15648664   4.951   4.606   0.947  2.1716 -4.1239  0.0966
  135MOL   H15748665   5.120   4.749   1.087  0.4679  0.1896  2.4431
  135MOL   H15848666   5.102   4.637   1.313  0.4409  3.7040 -1.7942
  135MOL   H15948667   5.268   4.624   1.255  0.2227  1.4718 -0.7745
  135MOL   H16048668   5.173   4.489   1.235  4.1299 -0.1222 -0.6790
  135MOL   H16148669   5.156   4.590   0.881 -0.4222  0.4627  0.4704
  135MOL   H16248670   5.204   4.463   0.994 -0.0017 -1.1993 -1.2108
  135MOL   H16348671   5.297   4.618   0.981 -0.6163 -1.0651 -0.6498
  135MOL   C16448672   4.713   4.617   1.125 -0.1793  0.4077 -0.5821
  135MOL   C16548673   4.678   4.484   1.196  0.2963  0.1222 -0.1139
  135MOL   C16648674   4.698   4.472   1.347 -0.6607 -0.1518  0.1196
  135MOL   C16748675   4.828   4.408   1.393  0.2486 -0.2304 -0.2550
  135MOL   C16848676   4.826   4.408   1.552  0.2531  0.1352 -0.1973
  135MOL   C16948677   4.871   4.269   1.335 -0.0257 -0.3595 -0.8952
  135MOL   H17048678   4.637   4.689   1.153 -0.3628 -0.3580  0.9436
  135MOL   H17148679   4.705   4.593   1.019  0.3026  1.7785 -0.9472
  135MOL   H17248680   4.750   4.421   1.144 -0.3281 -1.9573  1.4977
  135MOL   H17348681   4.688   4.566   1.401 -1.0857 -0.6144  0.8557
  135MOL   H17448682   4.626   4.399   1.386 -0.4027 -0.5396 -0.1224
  135MOL   H17548683   4.908   4.476   1.362  0.6369 -1.4119 -1.9475
  135MOL   H17648684   4.751   4.339   1.591  0.8465  0.0934  0.8693
  135MOL   H17748685   4.822   4.505   1.600 -1.1546  0.1501 -0.3092
  135MOL   H17848686   4.918   4.369   1.594  0.3469 -0.4219 -0.8981
  135MOL   H17948687   4.961   4.231   1.383 -1.6491 -2.0682  0.8752
  135MOL   H18048688   4.896   4.278   1.229  1.1356  0.2256 -0.5811
  135MOL   H18148689   4.792   4.195   1.350  0.8670 -1.4854 -1.6954
  135MOL   C18248690   4.536   4.435   1.151  0.1503  0.7803  0.8609
  135MOL   C18348691   4.509   4.284   1.145  0.5828 -0.2559  0.1103
  135MOL   C18448692   4.362   4.244   1.128  1.3898 -0.1483 -0.1466
  135MOL   C18548693   4.273   4.278   1.246 -0.3485 -0.2474 -0.0674
  135MOL   C18648694   4.133   4.262   1.210  0.0141 -0.5721  0.6427
  135MOL   C18748695   4.307   4.184   1.356  0.1989 -0.2289 -0.2128
  135MOL   H18848696   4.513   4.486   1.057  1.6593  0.8465  0.5246
  135MOL   H18948697   4.461   4.479   1.217 -3.2866 -0.7623 -1.8130
  135MOL   H19048698   4.543   4.241   1.239  0.4843  1.0300  0.7476
  135MOL   H19148699   4.348   4.138   1.106  0.0420  0.1119 -0.5971
  135MOL   H19248700   4.320   4.296   1.042 -1.0459  1.0035  1.6894
  135MOL   H19348701   4.291   4.377   1.288  1.4201 -1.7244  2.7605
  135MOL   H19448702   4.071   4.270   1.299 -0.2065 -0.8608  0.5159
  135MOL   H19548703   4.111   4.168   1.160 -0.7294 -1.0488  1.8475
  135MOL   H19648704   4.098   4.339   1.142 -0.0291  0.7680  2.1561
  135MOL   H19748705   4.239   4.200   1.439 -1.3215  0.9112 -1.6425
  135MOL   H19848706   4.405   4.209   1.396  1.0961 -0.1867 -2.3795
  135MOL   H19948707   4.304   4.078   1.331 -0.0210 -0.0713 -0.8721
  135MOL   C20048708   4.602   4.224   1.034 -0.0820  0.3738 -0.6052
  135MOL   C20148709   4.607   4.071   1.026 -0.8225  0.2873  0.1685
  135MOL   C20248710   4.670   4.008   1.159 -0.0650  0.0081  1.0334
  135MOL   C20348711   4.656   3.852   1.168 -0.0112  0.5170 -0.4664
  135MOL   C20448712   4.780   3.792   1.227 -0.1091 -0.0817 -0.1490
  135MOL   C20548713   4.522   3.815   1.241 -0.3104 -0.3494  0.1598
  135MOL   H20648714   4.707   4.253   1.033  0.1208 -0.2006  1.1608
  135MOL   H20748715   4.551   4.262   0.946  0.4352  2.6030  0.0195
  135MOL   H20848716   4.507   4.027   1.023 -0.9884  0.6731  0.0699
  135MOL   H20948717   4.775   4.035   1.168  0.8035 -2.8932  0.2768
  135MOL   H21048718   4.629   4.050   1.251  1.5330  0.6038  1.4828
  135MOL   H21148719   4.649   3.823   1.063 -1.6901  2.1699 -0.8454
  135MOL   H21248720   4.819   3.820   1.324  0.1177  0.3700 -0.3707
  135MOL   H21348721   4.861   3.817   1.158 -1.4645  0.6984 -1.4956
  135MOL   H21448722   4.765   3.684   1.233 -0.7935  0.0117 -0.1549
  135MOL   H21548723   4.533   3.842   1.346 -2.1536 -3.1486  1.1192
  135MOL   H21648724   4.520   3.706   1.246  0.1460 -0.4314 -1.3042
  135MOL   H21748725   4.429   3.858   1.203  0.0811  3.2837  3.0143
  135MOL   C21848726   4.686   4.034   0.903  0.2495 -0.1424 -0.1141
  135MOL   C21948727   4.629   4.061   0.762  0.1647 -0.1650 -0.0815
  135MOL   C22048728   4.472   4.056   0.762  0.1690  0.1444  0.8012
  135MOL   C22148729   4.414   4.090   0.624  0.1943  0.2754 -1.3981
  135MOL   C22248730   4.260   4.066   0.635  0.4980  0.1720 -0.0478
  135MOL   C22348731   4.443   4.219   0.554  0.7383  0.2407  0.0021
  135MOL   H22448732   4.789   4.070   0.904  0.7493 -1.3732 -2.7097
  135MOL   H22548733   4.706   3.927   0.911  2.8096  0.3132 -0.2145
  135MOL   H22648734   4.648   4.165   0.738 -1.9654  0.4909  1.0350
  135MOL   H22748735   4.436   3.956   0.788  1.8923 -1.2735 -2.0391
  135MOL   H22848736   4.430   4.125   0.835 -1.0888  1.7704 -1.3895
  135MOL   H22948737   4.450   4.013   0.555  1.5638 -0.5041  0.1279
  135MOL   H23048738   4.215   4.155   0.679  1.5801  0.7026 -0.0163
  135MOL   H23148739   4.206   4.049   0.542  1.0647  2.3283 -0.8034
  135MOL   H23248740   4.235   3.979   0.696  0.2366 -0.6203 -1.2580
  135MOL   H23348741   4.386   4.232   0.462 -0.0039 -0.0234  0.4208
  135MOL   H23448742   4.421   4.303   0.620  1.0016 -0.5497  1.0928
  135MOL   H23548743   4.546   4.222   0.517  0.5850  0.9975 -0.3735
  135MOL   C23648744   4.699   3.986   0.643 -0.7968  0.4237 -0.3401
  135MOL   C23748745   4.855   4.019   0.633 -0.2220  0.9699 -0.6564
  135MOL   C23848746   4.870   4.142   0.532 -0.8724  0.2174 -0.1833
  135MOL   C23948747   5.004   4.220   0.546  0.5992 -0.8768 -0.1641
  135MOL   C24048748   5.044   4.301   0.416  0.2441 -0.2363 -0.2299
  135MOL   C24148749   5.009   4.309   0.674  0.0981  0.4228  0.4847
  135MOL   H24248750   4.652   4.007   0.547  0.1732  0.1192 -0.8853
  135MOL   H24348751   4.680   3.879   0.656  1.8600  0.1304  1.3969
  135MOL   H24448752   4.894   4.055   0.728  1.8492 -0.9566 -0.7313
  135MOL   H24548753   4.788   4.214   0.533 -0.1060  1.0980  0.6277
  135MOL   H24648754   4.859   4.102   0.431 -2.1551  0.1236 -0.0140
  135MOL   H24748755   5.074   4.138   0.563  0.4273 -1.3427 -1.6141
  135MOL   H24848756   4.952   4.345   0.376 -0.6764  0.0098  2.0960
  135MOL   H24948757   5.086   4.230   0.344  0.1639  0.2013 -0.7140
  135MOL   H25048758   5.125   4.369   0.440 -0.7915  1.2501 -0.8710
  135MOL   H25148759   4.974   4.261   0.766 -2.4136 -0.1935 -0.7675
  135MOL   H25248760   4.948   4.399   0.668  1.3120  1.2326  0.0621
  135MOL   H25348761   5.113   4.340   0.688  0.5593 -0.8005 -0.1621
  135MOL   C25448762   4.943   3.895   0.603 -0.0868  0.8365  0.4257
  135MOL   C25548763   4.994   3.812   0.724 -0.2244  0.5398 -0.3659
  135MOL   C25648764   4.970   3.655   0.705 -0.1645 -0.0766  0.3291
  135MOL   C25748765   4.828   3.601   0.710  0.2237 -0.0461 -0.7513
  135MOL   C25848766   4.756   3.620   0.843  0.3811  0.1142 -0.1728
  135MOL   C25948767   4.817   3.451   0.669  0.3692 -0.1785  0.5927
  135MOL   H26048768   4.886   3.837   0.531 -0.3499  0.7638  0.6926
  135MOL   H26148769   5.027   3.929   0.542 -3.2557 -1.5199 -5.6312
  135MOL   H26248770   4.946   3.836   0.819 -1.3283 -0.7262 -0.5899
  135MOL   H26348771   5.032   3.594   0.769  0.7728  2.1777  1.6472
  135MOL   H26448772   5.010   3.639   0.605 -3.7095  3.2649 -1.7646
  135MOL   H26548773   4.770   3.655   0.635 -1.9108 -1.2261  0.0198
  135MOL   H26648774   4.805   3.596   0.938  0.9083 -1.0617 -0.7352
  135MOL   H26748775   4.667   3.557   0.849  1.6327 -1.6254  0.7540
  135MOL   H26848776   4.729   3.723   0.865 -0.0072 -0.2949  1.3392
  135MOL   H26948777   4.843   3.386   0.752 -0.9256  0.0241  1.1672
  135MOL   H27048778   4.719   3.434   0.624  1.0826  1.1244 -1.5219
  135MOL   H27148779   4.890   3.447   0.587  1.0375  1.4877  1.0910
  135MOL   C27248780   5.147   3.838   0.749  0.1268  0.0218  0.6099
  135MOL   C27348781   5.207   3.783   0.878 -0.6135 -0.0441  0.7683
  135MOL   C27448782   5.357   3.750   0.876 -0.0774  0.2064  0.1571
  135MOL   C27548783   5.402   3.640   0.769  0.1287 -0.3087  0.0276
  135MOL   C27648784   5.374   3.494   0.809  0.7183 -0.5843 -0.1759
  135MOL   C27748785   5.546   3.651   0.748 -0.7063  0.5969 -0.1786
  135MOL   H27848786   5.196   3.786   0.666  1.9765 -1.4949  2.5725
  135MOL   H27948787   5.173   3.944   0.746  1.1222 -0.1852  1.3405
  135MOL   H28048788   5.159   3.691   0.910  1.2344 -0.1606  3.3078
  135MOL   H28148789   5.403   3.712   0.967 -0.0651 -1.4893 -0.5404
  135MOL   H28248790   5.402   3.848   0.861  1.7200 -0.4178  1.3008
  135MOL   H28348791   5.352   3.656   0.673 -0.2560 -0.3495  0.2219
  135MOL   H28448792   5.420   3.425   0.739  2.0071 -0.6806  0.7335
  135MOL   H28548793   5.408   3.478   0.912  2.1448  2.4511 -0.1064
  135MOL   H28648794   5.266   3.486   0.801  0.5495  2.2077 -1.2578
  135MOL   H28748795   5.576   3.747   0.706 -0.2452  0.2860 -0.5468
  135MOL   H28848796   5.603   3.637   0.840  0.6381 -1.3789 -1.2677
  135MOL   H28948797   5.577   3.569   0.684  0.2861  1.7056 -1.1288
  135MOL   C29048798   5.192   3.891   0.983  0.4219 -0.1038 -0.3238
  135MOL   C29148799   5.242   3.871   1.130  0.4450 -0.0196 -0.7428
  135MOL   C29248800   5.306   4.008   1.189  0.2819  0.2526 -0.2241
  135MOL   C29348801   5.454   4.034   1.157 -0.0664 -0.1439 -0.1940
  135MOL   C29448802   5.507   4.159   1.242  0.3632  0.0406 -0.4673
  135MOL   C29548803   5.551   3.912   1.170 -0.2891 -0.1168  1.1787
  135MOL   H29648804   5.243   3.977   0.941  1.3054  1.5782  3.9007
  135MOL   H29748805   5.087   3.921   0.981 -0.1924 -2.2239 -1.6689
  135MOL   H29848806   5.310   3.787   1.145  0.0868  0.1167  1.7564
  135MOL   H29948807   5.294   4.004   1.297 -1.9995  0.1588 -0.4612
  135MOL   H30048808   5.230   4.082   1.165 -0.0822  0.2365  0.8661
  135MOL   H30148809   5.460   4.081   1.059 -1.7575 -0.0375 -0.2551
  135MOL   H30248810   5.514   4.131   1.347  1.3267  0.6804 -0.3618
  135MOL   H30348811   5.426   4.232   1.236  1.4527  1.2916 -0.1690
  135MOL   H30448812   5.596   4.203   1.198  1.1426 -1.2501 -0.2020
  135MOL   H30548813   5.570   3.863   1.074  0.3081 -1.0964  1.7884
  135MOL   H30648814   5.532   3.848   1.256  2.3578  0.0349  1.9129
  135MOL   H30748815   5.648   3.956   1.195 -0.2547 -0.3579  1.4732
  135MOL   C30848816   5.121   3.830   1.222 -0.5360 -0.3386  0.1763
  135MOL   C30948817   5.166   3.780   1.366 -0.1159 -0.9435  0.1420
  135MOL   C31048818   5.106   3.882   1.475 -0.1320 -0.3561 -0.3533
  135MOL   C31148819   5.187   3.882   1.608  0.2942  0.4282  0.0131
  135MOL   C31248820   5.313   3.969   1.609  0.2212  0.4377 -0.1262
  135MOL   C31348821   5.102   3.907   1.728  0.6721 -0.7319 -0.1872
  135MOL   H31448822   5.056   3.917   1.232  0.4794  0.3336  1.1490
  135MOL   H31548823   5.050   3.759   1.180 -0.2129  0.1077 -1.1423
  135MOL   H31648824   5.274   3.795   1.373 -0.1280  0.9300 -2.8849
  135MOL   H31748825   5.002   3.854   1.491 -0.0518 -0.6134 -0.2826
  135MOL   H31848826   5.088   3.981   1.433  3.5429  0.8661  0.7175
  135MOL   H31948827   5.232   3.783   1.614 -2.1290 -0.6404  1.4114
  135MOL   H32048828   5.380   3.940   1.689  2.9866  0.2411 -2.4338
  135MOL   H32148829   5.300   4.077   1.608  1.9439  0.6517 -0.8065
  135MOL   H32248830   5.377   3.951   1.523 -2.1907 -1.2776 -1.6401
  135MOL   H32348831   5.058   4.006   1.730  2.6126  0.1514  0.6255
  135MOL   H32448832   5.019   3.837   1.734  2.4380 -2.9669 -0.9080
  135MOL   H32548833   5.158   3.899   1.822 -0.4559  0.4471  0.6004
  135MOL   C32648834   5.134   3.629   1.393  0.1586 -0.1215 -0.3569
  135MOL   C32748835   5.209   3.527   1.298  0.2333 -0.4308  0.5665
  135MOL   C32848836   5.136   3.386   1.305  0.6302  0.0618 -0.2975
  135MOL   C32948837   4.987   3.379   1.258  0.1753 -0.0380 -0.1863
  135MOL   C33048838   4.976   3.392   1.102  0.0711  0.4611  0.8178
  135MOL   C33148839   4.919   3.248   1.306  0.6042  0.7764  0.7000
  135MOL   H33248840   5.026   3.619   1.390  0.2561 -1.5776  0.4186
  135MOL   H33348841   5.172   3.601   1.492  1.0217 -0.1732 -0.7029
  135MOL   H33448842   5.197   3.560   1.195  1.1153  3.3545  1.5710
  135MOL   H33548843   5.176   3.323   1.226  1.3292  2.1297 -1.6221
  135MOL   H33648844   5.149   3.346   1.406  2.0726 -0.9232 -0.8590
  135MOL   H33748845   4.930   3.462   1.298  1.1083 -0.0023  1.0941
  135MOL   H33848846   5.024   3.479   1.059  1.1719 -0.9837 -0.9297
  135MOL   H33948847   4.871   3.390   1.072  0.0881 -1.5879  0.7880
  135MOL   H34048848   5.024   3.306   1.056 -0.7324 -0.0991  1.0028
  135MOL   H34148849   4.950   3.166   1.241 -0.9178  0.3243  0.5298
  135MOL   H34248850   4.917   3.221   1.412 -0.6172 -3.6536 -0.3469
  135MOL   H34348851   4.811   3.251   1.300  0.2742 -2.8441  2.8650
  135MOL   C34448852   5.368   3.518   1.314 -0.0124  0.1903 -0.3281
  135MOL   C34548853   5.453   3.484   1.193  0.2961 -0.0099 -0.6626
  135MOL   C34648854   5.581   3.405   1.216  0.9333  0.3580  0.3956
  135MOL   C34748855   5.690   3.482   1.299 -0.0768 -0.4102 -0.0856
  135MOL   C34848856   5.751   3.606   1.231 -0.2851  0.6483 -0.1471
  135MOL   C34948857   5.798   3.383   1.343 -0.3302  1.0388 -0.8347
  135MOL   H35048858   5.394   3.449   1.394 -0.3299 -0.1832 -0.5442
  135MOL   H35148859   5.398   3.612   1.361  0.6357 -0.2724  0.1851
  135MOL   H35248860   5.482   3.569   1.132  0.0063 -3.1565 -5.4152
  135MOL   H35348861   5.551   3.318   1.274  0.8288 -0.8415 -1.3935
  135MOL   H35448862   5.632   3.352   1.135  1.6812  0.7352  0.6161
  135MOL   H35548863   5.639   3.527   1.384  0.6174  0.7252 -0.2624
  135MOL   H35648864   5.817   3.561   1.157  0.8828 -1.4659  2.1004
  135MOL   H35748865   5.685   3.654   1.159 -1.3582  0.9997  1.0559
  135MOL   H35848866   5.816   3.662   1.298  2.0707 -0.2205 -1.6696
  135MOL   H35948867   5.834   3.310   1.270 -1.8333  2.1807 -2.7495
  135MOL   H36048868   5.758   3.329   1.429  0.8574  2.9561  0.9702
  135MOL   H36148869   5.884   3.430   1.391  1.6229 -1.6737 -1.5525
  135MOL   H36248870   5.396   3.417   1.129  1.4699 -2.6036  0.8892
  136MOL     C148871   4.357   6.669   1.500  0.4287  0.7237  0.4564
  136MOL     C248872   4.360   6.794   1.413 -0.4199 -0.0712 -0.6634
  136MOL     C348873   4.231   6.874   1.430  0.3009 -0.5555  0.1311
  136MOL     C448874   4.196   6.911   1.576 -0.3274 -0.2884  0.4425
  136MOL     C548875   4.100   7.026   1.568  0.3778 -0.0402  0.0000
  136MOL     C648876   4.310   6.940   1.671 -0.7493  0.2329 -0.0071
  136MOL     H748877   4.275   6.603   1.472  2.4223 -1.9018  0.6007
  136MOL     H848878   4.456   6.623   1.494  0.2147  0.4449 -1.2446
  136MOL     H948879   4.450   6.848   1.440  0.6805 -1.5415 -1.3154
  136MOL    H1048880   4.243   6.963   1.369  1.1412  0.9260  2.3776
  136MOL    H1148881   4.148   6.814   1.392  1.4815  0.3274 -4.0295
  136MOL    H1248882   4.142   6.823   1.611 -1.6056  0.4690  0.4062
  136MOL    H1348883   4.102   7.086   1.659 -0.8138 -0.9154  0.6055
  136MOL    H1448884   4.133   7.103   1.498  0.7650  0.3134  0.5659
  136MOL    H1548885   3.996   6.995   1.562  0.7536 -1.4514  0.6186
  136MOL    H1648886   4.277   6.978   1.768  1.9173 -0.6823  1.3219
  136MOL    H1748887   4.380   7.016   1.640  0.9539 -1.2722  0.0551
  136MOL    H1848888   4.363   6.852   1.710 -0.0218  0.9323  0.5959
  136MOL    H1948889   4.325   6.692   1.601  0.4129 -0.6097  0.7657
  136MOL    C2048890   4.365   6.745   1.269 -0.5870 -0.1936  0.0046
  136MOL    C2148891   4.499   6.773   1.201 -0.0412  0.6833 -0.0928
  136MOL    C2248892   4.531   6.669   1.092  0.2234 -0.3185 -0.3552
  136MOL    C2348893   4.550   6.526   1.134 -0.3993 -0.4489 -0.0008
  136MOL    C2448894   4.582   6.434   1.010  0.6392 -0.7848  0.4604
  136MOL    C2548895   4.662   6.508   1.239 -0.1582 -0.1653  0.9178
  136MOL    H2648896   4.336   6.641   1.256 -0.3987 -0.3197  0.6043
  136MOL    H2748897   4.289   6.798   1.211 -0.6863 -2.5518 -2.0815
  136MOL    H2848898   4.563   6.759   1.288  0.3315 -2.2474 -0.7739
  136MOL    H2948899   4.619   6.701   1.037 -0.9764  3.5227 -0.2099
  136MOL    H3048900   4.443   6.676   1.029 -1.5068 -2.3604  1.7141
  136MOL    H3148901   4.452   6.486   1.163 -0.5654 -1.0708 -1.3849
  136MOL    H3248902   4.509   6.465   0.934  0.7856  0.1708  0.6977
  136MOL    H3348903   4.584   6.329   1.039  1.2060 -0.8407  0.2045
  136MOL    H3448904   4.682   6.455   0.972 -0.4101  1.2201 -1.3165
  136MOL    H3548905   4.752   6.556   1.201 -0.1067 -0.5962  0.4900
  136MOL    H3648906   4.630   6.552   1.333  2.4132  3.1220  0.3297
  136MOL    H3748907   4.689   6.404   1.259  0.7869  0.0001  0.5390
  136MOL    C3848908   4.512   6.918   1.146 -0.0411  0.0348  0.2528
  136MOL    C3948909   4.650   6.980   1.160  0.3395 -0.3627  0.9782
  136MOL    C4048910   4.662   7.044   1.301 -0.0591  0.2829  0.5817
  136MOL    C4148911   4.772   7.017   1.401 -0.0621 -0.2209 -0.4904
  136MOL    C4248912   4.797   6.871   1.435 -0.5073  0.1120 -0.0845
  136MOL    C4348913   4.759   7.105   1.527  0.2193  0.6170  0.0311
  136MOL    H4448914   4.428   6.980   1.178  0.1554  1.5213 -2.0346
  136MOL    H4548915   4.493   6.917   1.039  1.5004  2.8474 -0.0772
  136MOL    H4648916   4.725   6.900   1.161 -1.2851 -2.0090 -1.1559
  136MOL    H4748917   4.571   7.020   1.357 -0.4132  0.6549  0.1715
  136MOL    H4848918   4.635   7.150   1.296 -1.6273 -0.2317 -4.4403
  136MOL    H4948919   4.857   7.044   1.339  0.1159 -1.2490 -0.6958
  136MOL    H5048920   4.874   6.848   1.508 -0.3613 -2.2547 -0.9240
  136MOL    H5148921   4.706   6.817   1.461  0.1547 -0.0662  1.9794
  136MOL    H5248922   4.829   6.821   1.344  0.1767  0.3557  0.0190
  136MOL    H5348923   4.739   7.211   1.510 -1.2421  0.1864 -0.9861
  136MOL    H5448924   4.843   7.106   1.598 -1.0823  0.9729  1.5984
  136MOL    H5548925   4.669   7.065   1.573  0.6832 -0.1602  0.2636
  136MOL    C5648926   4.688   7.084   1.045  0.1288 -0.6344 -0.5104
  136MOL    C5748927   4.743   7.009   0.918  0.0576  0.7332  0.0852
  136MOL    C5848928   4.894   6.983   0.944  0.5443 -0.4519 -0.6532
  136MOL    C5948929   4.969   6.883   0.847  0.5336 -0.2700  0.0028
  136MOL    C6048930   4.942   6.741   0.897 -0.2034  0.0514 -0.2248
  136MOL    C6148931   5.117   6.929   0.822  0.1079  0.3484 -0.7324
  136MOL    H6248932   4.757   7.154   1.092 -0.8711  0.5657 -0.7996
  136MOL    H6348933   4.597   7.138   1.018 -0.6402 -0.5642  2.0617
  136MOL    H6448934   4.690   6.915   0.905 -0.4627  1.0630 -0.1881
  136MOL    H6548935   4.943   7.081   0.952 -0.1827  0.0380 -2.0164
  136MOL    H6648936   4.899   6.939   1.044  1.1559  0.5658 -0.2170
  136MOL    H6748937   4.928   6.884   0.746 -1.4867 -2.4082  0.7678
  136MOL    H6848938   4.842   6.706   0.922  0.1395  0.2143  1.4038
  136MOL    H6948939   4.996   6.723   0.990 -2.0653 -1.5104  0.5900
  136MOL    H7048940   4.986   6.669   0.827  0.7728 -0.5734  1.0277
  136MOL    H7148941   5.139   6.947   0.717 -0.9844  1.8079 -0.7394
  136MOL    H7248942   5.176   6.845   0.857 -0.1168  0.6650  0.4530
  136MOL    H7348943   5.149   7.014   0.882  0.1771  0.5555 -1.0614
  136MOL    C7448944   4.721   7.086   0.780  0.5370  0.0339 -0.5207
  136MOL    C7548945   4.579   7.091   0.726 -0.3743 -0.9032 -0.0856
  136MOL    C7648946   4.550   6.958   0.641  0.2279 -0.3504  0.3829
  136MOL    C7748947   4.405   6.927   0.597 -0.8170 -0.6147  0.4866
  136MOL    C7848948   4.329   6.898   0.721  0.4911 -0.6019  0.5470
  136MOL    C7948949   4.408   6.805   0.507 -0.2408 -0.3996 -0.1391
  136MOL    H8048950   4.783   7.043   0.701  2.7073  0.7922  0.7136
  136MOL    H8148951   4.757   7.188   0.792  2.1198 -0.6187  0.4618
  136MOL    H8248952   4.505   7.103   0.805  0.2470  0.9456  0.2304
  136MOL    H8348953   4.624   6.941   0.563  2.3275  2.7927  1.6010
  136MOL    H8448954   4.581   6.876   0.705  0.1973 -0.7497 -0.1121
  136MOL    H8548955   4.368   7.018   0.550 -0.8126  0.1447  1.9419
  136MOL    H8648956   4.374   6.814   0.773 -2.8160 -0.9039  3.0799
  136MOL    H8748957   4.227   6.868   0.696  1.1382 -1.8617 -0.6936
  136MOL    H8848958   4.320   6.984   0.787 -3.3319  0.0939 -0.7334
  136MOL    H8948959   4.471   6.730   0.554  1.3717  0.5964 -0.6748
  136MOL    H9048960   4.308   6.763   0.494  0.6608 -2.2829 -1.1517
  136MOL    H9148961   4.459   6.834   0.416 -0.8271  1.1228 -0.0005
  136MOL    C9248962   4.548   7.218   0.640  0.7566  0.1869 -0.2672
  136MOL    C9348963   4.621   7.238   0.504 -0.1719  0.4245  0.0422
  136MOL    C9448964   4.529   7.206   0.387 -0.6716 -0.0671  0.1990
  136MOL    C9548965   4.612   7.175   0.266 -0.5081 -0.1882 -0.5558
  136MOL    C9648966   4.695   7.044   0.288 -0.3327 -0.2052  0.2983
  136MOL    C9748967   4.529   7.166   0.135 -0.3641 -0.0534  0.2525
  136MOL    H9848968   4.440   7.233   0.630  0.4445 -2.7122 -1.8351
  136MOL    H9948969   4.571   7.307   0.699 -1.0910  1.3116 -1.1776
  136MOL   H10048970   4.708   7.174   0.520  0.3381  1.6522  2.3096
  136MOL   H10148971   4.460   7.288   0.367 -0.8985 -0.4293 -0.5223
  136MOL   H10248972   4.465   7.121   0.407 -0.6502  0.0819  0.9057
  136MOL   H10348973   4.688   7.252   0.262  0.2928 -0.8265  1.7544
  136MOL   H10448974   4.726   7.018   0.389  1.2365  0.4856  0.0008
  136MOL   H10548975   4.765   7.024   0.207 -0.0029  1.2265  0.2132
  136MOL   H10648976   4.621   6.965   0.280 -0.6101  0.2064 -1.3532
  136MOL   H10748977   4.456   7.086   0.125  1.1592 -1.4465  0.1759
  136MOL   H10848978   4.598   7.167   0.050 -1.6110  0.4336 -0.7860
  136MOL   H10948979   4.464   7.253   0.119 -0.9765 -1.0859 -3.4397
  136MOL   C11048980   4.671   7.383   0.501  0.6950  0.0875  0.6328
  136MOL   C11148981   4.808   7.406   0.573 -0.2720 -0.2502 -0.1286
  136MOL   C11248982   4.920   7.343   0.488 -0.5967  0.0974  0.9249
  136MOL   C11348983   4.996   7.235   0.574  1.0473  0.0073  0.4002
  136MOL   C11448984   5.089   7.308   0.680 -0.5353 -0.4039 -0.1755
  136MOL   C11548985   5.074   7.145   0.481  0.3256 -0.2397  0.2638
  136MOL   H11648986   4.586   7.443   0.535  1.6488  1.5405  0.5258
  136MOL   H11748987   4.690   7.420   0.400 -0.9017  2.0228  1.0049
  136MOL   H11848988   4.796   7.366   0.673 -0.7854  1.0499  0.3496
  136MOL   H11948989   4.989   7.422   0.461 -0.8754 -0.6405 -2.0629
  136MOL   H12048990   4.886   7.296   0.396  0.5028 -0.0386  0.5858
  136MOL   H12148991   4.927   7.170   0.628 -1.0222  1.5212 -0.3890
  136MOL   H12248992   5.149   7.237   0.738 -0.0569 -0.0901 -0.2865
  136MOL   H12348993   5.023   7.362   0.748 -0.3671  1.3154 -1.3664
  136MOL   H12448994   5.152   7.388   0.642  1.2328 -1.8207 -0.3106
  136MOL   H12548995   5.125   7.069   0.540  0.9245  0.9832  1.3453
  136MOL   H12648996   5.149   7.211   0.436 -0.1362 -1.1115 -1.8267
  136MOL   H12748997   5.011   7.094   0.408  1.3331 -0.5773 -0.3776
  136MOL   C12848998   4.847   7.555   0.601 -0.2857 -0.6352 -0.2550
  136MOL   C12948999   4.762   7.653   0.685 -0.7853 -0.1402  0.2112
  136MOL   C13049000   4.701   7.577   0.802 -0.3871  0.6244 -0.4980
  136MOL   C13149001   4.796   7.540   0.924  0.3162  0.0006  1.0370
  136MOL   C13249002   4.845   7.662   1.002 -0.3737  0.3800  0.2981
  136MOL   C13349003   4.729   7.437   1.015  0.0853  0.1603 -0.2043
  136MOL   H13449004   4.865   7.609   0.508 -0.4762 -0.0929  0.0247
  136MOL   H13549005   4.940   7.553   0.657 -0.0836  1.5151 -0.4705
  136MOL   H13649006   4.838   7.718   0.731  0.9122 -2.2008  0.3744
  136MOL   H13749007   4.630   7.650   0.841 -1.1691  0.7897 -2.2047
  136MOL   H13849008   4.652   7.487   0.765 -2.0177  0.9681  0.7967
  136MOL   H13949009   4.881   7.497   0.870 -0.0864  0.0094  0.3851
  136MOL   H14049010   4.773   7.743   0.993 -0.7832  0.0377  0.4924
  136MOL   H14149011   4.941   7.702   0.968 -0.1540  0.4197  0.9588
  136MOL   H14249012   4.851   7.629   1.106 -0.6573 -1.4344 -0.2350
  136MOL   H14349013   4.690   7.345   0.972 -0.2623 -0.1892  0.8638
  136MOL   H14449014   4.793   7.412   1.099 -0.0584 -2.2355 -0.7715
  136MOL   H14549015   4.634   7.470   1.057 -0.3048  0.3750 -1.2217
  136MOL   C14649016   4.658   7.731   0.599 -0.0928  0.4889 -0.1641
  136MOL   C14749017   4.631   0.115   0.664  0.7314  0.4228  0.0373
  136MOL   C14849018   4.505   0.180   0.608 -0.0667 -0.9744  0.0063
  136MOL   C14949019   4.377   0.112   0.653  0.2496  0.0363  0.2733
  136MOL   C15049020   4.338   0.143   0.793  0.9705 -0.2145  0.0046
  136MOL   C15149021   4.266   0.149   0.549 -0.2041  0.0245  0.2630
  136MOL   H15249022   4.574   7.663   0.611 -1.3418  2.4860  3.1518
  136MOL   H15349023   4.689   7.741   0.495  0.1197  1.9518  0.0264
  136MOL   H15449024   4.621   0.112   0.773  0.4073  0.0364 -0.0053
  136MOL   H15549025   4.485   0.287   0.616 -0.8065 -1.0291 -1.1342
  136MOL   H15649026   4.511   0.157   0.502 -0.6247 -0.0902 -0.2211
  136MOL   H15749027   4.387   0.004   0.644  0.2962  0.0111  0.6239
  136MOL   H15849028   4.345   0.251   0.810  0.5953 -0.0925 -0.6016
  136MOL   H15949029   4.405   0.109   0.872  1.7134 -0.4305 -0.7068
  136MOL   H16049030   4.233   0.117   0.805  0.4252  1.7302 -0.2881
  136MOL   H16149031   4.284   0.101   0.453 -0.1868  0.8964 -0.1758
  136MOL   H16249032   4.244   0.253   0.526 -0.3258 -0.4064 -1.6811
  136MOL   H16349033   4.176   0.100   0.584 -0.4727  0.6258  0.4217
  136MOL   C16449034   4.748   0.208   0.633 -0.1513  0.0417 -0.2016
  136MOL   C16549035   4.755   0.334   0.729 -0.6747  0.8186  0.5610
  136MOL   C16649036   4.847   0.288   0.846  0.4530  0.1815  0.3902
  136MOL   C16749037   4.832   0.381   0.974 -0.0447 -1.0575 -0.5058
  136MOL   C16849038   4.692   0.376   1.041  0.2781  0.5345 -0.0261
  136MOL   C16949039   4.941   0.357   1.079  0.0009  0.6038 -0.3001
  136MOL   H17049040   4.842   0.153   0.642 -0.2523  0.3032  3.3490
  136MOL   H17149041   4.735   0.240   0.530 -2.2894  0.0317  0.0473
  136MOL   H17249042   4.660   0.366   0.771 -1.2863  0.1735 -0.3001
  136MOL   H17349043   4.814   0.192   0.887  1.5032 -0.0807  0.6355
  136MOL   H17449044   4.949   0.271   0.813  0.9832  2.3725  0.8201
  136MOL   H17549045   4.837   0.486   0.945 -0.8792 -0.4178  1.6151
  136MOL   H17649046   4.615   0.428   0.985 -0.5695 -0.0532  0.5764
  136MOL   H17749047   4.709   0.420   1.140 -1.1115 -1.3863  1.0953
  136MOL   H17849048   4.674   0.271   1.062 -3.1582  0.9786 -0.4908
  136MOL   H17949049   4.915   0.271   1.140  1.0365  0.6587  0.2272
  136MOL   H18049050   4.940   0.447   1.141 -2.7659 -0.6502  1.5578
  136MOL   H18149051   5.041   0.348   1.037  0.3673  2.2389  0.1463
  136MOL   C18249052   4.825   0.452   0.646  0.2522  0.2827  0.4616
  136MOL   C18349053   4.731   0.540   0.567  0.1038 -1.3088 -0.0624
  136MOL   C18449054   4.726   0.683   0.625  0.8270  0.4390 -0.3076
  136MOL   C18549055   4.653   0.701   0.758 -0.3027  0.3365 -0.5225
  136MOL   C18649056   4.686   0.841   0.810  0.3850  0.3263 -0.4074
  136MOL   C18749057   4.508   0.676   0.732 -0.2426 -0.7905  0.3647
  136MOL   H18849058   4.911   0.416   0.590 -0.1148 -0.3286  0.2917
  136MOL   H18949059   4.873   0.515   0.721  0.3194  0.0228  0.6369
  136MOL   H19049060   4.633   0.494   0.578 -0.9870  1.4659  2.2439
  136MOL   H19149061   4.692   0.758   0.555  0.7332  1.2047  0.5461
  136MOL   H19249062   4.830   0.715   0.630  1.0059 -0.0363 -0.9301
  136MOL   H19349063   4.682   0.628   0.833  0.2793  2.2234  1.1622
  136MOL   H19449064   4.628   0.902   0.741 -1.8466 -1.1452  0.1554
  136MOL   H19549065   4.792   0.867   0.806  0.8902 -1.7810 -0.9610
  136MOL   H19649066   4.654   0.854   0.914 -2.8789 -3.2677 -0.8940
  136MOL   H19749067   4.444   0.704   0.816  1.5998  0.8461  1.2425
  136MOL   H19849068   4.490   0.570   0.713  1.2219 -1.1181  0.7734
  136MOL   H19949069   4.456   0.734   0.656  0.5567 -2.4148 -1.4614
  136MOL   C20049070   4.770   0.543   0.421 -0.2390  0.3312  0.4573
  136MOL   C20149071   4.677   0.610   0.317 -0.9838 -0.3696  0.4463
  136MOL   C20249072   4.622   0.506   0.219 -1.2638  0.6501  0.2693
  136MOL   C20349073   4.503   0.430   0.270 -0.2615 -0.4717 -0.1422
  136MOL   C20449074   4.373   0.513   0.233 -0.0169 -0.0042 -0.7222
  136MOL   C20549075   4.499   0.286   0.214 -0.1499  0.6060  1.1670
  136MOL   H20649076   4.781   0.439   0.391 -0.6617  0.8562 -1.5609
  136MOL   H20749077   4.867   0.591   0.430  0.4131 -0.6559 -1.0340
  136MOL   H20849078   4.598   0.668   0.365 -1.2287 -0.0651 -0.3084
  136MOL   H20949079   4.614   0.557   0.123 -1.4507  1.0963  0.5218
  136MOL   H21049080   4.700   0.432   0.201 -0.3807  1.9272 -1.3934
  136MOL   H21149081   4.514   0.414   0.377 -1.4175  0.2963  0.1008
  136MOL   H21249082   4.290   0.452   0.270 -0.1413  2.0512  2.5325
  136MOL   H21349083   4.369   0.539   0.128 -0.4397 -0.2469 -0.7664
  136MOL   H21449084   4.363   0.606   0.288  0.9203 -0.5406  0.3836
  136MOL   H21549085   4.403   0.237   0.230 -0.1447  0.7746  1.7048
  136MOL   H21649086   4.580   0.228   0.258  1.3769  3.1468  1.8152
  136MOL   H21749087   4.528   0.290   0.108 -1.0481  2.2148  0.9724
  136MOL   C21849088   4.750   0.726   0.239  0.3774  0.2142  0.2672
  136MOL   C21949089   4.656   0.830   0.164 -0.1493  0.1484  0.0949
  136MOL   C22049090   4.703   0.867   0.017  0.2177 -0.0981 -0.2470
  136MOL   C22149091   4.686   0.754   7.666  0.5665 -0.8028 -0.2711
  136MOL   C22249092   4.545   0.743   7.611  1.0534  0.6864  0.3316
  136MOL   C22349093   4.789   0.775   7.551 -0.0329 -0.4521 -0.6507
  136MOL   H22449094   4.816   0.790   0.298 -0.6103  2.3726 -0.9038
  136MOL   H22549095   4.820   0.682   0.168  0.4128  3.7686 -2.0279
  136MOL   H22649096   4.568   0.773   0.137  0.7396 -2.1247  1.8169
  136MOL   H22749097   4.650   0.952   7.727  1.9891  0.7093 -0.9246
  136MOL   H22849098   4.806   0.905   0.019 -0.4951  1.8485  1.4601
  136MOL   H22949099   4.707   0.660   7.718  1.6669 -0.1203  0.5575
  136MOL   H23049100   4.506   0.837   7.571  0.0109  0.8467  1.6833
  136MOL   H23149101   4.540   0.672   7.529 -2.7371 -0.4797  1.4916
  136MOL   H23249102   4.468   0.717   7.683  0.2020  2.6317  0.1564
  136MOL   H23349103   4.886   0.790   7.598  0.2260 -1.5618 -0.8326
  136MOL   H23449104   4.815   0.687   7.493  2.7494  0.5772 -1.0541
  136MOL   H23549105   4.775   0.861   7.485  1.0119 -1.2464 -1.9282
  136MOL   C23649106   4.638   0.951   0.253  0.1495 -0.8972  0.2963
  136MOL   C23749107   4.504   1.023   0.224  0.3713  0.1289  0.0389
  136MOL   C23849108   4.515   1.165   0.284  0.0488 -0.0495 -0.4080
  136MOL   C23949109   4.567   1.278   0.198 -0.1798 -0.4157 -0.5844
  136MOL   C24049110   4.612   1.398   0.283  0.2795  0.4938 -0.3540
  136MOL   C24149111   4.689   1.247   0.108  1.0040 -0.6273 -0.7000
  136MOL   H24249112   4.727   1.011   0.234 -0.8104  1.3369  2.6272
  136MOL   H24349113   4.644   0.921   0.357  2.2505 -0.6210  0.2679
  136MOL   H24449114   4.491   1.026   0.116  0.1168  1.6133  0.1040
  136MOL   H24549115   4.570   1.162   0.379 -0.2871  2.2341 -0.1289
  136MOL   H24649116   4.412   1.194   0.305 -0.3210 -1.1027 -0.7189
  136MOL   H24749117   4.482   1.302   0.135  0.4714  0.9436 -0.9653
  136MOL   H24849118   4.656   1.469   0.214 -1.1660  0.3179 -1.4818
  136MOL   H24949119   4.685   1.358   0.353  1.8487  1.7560 -1.2496
  136MOL   H25049120   4.527   1.441   0.336  0.6139 -1.3692  1.7823
  136MOL   H25149121   4.662   1.166   0.039  2.2261 -0.2604 -1.6152
  136MOL   H25249122   4.762   1.209   0.179 -0.1833 -2.5495 -0.4421
  136MOL   H25349123   4.718   1.324   0.037  2.6184 -0.0981  0.5291
  136MOL   C25449124   4.390   0.948   0.285 -0.1985  0.4973  0.5396
  136MOL   C25549125   4.252   0.966   0.225  0.1986  0.1949 -0.9248
  136MOL   C25649126   4.224   0.858   0.117 -0.4926  0.3338 -0.0726
  136MOL   C25749127   4.137   0.900   7.745 -0.3073  0.5783  0.1364
  136MOL   C25849128   4.103   0.782   7.656 -0.0701  0.1113 -0.2250
  136MOL   C25949129   4.191   1.020   7.669  0.1732 -0.5476 -0.0224
  136MOL   H26049130   4.418   0.842   0.288  1.6238  0.9722  0.6945
  136MOL   H26149131   4.394   0.965   0.393 -1.1024  2.8399  0.2399
  136MOL   H26249132   4.240   1.059   0.169 -1.3934  1.5727  1.5933
  136MOL   H26349133   4.187   0.766   0.162 -1.9702  0.9311 -0.0355
  136MOL   H26449134   4.320   0.820   0.084  0.7368  1.5558  2.0039
  136MOL   H26549135   4.046   0.940   0.038  0.9794  2.0162  1.5281
  136MOL   H26649136   4.026   0.807   7.583 -1.5291 -2.9372  0.1842
  136MOL   H26749137   4.066   0.697   7.713 -1.2026  0.2382 -0.7486
  136MOL   H26849138   4.200   0.763   7.609  0.6890  0.2736  1.2511
  136MOL   H26949139   4.139   1.025   7.574 -1.2220  0.6921  0.7823
  136MOL   H27049140   4.159   1.111   7.720 -0.0092  0.6228 -2.1422
  136MOL   H27149141   4.298   1.012   7.649  0.5314  0.3651  1.4564
  136MOL   C27249142   4.138   0.983   0.336  0.7108 -0.2080 -0.5678
  136MOL   C27349143   4.114   1.123   0.407 -0.3461  0.2099  0.3547
  136MOL   C27449144   4.074   1.245   0.320 -0.3003  0.3846 -0.4493
  136MOL   C27549145   4.107   1.382   0.385  0.1716 -0.2627 -0.1279
  136MOL   C27649146   4.032   1.499   0.308 -0.3635 -0.1690  0.7120
  136MOL   C27749147   4.255   1.420   0.395 -0.2966 -0.5245 -0.3218
  136MOL   H27849148   4.046   0.958   0.283 -0.2844  0.3758  0.8579
  136MOL   H27949149   4.163   0.909   0.411  2.0031  1.2848  0.5247
  136MOL   H28049150   4.212   1.148   0.448 -1.2098  1.5079  1.6878
  136MOL   H28149151   3.967   1.240   0.299 -0.0416  0.3373 -1.7566
  136MOL   H28249152   4.132   1.251   0.228 -0.3252 -0.8658 -0.5568
  136MOL   H28349153   4.069   1.385   0.487  1.2721 -2.5392  0.3839
  136MOL   H28449154   3.925   1.478   0.305 -0.5768  0.9348  0.6133
  136MOL   H28549155   4.043   1.596   0.356  1.2802 -0.3734  0.7646
  136MOL   H28649156   4.063   1.509   0.204  0.3994  2.0926  1.1504
  136MOL   H28749157   4.324   1.355   0.449  0.6008  0.1500 -0.6481
  136MOL   H28849158   4.301   1.415   0.296 -0.4841  1.7453 -0.5406
  136MOL   H28949159   4.258   1.523   0.431 -1.5806  0.0498 -1.8177
  136MOL   C29049160   4.018   1.106   0.528  0.3936 -0.2499 -0.2792
  136MOL   C29149161   4.062   1.029   0.652  1.2693  0.7370 -1.2334
  136MOL   C29249162   4.140   1.100   0.764  0.3457 -0.1576  0.0233
  136MOL   C29349163   4.275   1.169   0.722  0.2361  0.3573  0.4918
  136MOL   C29449164   4.327   1.269   0.824 -0.1296 -0.1311 -0.5868
  136MOL   C29549165   4.393   1.068   0.697  0.7522 -0.0696  0.1442
  136MOL   H29649166   3.963   1.198   0.551 -0.2834 -0.8648  0.5968
  136MOL   H29749167   3.944   1.043   0.480 -0.3298 -0.4750  1.1240
  136MOL   H29849168   4.128   0.949   0.617  1.6215  0.4814  0.0043
  136MOL   H29949169   4.147   1.031   0.848  1.5983 -0.2058 -0.1004
  136MOL   H30049170   4.074   1.179   0.798 -2.3498 -2.5329  0.5122
  136MOL   H30149171   4.244   1.219   0.630 -0.3100  2.4750  1.7880
  136MOL   H30249172   4.435   1.283   0.817 -0.6384  3.5175 -2.1710
  136MOL   H30349173   4.308   1.226   0.922  1.0270 -1.9729 -1.1434
  136MOL   H30449174   4.276   1.364   0.806  0.5872 -0.1313 -2.7444
  136MOL   H30549175   4.487   1.110   0.660  1.7571 -1.1176  1.4482
  136MOL   H30649176   4.358   1.000   0.619 -0.4999 -0.3766  0.9717
  136MOL   H30749177   4.412   1.011   0.788 -0.5222 -0.9073 -0.1090
  136MOL   C30849178   3.941   0.963   0.709 -0.6217 -0.5066 -0.1235
  136MOL   C30949179   3.905   0.828   0.645 -0.0034 -0.5725 -0.5406
  136MOL   C31049180   3.988   0.713   0.713 -0.5664  0.4505 -0.3043
  136MOL   C31149181   4.029   0.590   0.628  0.2431  0.2539 -0.2727
  136MOL   C31249182   4.132   0.628   0.522 -0.0783 -0.3133  0.0409
  136MOL   C31349183   4.098   0.484   0.717 -0.1120 -0.7202 -0.1903
  136MOL   H31449184   3.956   0.939   0.814  2.4674 -0.5178 -0.5294
  136MOL   H31549185   3.858   1.035   0.706 -2.3125 -2.3393  1.4192
  136MOL   H31649186   3.932   0.825   0.540 -1.8409  2.3940 -1.1585
  136MOL   H31749187   3.918   0.674   0.787 -1.2030  1.7780 -0.1943
  136MOL   H31849188   4.080   0.752   0.756 -0.4320 -1.4139  1.1578
  136MOL   H31949189   3.946   0.544   0.576  2.9046 -1.4938 -3.1440
  136MOL   H32049190   4.175   0.550   0.461 -0.2113  0.6210 -1.2729
  136MOL   H32149191   4.208   0.691   0.569 -1.1633  1.3822 -0.4069
  136MOL   H32249192   4.087   0.698   0.452 -0.3766 -0.4833  0.0633
  136MOL   H32349193   4.160   0.524   0.798 -0.7824 -0.4210  0.1773
  136MOL   H32449194   4.016   0.441   0.773 -0.3312  0.6592  0.5792
  136MOL   H32549195   4.154   0.405   0.668  0.1231 -0.8417  0.2713
  136MOL   C32649196   3.750   0.813   0.656  0.6068  0.1247 -0.4050
  136MOL   C32749197   3.682   0.724   0.547 -0.2919  0.8105 -0.2565
  136MOL   C32849198   3.626   0.811   0.431 -1.3846 -0.2401 -1.2273
  136MOL   C32949199   3.730   0.865   0.337  0.0439 -0.2144  0.3741
  136MOL   C33049200   3.779   0.752   0.239  0.1812 -0.4637  0.5913
  136MOL   C33149201   3.673   0.976   0.246  0.0583  0.0760 -0.4658
  136MOL   H33249202   3.700   0.910   0.654  0.4308  0.0300 -0.6416
  136MOL   H33349203   3.741   0.769   0.755  3.1901  1.1049  0.3219
  136MOL   H33449204   3.756   0.654   0.508 -0.3785  0.4441  0.2244
  136MOL   H33549205   3.552   0.753   0.376  0.7315 -2.4317 -1.8953
  136MOL   H33649206   3.585   0.904   0.469  1.3622  0.2166  0.7650
  136MOL   H33749207   3.818   0.907   0.386 -0.2112  0.9422 -0.1325
  136MOL   H33849208   3.824   0.670   0.293  2.6269 -0.5116 -1.4433
  136MOL   H33949209   3.849   0.797   0.168  0.8315 -2.2855  0.0509
  136MOL   H34049210   3.694   0.706   0.189  1.2164 -2.4633  0.6258
  136MOL   H34149211   3.746   1.000   0.169  0.7127 -2.5548 -0.7282
  136MOL   H34249212   3.584   0.947   0.189 -0.3382  1.4278 -0.5358
  136MOL   H34349213   3.656   1.072   0.294  1.1621  0.6411 -1.1805
  136MOL   C34449214   3.568   0.635   0.604  0.6703  0.2473  0.3391
  136MOL   C34549215   3.609   0.522   0.697 -0.1277  0.1050 -0.1505
  136MOL   C34649216   3.512   0.501   0.812  0.0276  0.2280 -0.4391
  136MOL   C34749217   3.552   0.385   0.908  0.0207 -0.2661 -0.2341
  136MOL   C34849218   3.494   0.251   0.854  0.0725 -0.1867 -0.4084
  136MOL   C34949219   3.503   0.405   1.055 -0.4312 -0.1531  0.6313
  136MOL   H35049220   3.507   0.597   0.523  2.8567 -1.1046 -0.7068
  136MOL   H35149221   3.501   0.701   0.659 -2.1088 -1.8501 -0.3960
  136MOL   H35249222   3.703   0.557   0.739 -0.0751  0.0563 -0.2268
  136MOL   H35349223   3.518   0.589   0.876  3.5731 -1.3754  1.5803
  136MOL   H35449224   3.409   0.486   0.780 -0.3054  1.7381 -0.1205
  136MOL   H35549225   3.659   0.383   0.888  0.0592 -0.8145  0.0243
  136MOL   H35649226   3.542   0.229   0.758  0.0470  0.4929 -0.5811
  136MOL   H35749227   3.526   0.166   0.915  0.8351  0.7277  0.4836
  136MOL   H35849228   3.387   0.261   0.836 -0.2243 -1.8764  0.3814
  136MOL   H35949229   3.570   0.474   1.106  1.5209 -1.3124 -0.2977
  136MOL   H36049230   3.527   0.317   1.114  1.0894 -0.3437 -0.2530
  136MOL   H36149231   3.397   0.432   1.051 -0.4941 -0.6049 -2.0131
  136MOL   H36249232   3.637   0.431   0.644 -1.0090 -0.7899  0.8829
  137MOL     C149233   3.017   7.548   5.549 -0.3276  0.1178 -0.3035
  137MOL     C249234   3.107   7.496   5.675  0.2479  0.5248 -0.2150
  137MOL     C349235   3.020   7.440   5.797 -0.0561 -0.1421 -0.0190
  137MOL     C449236   2.916   7.327   5.758  0.5239 -0.4328  0.1893
  137MOL     C549237   2.766   7.372   5.767 -0.2871  0.5807  0.5560
  137MOL     C649238   2.928   7.202   5.848 -0.3300  0.0752 -0.3314
  137MOL     H749239   3.073   7.606   5.475 -0.4892  1.2683  0.4588
  137MOL     H849240   2.984   7.468   5.484 -1.0825 -0.5959  0.9505
  137MOL     H949241   3.164   7.413   5.634  1.7072  0.6228  1.5591
  137MOL    H1049242   3.099   7.405   5.864  0.4378  0.0635 -0.4919
  137MOL    H1149243   2.964   7.509   5.860 -0.8358 -1.7866  1.1299
  137MOL    H1249244   2.945   7.299   5.657  0.7202  2.9449 -0.7672
  137MOL    H1349245   2.699   7.287   5.770  0.2241  0.2182  2.3105
  137MOL    H1449246   2.741   7.418   5.862  0.1655  3.4436 -0.6409
  137MOL    H1549247   2.733   7.434   5.683 -1.3592 -2.2582 -1.1675
  137MOL    H1649248   2.923   7.219   5.956 -1.6491  2.4612 -0.7234
  137MOL    H1749249   3.030   7.165   5.838 -0.9580 -1.5572 -0.8562
  137MOL    H1849250   2.859   7.118   5.834 -0.7893  0.3214  0.3702
  137MOL    H1949251   2.934   7.607   5.588  1.1053  1.7942  0.3155
  137MOL    C2049252   3.213   7.591   5.735  0.8169 -0.2009 -0.0893
  137MOL    C2149253   3.332   7.633   5.641  0.1922  0.4248 -0.0413
  137MOL    C2249254   3.402   0.013   5.694  0.2640 -0.0554  0.2052
  137MOL    C2349255   3.339   0.149   5.683  0.0454  0.3166  0.1658
  137MOL    C2449256   3.438   0.257   5.727  0.3158 -0.5766  0.1569
  137MOL    C2549257   3.291   0.174   5.543  0.3049 -0.1700 -0.3525
  137MOL    H2649258   3.156   7.676   5.774  2.1810 -0.0139  1.5750
  137MOL    H2749259   3.259   7.541   5.820 -1.5760 -2.1405  0.1308
  137MOL    H2849260   3.290   7.644   5.541 -1.1616 -1.4697  0.3083
  137MOL    H2949261   3.503   0.021   5.653  0.6400 -0.5936  1.0179
  137MOL    H3049262   3.426   0.012   5.800 -2.8472  0.1477  0.9769
  137MOL    H3149263   3.258   0.171   5.752  1.3174 -1.4643  2.2983
  137MOL    H3249264   3.528   0.252   5.664 -0.9430 -1.8562 -1.5806
  137MOL    H3349265   3.476   0.246   5.828  1.7191  0.6696 -0.2053
  137MOL    H3449266   3.391   0.355   5.715 -1.4661 -1.2594  1.4577
  137MOL    H3549267   3.253   0.275   5.527 -0.4978 -0.3919  0.1096
  137MOL    H3649268   3.373   0.151   5.475  1.5271 -0.0990  1.0916
  137MOL    H3749269   3.212   0.103   5.519 -0.8565  1.2172 -0.7637
  137MOL    C3849270   3.427   7.510   5.627  0.0285 -0.6693 -0.3417
  137MOL    C3949271   3.564   7.539   5.555  0.0301 -0.1823 -0.6745
  137MOL    C4049272   3.551   7.525   5.403 -0.5297 -0.3306  0.1687
  137MOL    C4149273   3.648   7.608   5.318 -0.1393 -0.6925 -0.5420
  137MOL    C4249274   3.600   7.752   5.327 -0.4753 -0.2335 -0.4971
  137MOL    C4349275   3.643   7.546   5.180 -0.1056  0.2938  0.0935
  137MOL    H4449276   3.380   7.421   5.586 -3.0869  0.2160  1.1938
  137MOL    H4549277   3.456   7.482   5.729  0.7266  0.1893 -0.2961
  137MOL    H4649278   3.619   7.629   5.581 -0.1519 -0.5532  1.0255
  137MOL    H4749279   3.447   7.550   5.383  0.1491  2.4867 -0.0708
  137MOL    H4849280   3.548   7.418   5.385 -2.1510 -0.1270 -0.8095
  137MOL    H4949281   3.751   7.601   5.352 -0.2068 -0.2580 -0.2419
  137MOL    H5049282   3.615   0.035   5.429  0.2275 -0.3837 -0.5456
  137MOL    H5149283   3.658   0.063   5.260  0.0984  0.8789  1.0143
  137MOL    H5249284   3.493   0.020   5.316 -0.6201 -0.4788  0.4101
  137MOL    H5349285   3.545   7.505   5.154  0.2176  0.8464 -2.1791
  137MOL    H5449286   3.716   7.468   5.159 -0.1761  0.3847 -0.5225
  137MOL    H5549287   3.676   7.623   5.110  1.5910 -0.2703  0.2671
  137MOL    C5649288   3.675   7.436   5.604 -0.3764 -0.5416 -0.5069
  137MOL    C5749289   3.750   7.487   5.731 -0.0241 -0.0619 -0.2553
  137MOL    C5849290   3.851   7.594   5.699  0.2037 -0.4446 -0.1027
  137MOL    C5949291   3.892   7.691   5.813  0.2772 -0.2987  0.0482
  137MOL    C6049292   3.791   0.049   5.832  0.1686  0.1276 -0.0633
  137MOL    C6149293   4.034   7.743   5.802  1.0423  0.1682  0.4695
  137MOL    H6249294   3.749   7.434   5.524  0.1984  3.3234 -0.1842
  137MOL    H6349295   3.623   7.343   5.623  0.1554 -1.0047 -1.3113
  137MOL    H6449296   3.671   7.539   5.785  2.8402  2.1657  1.9848
  137MOL    H6549297   3.941   7.539   5.670  0.0332 -0.9996  0.4248
  137MOL    H6649298   3.819   7.650   5.611 -1.7798  0.4603  1.1674
  137MOL    H6749299   3.897   7.633   5.905 -1.4639 -0.9340 -0.2398
  137MOL    H6849300   3.775   0.090   5.732  1.9856  3.1065  0.8150
  137MOL    H6949301   3.827   0.135   5.889  0.4468 -0.5475  0.7796
  137MOL    H7049302   3.696   0.016   5.875 -0.1460  0.1859 -0.6897
  137MOL    H7149303   4.069   0.048   5.717 -0.6422  2.3517  1.1943
  137MOL    H7249304   4.108   7.667   5.824  1.5029 -0.2090 -2.2421
  137MOL    H7349305   4.057   0.059   5.884 -0.3017  1.4418 -0.1874
  137MOL    C7449306   3.799   7.362   5.815 -0.0362 -0.6398  0.3038
  137MOL    C7549307   3.702   7.259   5.870  0.0375  0.6247  0.6564
  137MOL    C7649308   3.588   7.323   5.959  0.5756  0.0340  0.6972
  137MOL    C7749309   3.474   7.229   6.004  0.2071  0.4577  0.2984
  137MOL    C7849310   3.385   7.176   5.888  0.6328 -0.1723 -0.1507
  137MOL    C7949311   3.399   7.297   6.123 -1.1142  0.5900  0.1855
  137MOL    H8049312   3.843   7.408   5.904 -0.2245 -0.3345  0.2407
  137MOL    H8149313   3.880   7.313   5.760  0.0128  3.2069 -3.3108
  137MOL    H8249314   3.648   7.216   5.785  1.1106  1.0257 -0.2430
  137MOL    H8349315   3.634   7.355   6.053  0.7803 -3.5831  1.9222
  137MOL    H8449316   3.542   7.404   5.903  0.0172  0.2464  1.4504
  137MOL    H8549317   3.522   7.137   6.038 -0.4560 -0.2151 -0.5604
  137MOL    H8649318   3.430   7.105   5.820  0.7475  1.0341 -1.3636
  137MOL    H8749319   3.363   7.258   5.818 -0.9652 -1.0216 -0.6839
  137MOL    H8849320   3.288   7.147   5.928  0.5540  0.9400  0.4805
  137MOL    H8949321   3.461   7.304   6.212  1.4176 -1.3034 -1.3636
  137MOL    H9049322   3.353   7.393   6.097  0.0828  1.5044  1.3794
  137MOL    H9149323   3.314   7.231   6.139  0.7589 -2.2937 -1.3299
  137MOL    C9249324   3.794   7.168   5.961  0.0976 -0.4415 -0.4768
  137MOL    C9349325   3.795   7.011   5.934  0.0898  0.3509  0.2001
  137MOL    C9449326   3.883   6.979   5.814  0.5816 -0.8840 -0.0468
  137MOL    C9549327   3.849   6.856   5.739 -0.2462 -0.5530 -0.3300
  137MOL    C9649328   3.697   6.841   5.711 -0.1886  0.1496 -0.3201
  137MOL    C9749329   3.935   6.838   5.617  0.4151 -0.6853  0.1373
  137MOL    H9849330   3.898   7.198   5.964  0.0261 -0.2410  0.1374
  137MOL    H9949331   3.775   7.185   6.067 -1.6017 -0.7809 -0.7011
  137MOL   H10049332   3.689   6.990   5.924  0.2324 -1.9369  2.8868
  137MOL   H10149333   3.988   6.976   5.843  0.2169  3.8568  2.1829
  137MOL   H10249334   3.875   7.066   5.749 -0.7441 -1.0205 -0.0967
  137MOL   H10349335   3.874   6.779   5.812  0.6914  0.3152  0.2710
  137MOL   H10449336   3.645   6.924   5.665 -2.4875 -1.9962 -1.7173
  137MOL   H10549337   3.642   6.819   5.802  1.3191  1.0990  0.8504
  137MOL   H10649338   3.685   6.757   5.643 -0.6856 -2.0324  2.3814
  137MOL   H10749339   3.907   6.743   5.570 -0.3057 -0.6632  0.5174
  137MOL   H10849340   4.040   6.825   5.644  0.2032 -0.4758  1.0722
  137MOL   H10949341   3.932   6.914   5.539 -1.1161 -1.1885 -0.3254
  137MOL   C11049342   3.836   6.925   6.059  0.1143  0.1633 -0.4808
  137MOL   C11149343   3.732   6.940   6.176  0.4824  0.9952  0.2521
  137MOL   C11249344   3.663   6.807   6.214  0.0240 -0.2110  0.6945
  137MOL   C11349345   3.559   6.748   6.121  0.2084 -0.2742  0.3556
  137MOL   C11449346   3.433   6.835   6.102 -0.5080 -0.1947 -0.2052
  137MOL   C11549347   3.515   6.601   6.163 -0.1561 -0.5638  0.4451
  137MOL   H11649348   3.942   6.936   6.080 -0.0388  0.2437  0.2617
  137MOL   H11749349   3.833   6.821   6.027 -0.2072  0.3937 -1.2317
  137MOL   H11849350   3.651   7.004   6.141 -0.1036  0.6548  0.9816
  137MOL   H11949351   3.615   6.829   6.310 -1.7399  0.8283 -0.4064
  137MOL   H12049352   3.742   6.737   6.240  0.8993 -0.5708 -2.7655
  137MOL   H12149353   3.613   6.741   6.027  0.7033  1.1292  0.5091
  137MOL   H12249354   3.459   6.925   6.046 -0.9940 -0.0330 -0.1666
  137MOL   H12349355   3.399   6.884   6.193  0.1566 -0.8299  0.3974
  137MOL   H12449356   3.360   6.772   6.053  0.0321 -1.5445  0.6826
  137MOL   H12549357   3.464   6.545   6.085 -0.3234 -0.0505  0.1817
  137MOL   H12649358   3.458   6.606   6.256 -2.6887 -1.1499 -1.0287
  137MOL   H12749359   3.601   6.539   6.190  0.3710  0.7756  1.9208
  137MOL   C12849360   3.804   7.018   6.294  0.2673 -0.2085  0.5036
  137MOL   C12949361   3.730   7.050   6.425  0.3383  0.2662  0.2545
  137MOL   C13049362   3.602   7.120   6.389 -0.5398  0.5229  0.0319
  137MOL   C13149363   3.498   7.129   6.505 -0.7527 -0.8532  0.5928
  137MOL   C13249364   3.484   7.278   6.536 -0.4789  0.5523  0.0045
  137MOL   C13349365   3.359   7.080   6.472  0.4079 -0.1735  0.2338
  137MOL   H13449366   3.847   7.107   6.250  0.5793 -0.2752  0.6740
  137MOL   H13549367   3.882   6.947   6.322 -1.4264 -1.2579  2.7469
  137MOL   H13649368   3.691   6.963   6.478 -0.2763  0.6846  0.4932
  137MOL   H13749369   3.610   7.208   6.326 -0.1185 -0.1293 -0.8321
  137MOL   H13849370   3.556   7.052   6.318  0.6525 -0.3742  0.0972
  137MOL   H13949371   3.535   7.071   6.589 -1.6783 -1.1737  0.7810
  137MOL   H14049372   3.425   7.332   6.462 -1.9960  0.8577  1.4182
  137MOL   H14149373   3.576   7.332   6.557  1.0225 -1.5482 -0.9721
  137MOL   H14249374   3.433   7.302   6.629  1.2733  1.2552  0.8077
  137MOL   H14349375   3.362   6.974   6.450 -4.0985 -0.1332 -1.1265
  137MOL   H14449376   3.298   7.086   6.562  0.9539  1.3316  0.5062
  137MOL   H14549377   3.302   7.136   6.397 -0.2735 -0.8132  0.2589
  137MOL   C14649378   3.804   7.142   6.523 -1.0385  0.1945 -0.8714
  137MOL   C14749379   3.948   7.092   6.561  0.0629 -0.1325  0.4541
  137MOL   C14849380   3.930   6.957   6.653  0.0569 -0.2522  0.2427
  137MOL   C14949381   4.063   6.875   6.661 -0.2999  0.3024  0.3462
  137MOL   C15049382   4.104   6.817   6.802  0.1534 -0.2241 -0.6468
  137MOL   C15149383   4.068   6.770   6.554 -0.4944  0.5345  0.6474
  137MOL   H15249384   3.755   7.151   6.620  2.7761 -0.9302  1.2710
  137MOL   H15349385   3.820   7.241   6.482  0.1508 -0.2737 -1.5398
  137MOL   H15449386   4.014   7.062   6.480  0.8668  0.2804  0.9389
  137MOL   H15549387   3.910   6.988   6.755  0.5610 -2.2988  0.9940
  137MOL   H15649388   3.849   6.891   6.622 -1.0046  0.5726  1.2372
  137MOL   H15749389   4.140   6.951   6.644 -0.9405  0.7780 -0.4821
  137MOL   H15849390   4.067   6.718   6.829  1.0167 -1.2074 -2.9568
  137MOL   H15949391   4.103   6.897   6.876  0.7734 -2.4132  1.8090
  137MOL   H16049392   4.209   6.790   6.793  0.1552  0.1165 -1.7113
  137MOL   H16149393   3.973   6.715   6.558  0.2492 -0.6379  3.0865
  137MOL   H16249394   4.151   6.703   6.576 -1.5836 -0.8187  0.7300
  137MOL   H16349395   4.094   6.810   6.456  4.4104 -3.2716  0.1932
  137MOL   C16449396   4.020   7.199   6.650 -0.0938 -0.2664  0.8330
  137MOL   C16549397   4.096   7.300   6.566 -0.7247 -0.3483 -0.3218
  137MOL   C16649398   4.142   7.438   6.635 -0.2141  0.4326  0.2717
  137MOL   C16749399   4.057   7.563   6.621  0.8454 -0.3990 -0.0910
  137MOL   C16849400   3.915   7.543   6.678  0.1134  0.6195  0.2816
  137MOL   C16949401   4.127   7.680   6.687 -0.2249 -0.0109 -0.0433
  137MOL   H17049402   3.948   7.252   6.713 -1.1715  1.4181 -1.7366
  137MOL   H17149403   4.087   7.159   6.726 -0.3289 -0.4459  0.9493
  137MOL   H17249404   4.027   7.349   6.497  0.6234 -1.4881 -2.5488
  137MOL   H17349405   4.152   7.416   6.742 -0.0265 -0.2787  0.1095
  137MOL   H17449406   4.243   7.457   6.597 -0.4186  1.3061  0.1611
  137MOL   H17549407   4.047   7.586   6.515 -2.2303  1.1990  0.4934
  137MOL   H17649408   3.858   7.636   6.680 -0.7733  0.0874 -0.4366
  137MOL   H17749409   3.914   7.501   6.778 -0.3567  0.5828  0.2598
  137MOL   H17849410   3.854   7.474   6.621  0.3951 -0.9333  1.8218
  137MOL   H17949411   4.069   0.020   6.690 -0.4623 -0.1752  0.5831
  137MOL   H18049412   4.207   7.702   6.617 -0.9238  0.1661 -0.7888
  137MOL   H18149413   4.160   7.650   6.787  0.7678  0.0687 -0.3458
  137MOL   C18249414   4.226   7.240   6.503 -0.1199  0.3772  0.3235
  137MOL   C18349415   4.272   7.300   6.360 -0.0214 -0.0475 -0.1839
  137MOL   C18449416   4.424   7.283   6.330  1.4788 -0.8396 -0.1193
  137MOL   C18549417   4.518   7.369   6.418 -0.0191  0.4979 -0.5870
  137MOL   C18649418   4.664   7.345   6.374 -0.0166 -0.7889  0.2298
  137MOL   C18749419   4.484   7.522   6.406 -0.6025 -0.2471  0.6166
  137MOL   H18849420   4.236   7.133   6.489  0.2192  0.5738 -1.0029
  137MOL   H18949421   4.296   7.258   6.584 -0.8782 -1.0738  1.3100
  137MOL   H19049422   4.262   7.408   6.348  0.7574  0.2317  1.3962
  137MOL   H19149423   4.434   7.318   6.226 -1.9958  0.5410 -0.0756
  137MOL   H19249424   4.459   7.180   6.329  1.4650 -0.8476  0.5377
  137MOL   H19349425   4.517   7.341   6.524  1.6148  0.3403 -0.5964
  137MOL   H19449426   4.738   7.385   6.443 -1.7812  0.3901  1.4719
  137MOL   H19549427   4.682   7.415   6.292  0.7324 -1.4826 -0.2064
  137MOL   H19649428   4.687   7.243   6.343 -0.7075 -0.5395 -1.1193
  137MOL   H19749429   4.552   7.587   6.461 -1.7355 -0.2419  2.0349
  137MOL   H19849430   4.389   7.517   6.459 -0.4447 -0.5371  0.8761
  137MOL   H19949431   4.468   7.557   6.304  1.2109  0.4649  0.5501
  137MOL   C20049432   4.189   7.238   6.246  0.0709 -0.0334  0.4770
  137MOL   C20149433   4.178   7.322   6.110 -0.1678  0.9148  0.3886
  137MOL   C20249434   4.055   7.404   6.099 -0.3528  0.1619  0.5853
  137MOL   C20349435   4.034   7.505   6.219 -0.9485  0.1276  0.2734
  137MOL   C20449436   4.125   7.632   6.215  0.2369 -0.1832  0.1896
  137MOL   C20549437   3.888   7.553   6.225  0.4479 -0.4656 -0.0944
  137MOL   H20649438   4.091   7.219   6.290  0.1354  1.0301  1.1034
  137MOL   H20749439   4.237   7.140   6.239  5.7937  2.4985  1.3270
  137MOL   H20849440   4.246   7.407   6.118  1.8285 -0.6802  0.6892
  137MOL   H20949441   4.037   7.446   5.999 -1.2587 -1.2729  0.1292
  137MOL   H21049442   3.972   7.334   6.101 -0.6221  0.4640  0.2538
  137MOL   H21149443   4.047   7.453   6.314 -0.1362 -1.7446 -0.8279
  137MOL   H21249444   4.095   7.696   6.298 -0.0842 -0.8907  0.6274
  137MOL   H21349445   4.115   7.679   6.118 -0.4359  1.8908  1.2201
  137MOL   H21449446   4.229   7.609   6.239  0.9448  1.3196 -1.3195
  137MOL   H21549447   3.861   7.608   6.134 -0.9219  0.5961  0.9307
  137MOL   H21649448   3.870   7.618   6.311  1.8406  0.2290 -0.3161
  137MOL   H21749449   3.821   7.469   6.242  0.3289  0.1333  2.6462
  137MOL   C21849450   4.182   7.226   5.992 -0.9778 -0.3846 -0.3637
  137MOL   C21949451   4.326   7.170   5.978 -0.2064 -1.1281  0.2477
  137MOL   C22049452   4.411   7.283   5.917 -0.3587  0.2613  0.2979
  137MOL   C22149453   4.569   7.272   5.897  0.6370 -0.2216  0.2247
  137MOL   C22249454   4.614   7.398   5.829 -0.1456 -0.0167  0.4689
  137MOL   C22349455   4.631   7.263   6.037 -0.5596 -0.3852  0.1384
  137MOL   H22449456   4.119   7.143   6.022 -1.4016  0.6647  1.7061
  137MOL   H22549457   4.160   7.264   5.892 -0.0823 -1.7569 -1.0930
  137MOL   H22649458   4.376   7.142   6.071  0.3114 -1.1109 -0.0233
  137MOL   H22749459   4.382   7.325   5.820 -0.7310 -1.4955 -0.3721
  137MOL   H22849460   4.404   7.368   5.986 -0.0418  0.7743 -0.2869
  137MOL   H22949461   4.585   7.183   5.835  0.9593  0.6757 -1.0044
  137MOL   H23049462   4.595   7.398   5.722  0.7172 -0.8624  0.3066
  137MOL   H23149463   4.573   7.485   5.880 -2.8776  0.3777 -2.2416
  137MOL   H23249464   4.720   7.422   5.833  0.4307 -2.0322 -1.3401
  137MOL   H23349465   4.583   7.340   6.097 -3.0905  0.1441 -2.4164
  137MOL   H23449466   4.595   7.166   6.071 -1.8107 -0.0494 -0.2008
  137MOL   H23549467   4.739   7.265   6.051 -0.8407  2.6187  2.2126
  137MOL   C23649468   4.320   7.047   5.879 -0.5120  0.5782  0.0956
  137MOL   C23749469   4.329   6.905   5.946  0.0880 -0.0837  0.4325
  137MOL   C23849470   4.469   6.878   6.012  0.8056 -0.0096  0.0389
  137MOL   C23949471   4.493   6.900   6.164 -0.4279 -0.8986  0.0550
  137MOL   C24049472   4.425   6.787   6.243 -0.1592 -0.1244  0.0848
  137MOL   C24149473   4.643   6.898   6.208  0.3004 -0.0755 -0.3180
  137MOL   H24249474   4.396   7.052   5.801 -0.2415 -0.0173  0.3235
  137MOL   H24349475   4.228   7.057   5.820 -1.4545 -1.8916  1.0792
  137MOL   H24449476   4.254   6.884   6.022  0.1486  0.6949  0.7113
  137MOL   H24549477   4.539   6.945   5.962  0.9593  0.5538  1.0090
  137MOL   H24649478   4.511   6.780   5.987  1.5768 -0.2706  2.3112
  137MOL   H24749479   4.459   6.996   6.203  0.7154 -1.0743  1.5506
  137MOL   H24849480   4.441   6.690   6.197  0.8496  0.9183 -1.8414
  137MOL   H24949481   4.321   6.816   6.230 -0.3146  0.4187  2.2158
  137MOL   H25049482   4.448   6.787   6.350 -1.3304  1.5267  0.3464
  137MOL   H25149483   4.707   6.985   6.196 -0.2769  0.4874  0.6269
  137MOL   H25249484   4.697   6.816   6.161 -0.6634 -2.3206  2.3550
  137MOL   H25349485   4.648   6.878   6.315 -1.8798  1.7096  0.1796
  137MOL   C25449486   4.286   6.799   5.847  0.0188  0.3177 -0.0324
  137MOL   C25549487   4.245   6.655   5.891 -0.4953 -0.0445 -0.3041
  137MOL   C25649488   4.098   6.640   5.917  0.2500  0.3946 -0.5697
  137MOL   C25749489   4.060   6.522   6.027 -0.3752  0.3333 -0.0513
  137MOL   C25849490   3.933   6.450   5.992  0.2581  0.1661  0.1067
  137MOL   C25949491   4.058   6.571   6.173  0.5466 -0.0535  0.3427
  137MOL   H26049492   4.200   6.844   5.797  0.1490 -0.2802 -0.8086
  137MOL   H26149493   4.372   6.795   5.780 -0.0107 -0.2917 -0.0345
  137MOL   H26249494   4.296   6.644   5.986  1.2149  0.6278 -1.1213
  137MOL   H26349495   4.050   6.622   5.821  0.2121 -2.1385 -0.1168
  137MOL   H26449496   4.054   6.734   5.953 -1.6109 -0.9240  0.7223
  137MOL   H26549497   4.143   6.453   6.013 -1.2277 -0.3141 -2.0990
  137MOL   H26649498   3.926   6.369   6.064  0.4376  0.8625  0.9189
  137MOL   H26749499   3.920   6.409   5.892  1.6950  0.3459 -0.1596
  137MOL   H26849500   3.842   6.508   6.007  0.3799  0.2495  0.5246
  137MOL   H26949501   4.152   6.620   6.200  0.9489 -2.0563  2.7648
  137MOL   H27049502   3.976   6.643   6.181  0.3624 -0.3075  0.7643
  137MOL   H27149503   4.042   6.493   6.247 -0.8241 -1.8594 -1.7881
  137MOL   C27249504   4.294   6.536   5.796  0.2450  0.5238  0.3965
  137MOL   C27349505   4.446   6.514   5.803  0.3582  0.0909 -0.1609
  137MOL   C27449506   4.481   6.431   5.933 -0.1659  0.0932 -0.1661
  137MOL   C27549507   4.630   6.409   5.953 -0.4667 -0.1662 -0.2186
  137MOL   C27649508   4.678   6.269   5.932 -0.0992 -0.9603 -0.0646
  137MOL   C27749509   4.697   6.487   6.074  0.1035  0.4678  0.3786
  137MOL   H27849510   4.234   6.449   5.824  1.8916 -0.4343  1.0408
  137MOL   H27949511   4.260   6.545   5.692 -0.3303 -1.5400  0.3847
  137MOL   H28049512   4.489   6.612   5.825  0.7212 -0.4280  1.5044
  137MOL   H28149513   4.426   6.338   5.942 -2.0252  1.1513 -0.4983
  137MOL   H28249514   4.449   6.493   6.017  1.7352  0.9272 -0.0308
  137MOL   H28349515   4.688   6.466   5.881  2.4176 -2.0894  0.4754
  137MOL   H28449516   4.786   6.278   5.923  0.0164 -2.3079 -0.1567
  137MOL   H28549517   4.656   6.200   6.014 -0.4539 -1.2933 -0.4390
  137MOL   H28649518   4.650   6.226   5.836 -0.1814  1.5338 -1.1942
  137MOL   H28749519   4.687   6.596   6.080 -0.9070  0.2711  3.1587
  137MOL   H28849520   4.645   6.453   6.164 -1.8022  0.2669 -0.7570
  137MOL   H28949521   4.800   6.454   6.070 -0.3045 -0.9108  0.9809
  137MOL   C29049522   4.495   6.449   5.671 -0.4955  0.3175  1.1442
  137MOL   C29149523   4.481   6.510   5.532  0.3134 -0.2567 -0.5473
  137MOL   C29249524   4.521   6.666   5.534  0.7589  0.0740 -0.0101
  137MOL   C29349525   4.478   6.766   5.419  0.0228  0.0423  0.1993
  137MOL   C29449526   4.334   6.790   5.385  0.1153  0.3473 -0.0621
  137MOL   C29549527   4.555   6.892   5.448  0.1957 -0.8691  0.5922
  137MOL   H29649528   4.603   6.443   5.683 -0.2885 -0.0658 -0.8148
  137MOL   H29749529   4.461   6.346   5.681 -0.8382  0.3131  0.0078
  137MOL   H29849530   4.377   6.512   5.499 -0.5231 -0.3348  1.9204
  137MOL   H29949531   4.630   6.667   5.534  0.7722  1.3922 -2.2564
  137MOL   H30049532   4.471   6.707   5.622 -0.5335 -2.0616  0.2885
  137MOL   H30149533   4.516   6.736   5.321 -1.8816  0.2368 -0.6105
  137MOL   H30249534   4.331   6.862   5.303  0.9370  0.0060 -0.4014
  137MOL   H30349535   4.280   6.816   5.476  1.0405  0.7399  0.3907
  137MOL   H30449536   4.297   6.693   5.354 -2.3813  1.3479 -0.3154
  137MOL   H30549537   4.660   6.868   5.432  0.4682  1.0946 -0.7255
  137MOL   H30649538   4.550   6.936   5.548  0.8349 -0.4016  0.4292
  137MOL   H30749539   4.515   6.976   5.391 -1.2966 -0.9379  1.5044
  137MOL   C30849540   4.576   6.425   5.436 -0.1988 -0.9329 -0.1887
  137MOL   C30949541   4.512   6.304   5.372 -0.6859 -0.1263  0.0296
  137MOL   C31049542   4.493   6.190   5.480 -0.4947  0.8459  0.1564
  137MOL   C31149543   4.466   6.044   5.428  0.1908  0.0772 -0.1786
  137MOL   C31249544   4.556   5.989   5.309  0.0418 -0.2279  0.0996
  137MOL   C31349545   4.444   5.939   5.539 -0.0213  0.5622 -0.2114
  137MOL   H31449546   4.620   6.482   5.354 -1.2635 -0.4899 -0.4610
  137MOL   H31549547   4.666   6.390   5.486  0.7452  0.8435 -0.5977
  137MOL   H31649548   4.588   6.271   5.301  1.7854  2.3242  1.4277
  137MOL   H31749549   4.403   6.220   5.534  0.0113  0.7941  1.0376
  137MOL   H31849550   4.577   6.192   5.550 -0.7178 -2.3647  0.6003
  137MOL   H31949551   4.370   6.061   5.377 -0.6006 -0.3848  1.1362
  137MOL   H32049552   4.561   6.059   5.225  0.4047  0.0098  0.3243
  137MOL   H32149553   4.542   5.884   5.283  1.8251 -0.8709  1.6795
  137MOL   H32249554   4.660   5.987   5.341  0.9379  3.4601 -2.2665
  137MOL   H32349555   4.449   5.836   5.504  1.1321  0.6573 -0.3653
  137MOL   H32449556   4.525   5.952   5.611  0.8209  0.6537 -1.1608
  137MOL   H32549557   4.351   5.944   5.596 -0.8243 -1.7870 -1.2670
  137MOL   C32649558   4.380   6.327   5.282  0.1295 -0.1483  0.2703
  137MOL   C32749559   4.401   6.428   5.161  0.6742 -0.3513 -0.8560
  137MOL   C32849560   4.264   6.435   5.093  0.1390  0.1479  0.4307
  137MOL   C32949561   4.270   6.524   4.973  0.2386  0.3639 -0.2623
  137MOL   C33049562   4.134   6.520   4.911 -0.4181 -0.1057 -0.5529
  137MOL   C33149563   4.305   6.667   5.013 -0.1125 -0.6504 -0.0154
  137MOL   H33249564   4.297   6.365   5.342  0.1545 -0.2892  0.3954
  137MOL   H33349565   4.348   6.232   5.240 -0.3501  1.0389 -2.1316
  137MOL   H33449566   4.422   6.528   5.199  5.5771 -1.0216 -1.4973
  137MOL   H33549567   4.236   6.335   5.058  0.8301 -0.4187  1.4472
  137MOL   H33649568   4.190   6.470   5.166 -0.6282 -1.2025  0.3312
  137MOL   H33749569   4.348   6.499   4.901 -0.7746  0.0977 -1.2744
  137MOL   H33849570   4.091   6.422   4.886 -0.1671 -0.6996  1.3073
  137MOL   H33949571   4.135   6.573   4.816  1.4464  0.3183 -0.3093
  137MOL   H34049572   4.068   6.573   4.980  0.1730 -0.0054 -0.0652
  137MOL   H34149573   4.408   6.688   5.043 -0.3718  1.8892 -0.8521
  137MOL   H34249574   4.311   6.723   4.920  1.0798 -1.5030 -0.4681
  137MOL   H34349575   4.238   6.723   5.077  1.1497 -0.1108  0.8609
  137MOL   C34449576   4.521   6.388   5.066  0.0277  0.4621  0.2609
  137MOL   C34549577   4.499   6.279   4.958 -0.3738  0.7032 -0.2223
  137MOL   C34649578   4.625   6.234   4.896 -0.0470 -0.0777  0.8022
  137MOL   C34749579   4.598   6.177   4.755 -0.2507  0.2701 -0.1617
  137MOL   C34849580   4.498   6.066   4.763  0.2417  0.1697 -0.4076
  137MOL   C34949581   4.735   6.130   4.702 -0.0009  0.6971  0.0129
  137MOL   H35049582   4.618   6.357   5.106 -0.3005 -0.4340  0.3701
  137MOL   H35149583   4.547   6.472   5.002 -0.9488 -1.3557 -2.6311
  137MOL   H35249584   4.432   6.326   4.886  1.8363  2.0233 -1.4596
  137MOL   H35349585   4.684   6.324   4.884 -0.5174  0.1023 -0.2711
  137MOL   H35449586   4.686   6.167   4.957  1.0989  0.0999 -0.1374
  137MOL   H35549587   4.550   6.250   4.690 -0.1606  0.2398 -0.2612
  137MOL   H35649588   4.494   6.006   4.671 -0.8297  0.9218 -0.8568
  137MOL   H35749589   4.517   6.002   4.849 -0.1176  1.2764  0.5066
  137MOL   H35849590   4.400   6.106   4.787  1.3297  0.6572  3.6185
  137MOL   H35949591   4.814   6.203   4.717  3.2176 -2.8647  0.9626
  137MOL   H36049592   4.736   6.113   4.594  3.6611 -1.2371  0.2979
  137MOL   H36149593   4.778   6.043   4.752  0.3350  0.6839 -0.2979
  137MOL   H36249594   4.445   6.195   5.004  1.2081  0.4459  1.2397
  138MOL     C149595   4.274   6.307   1.407  0.7397 -0.5762 -0.4600
  138MOL     C249596   4.168   6.217   1.340  0.0090  0.2770 -0.3166
  138MOL     C349597   4.078   6.315   1.250 -0.0562 -0.1407 -0.2237
  138MOL     C449598   4.158   6.393   1.135 -0.3619  0.9355  0.0844
  138MOL     C549599   4.080   6.489   1.054  0.1448 -0.2031  0.6196
  138MOL     C649600   4.220   6.295   1.040 -0.1891  0.0621 -0.4609
  138MOL     H749601   4.231   6.380   1.476 -1.1217 -0.5710 -1.5853
  138MOL     H849602   4.352   6.248   1.454  1.1950  0.7917  0.5372
  138MOL     H949603   4.222   6.141   1.284  0.8044 -0.0309  0.8391
  138MOL    H1049604   3.983   6.272   1.219 -0.8859  1.6392 -0.2139
  138MOL    H1149605   4.048   6.396   1.317 -0.8654  0.1535 -0.9342
  138MOL    H1249606   4.233   6.455   1.184  2.8337 -1.2083 -1.9378
  138MOL    H1349607   4.146   6.563   1.009  0.5893 -1.6454 -1.1565
  138MOL    H1449608   4.014   6.436   0.985  0.5623  0.3518 -0.2123
  138MOL    H1549609   4.010   6.549   1.112 -1.0542  0.1990 -1.1950
  138MOL    H1649610   4.153   6.239   0.975  0.4745 -1.7911  0.4237
  138MOL    H1749611   4.277   6.216   1.090 -1.3753  0.3541  1.3957
  138MOL    H1849612   4.290   6.358   0.985  0.1478  1.7449  1.8312
  138MOL    H1949613   4.337   6.358   1.334 -0.8760  1.0971 -0.7170
  138MOL    C2049614   4.081   6.149   1.446 -0.2021  0.0707 -0.2245
  138MOL    C2149615   3.974   6.048   1.395  0.0594  0.5883 -1.2003
  138MOL    C2249616   4.054   5.914   1.361  0.8362  0.4814 -0.4116
  138MOL    C2349617   3.969   5.821   1.278 -0.5129  0.2672 -0.3358
  138MOL    C2449618   4.010   5.834   1.132  0.3753 -0.0202  0.0545
  138MOL    C2549619   3.996   5.676   1.323  0.6185 -0.7636  0.2396
  138MOL    H2649620   4.147   6.097   1.516 -1.4980 -1.9960 -0.5189
  138MOL    H2749621   4.033   6.226   1.505  0.1985  0.0883  0.0834
  138MOL    H2849622   3.922   6.088   1.308  0.9684  0.7763 -1.6692
  138MOL    H2949623   4.066   5.877   1.463  1.5578 -0.4575 -0.8351
  138MOL    H3049624   4.157   5.934   1.334 -0.0671  0.7783 -3.8211
  138MOL    H3149625   3.861   5.838   1.282 -0.6644 -0.8661  0.9486
  138MOL    H3249626   3.979   5.932   1.095  0.8418  0.0374 -0.1996
  138MOL    H3349627   3.980   5.754   1.065  0.0310  1.9250 -2.1856
  138MOL    H3449628   4.119   5.834   1.124  0.3915  0.3320  0.2304
  138MOL    H3549629   4.100   5.651   1.298 -0.2051 -0.4829 -3.8287
  138MOL    H3649630   3.984   5.670   1.431 -0.6474  1.9225  0.2770
  138MOL    H3749631   3.923   5.604   1.285 -0.5667  1.1918 -1.2647
  138MOL    C3849632   3.859   6.013   1.494  0.0523  0.0998 -0.1779
  138MOL    C3949633   3.738   6.111   1.506  0.0692 -0.1075 -0.2516
  138MOL    C4049634   3.775   6.255   1.524  0.3350  0.7475 -0.2508
  138MOL    C4149635   3.659   6.357   1.497 -0.4430  0.5365  0.8990
  138MOL    C4249636   3.637   6.362   1.341 -0.1709  0.7557  0.5636
  138MOL    C4349637   3.686   6.494   1.551 -0.6111  0.2636 -0.3262
  138MOL    H4449638   3.904   6.003   1.592  0.7232  1.8077 -0.3028
  138MOL    H4549639   3.813   5.917   1.468 -0.1915  0.7044 -2.0920
  138MOL    H4649640   3.696   6.108   1.406 -0.8765  0.8997  0.1053
  138MOL    H4749641   3.854   6.285   1.454  1.8094  1.1227  1.5376
  138MOL    H4849642   3.813   6.275   1.624  0.8027 -1.2701  0.0054
  138MOL    H4949643   3.562   6.329   1.537 -2.0230  0.7809 -2.5342
  138MOL    H5049644   3.726   6.391   1.285 -0.7914  1.2567 -0.1679
  138MOL    H5149645   3.606   6.271   1.289 -2.4435  2.1759 -0.6408
  138MOL    H5249646   3.562   6.436   1.314 -1.1244 -0.0972  0.8752
  138MOL    H5349647   3.764   6.553   1.503 -0.0031 -0.7287 -0.5655
  138MOL    H5449648   3.709   6.496   1.657  2.7135 -0.4096 -0.9759
  138MOL    H5549649   3.600   6.557   1.529  0.8169  2.0363 -0.9961
  138MOL    C5649650   3.648   6.058   1.621  0.6367  0.3890 -0.9198
  138MOL    C5749651   3.533   5.963   1.570 -0.3957 -0.3121 -0.0959
  138MOL    C5849652   3.421   6.055   1.506  0.0994  0.1130 -0.3998
  138MOL    C5949653   3.288   5.994   1.457  0.5983  0.4446  0.3627
  138MOL    C6049654   3.297   5.933   1.322  0.2776  0.2143  0.5870
  138MOL    C6149655   3.184   6.104   1.480 -0.2011  0.6663  0.4523
  138MOL    H6249656   3.603   6.135   1.685  2.4399  2.1681 -1.7232
  138MOL    H6349657   3.711   6.005   1.692  0.1613 -0.6049 -1.2361
  138MOL    H6449658   3.571   5.902   1.488  0.9448  1.0147 -0.4765
  138MOL    H6549659   3.405   6.115   1.595  0.7199 -1.0866  0.5443
  138MOL    H6649660   3.471   6.113   1.428  0.2296  1.4088  0.6370
  138MOL    H6749661   3.271   5.915   1.530 -1.0909  1.6183  1.2693
  138MOL    H6849662   3.203   5.884   1.295 -1.3371  2.7088  1.4548
  138MOL    H6949663   3.384   5.870   1.308 -1.0967 -1.8733  1.0974
  138MOL    H7049664   3.312   6.009   1.246  0.3046  0.2390  0.6173
  138MOL    H7149665   3.193   6.175   1.397  0.6663 -0.0793 -0.1004
  138MOL    H7249666   3.201   6.149   1.578  1.0463 -0.7608  0.9034
  138MOL    H7349667   3.084   6.063   1.492  0.4036 -0.8126  0.4594
  138MOL    C7449668   3.492   5.877   1.698  0.9022  1.0145 -0.7807
  138MOL    C7549669   3.599   5.760   1.733  0.2846  0.1387 -0.5237
  138MOL    C7649670   3.538   5.624   1.685  0.4813 -0.4224 -0.3248
  138MOL    C7749671   3.509   5.614   1.536  0.0410  0.5413 -0.8246
  138MOL    C7849672   3.428   5.489   1.506 -0.1231 -0.2822 -0.7059
  138MOL    C7949673   3.630   5.601   1.445 -0.0462  0.2932 -0.0043
  138MOL    H8049674   3.389   5.844   1.693  0.9334  0.8366 -0.2975
  138MOL    H8149675   3.493   5.961   1.768  1.9374  1.3786 -1.2075
  138MOL    H8249676   3.694   5.786   1.685  0.7693 -1.5140 -0.4987
  138MOL    H8349677   3.604   5.545   1.721  1.1041  0.6078  0.8318
  138MOL    H8449678   3.443   5.602   1.735  1.5085 -0.0187  1.8739
  138MOL    H8549679   3.445   5.697   1.507 -0.8753  0.0834 -0.1142
  138MOL    H8649680   3.477   5.400   1.544  0.4031  0.8228  1.3062
  138MOL    H8749681   3.407   5.470   1.401  0.9648  1.5120 -1.2692
  138MOL    H8849682   3.334   5.492   1.562  0.5397  1.7316  0.3454
  138MOL    H8949683   3.605   5.579   1.341  0.6074 -2.4660  0.3844
  138MOL    H9049684   3.688   5.694   1.446 -1.2026  1.0150  2.0856
  138MOL    H9149685   3.683   5.510   1.473  0.3147  0.3345 -0.5455
  138MOL    C9249686   3.620   5.747   1.888 -0.8668 -0.7349  0.3753
  138MOL    C9349687   3.753   5.687   1.926 -0.0142 -0.6038 -0.4339
  138MOL    C9449688   3.877   5.766   1.888 -0.1452 -0.3517 -0.1720
  138MOL    C9549689   4.005   5.687   1.846 -0.1416  0.1246 -0.2527
  138MOL    C9649690   3.984   5.636   1.700 -0.0044 -0.6838  0.1665
  138MOL    C9749691   4.139   5.763   1.851 -0.5503 -0.1788 -0.3101
  138MOL    H9849692   3.629   5.845   1.934  0.6171 -0.8820  0.4143
  138MOL    H9949693   3.530   5.718   1.943 -0.9273  3.9688  3.0221
  138MOL   H10049694   3.768   5.594   1.871 -0.9307  0.6398 -2.8784
  138MOL   H10149695   3.887   5.847   1.960 -0.2883 -0.5259  0.0394
  138MOL   H10249696   3.862   5.823   1.796  1.5422  1.4232  0.6103
  138MOL   H10349697   4.010   5.597   1.909  1.3558 -1.2268 -2.2634
  138MOL   H10449698   3.894   5.576   1.680 -0.2949  0.5459 -2.3714
  138MOL   H10549699   4.074   5.583   1.668  0.4176  0.3095 -0.2960
  138MOL   H10649700   3.985   5.724   1.636 -2.4279  0.2966  1.4033
  138MOL   H10749701   4.217   5.715   1.793  0.5447 -0.0306  1.0244
  138MOL   H10849702   4.185   5.756   1.950 -3.9970 -2.6276  1.2324
  138MOL   H10949703   4.126   5.869   1.829 -1.4936 -0.0134  0.9623
  138MOL   C11049704   3.744   5.645   2.077  0.0053 -0.3696 -0.9387
  138MOL   C11149705   3.798   5.499   2.097 -0.2436  0.5646  1.1427
  138MOL   C11249706   3.853   5.482   2.236  0.8333 -0.5086 -0.2084
  138MOL   C11349707   3.990   5.534   2.258 -0.5071 -0.4389  0.0063
  138MOL   C11449708   4.107   5.445   2.197 -0.2924 -0.0949  0.3285
  138MOL   C11549709   4.012   5.559   2.407  0.2364  0.0610 -0.6205
  138MOL   H11649710   3.647   5.645   2.125 -1.0813  1.0459 -3.0658
  138MOL   H11749711   3.807   5.718   2.129  0.7383 -1.3464 -0.4457
  138MOL   H11849712   3.880   5.490   2.027 -0.8629  1.0325  0.3499
  138MOL   H11949713   3.853   5.377   2.263  2.7110 -0.4132  0.2501
  138MOL   H12049714   3.779   5.518   2.308  0.1023  2.1328 -2.2180
  138MOL   H12149715   3.989   5.633   2.212  0.5702 -0.1253  0.6338
  138MOL   H12249716   4.118   5.443   2.089 -0.2412 -1.3195  0.3525
  138MOL   H12349717   4.107   5.342   2.233  0.7717  0.0681  0.8204
  138MOL   H12449718   4.199   5.487   2.240 -1.5511  2.5057  0.5990
  138MOL   H12549719   3.975   5.472   2.462 -0.7136  1.1640  0.4990
  138MOL   H12649720   3.945   5.636   2.443  1.6541 -0.1212  2.5775
  138MOL   H12749721   4.113   5.595   2.424 -0.0759  0.9158 -0.5663
  138MOL   C12849722   3.688   5.385   2.058  0.1456  0.0749 -0.6423
  138MOL   C12949723   3.757   5.247   2.028 -0.5169 -0.0243 -0.7311
  138MOL   C13049724   3.709   5.186   1.894 -0.4486  0.8043 -0.0587
  138MOL   C13149725   3.747   5.259   1.753  0.4024  0.6395 -0.0495
  138MOL   C13249726   3.902   5.276   1.731 -0.1279  0.2455 -0.3877
  138MOL   C13349727   3.675   5.171   1.649 -0.0327  0.1119  0.1685
  138MOL   H13449728   3.636   5.419   1.969  0.8279  1.1630 -0.6409
  138MOL   H13549729   3.614   5.367   2.136  0.5420  1.6545  0.1280
  138MOL   H13649730   3.863   5.269   2.016  0.0905 -1.2112  2.1121
  138MOL   H13749731   3.759   5.089   1.895 -2.0759 -0.0442  2.0769
  138MOL   H13849732   3.603   5.162   1.905  0.3329 -1.2596  4.5209
  138MOL   H13949733   3.699   5.357   1.759 -0.7241  0.1791 -1.3117
  138MOL   H14049734   3.941   5.358   1.792  2.0808  0.3839 -1.9172
  138MOL   H14149735   3.921   5.305   1.628 -2.4066  1.4741 -0.5028
  138MOL   H14249736   3.956   5.188   1.764  1.1618  1.3039  0.3778
  138MOL   H14349737   3.682   5.202   1.545  2.0977  0.2152  0.3131
  138MOL   H14449738   3.697   5.065   1.650  0.9506  0.3079  1.0490
  138MOL   H14549739   3.568   5.170   1.670  0.1973  0.9501  1.5005
  138MOL   C14649740   3.744   5.149   2.153  0.1655  0.5507  0.3314
  138MOL   C14749741   3.881   5.070   2.174 -0.4356  0.2661 -0.1249
  138MOL   C14849742   3.880   4.928   2.112 -0.2888 -0.2124  0.3241
  138MOL   C14949743   4.002   4.882   2.023  0.5348 -0.1351  0.7302
  138MOL   C15049744   3.983   4.739   1.973 -0.2897  0.0965  0.1761
  138MOL   C15149745   4.022   4.971   1.893  0.8423 -0.4354  0.5646
  138MOL   H15249746   3.660   5.081   2.140  1.9087 -1.4925 -0.5998
  138MOL   H15349747   3.725   5.209   2.242  1.2129  0.9470  0.2987
  138MOL   H15449748   3.960   5.119   2.117  0.6520 -1.8106 -0.4403
  138MOL   H15549749   3.876   4.855   2.193 -0.8614 -0.3202  0.2035
  138MOL   H15649750   3.787   4.916   2.056  0.1166  0.2642 -0.4536
  138MOL   H15749751   4.089   4.886   2.088  0.2645  0.0186  1.0818
  138MOL   H15849752   4.081   4.693   1.978  0.0298  0.9729  2.8698
  138MOL   H15949753   3.949   4.736   1.869  1.2832 -0.7851 -0.3253
  138MOL   H16049754   3.920   4.673   2.033 -1.8592  0.1258 -1.4010
  138MOL   H16149755   4.047   5.075   1.915 -3.5103  0.3401  2.4082
  138MOL   H16249756   3.943   4.970   1.817  1.1825  0.4580  0.1953
  138MOL   H16349757   4.107   4.949   1.829 -0.3110  0.0361 -1.1973
  138MOL   C16449758   3.921   5.069   2.321  0.8949 -0.2156 -0.2198
  138MOL   C16549759   4.065   5.009   2.353  0.4166 -0.9165  0.8219
  138MOL   C16649760   4.185   5.096   2.312  0.8263  0.0874  0.1809
  138MOL   C16749761   4.327   5.041   2.320 -0.9388  0.5975 -0.4967
  138MOL   C16849762   4.343   4.913   2.239  0.0843  0.6857  0.4124
  138MOL   C16949763   4.433   5.148   2.283  0.1574 -0.2460 -0.2138
  138MOL   H17049764   3.918   5.168   2.365 -0.2939 -1.0189  1.5229
  138MOL   H17149765   3.850   5.006   2.374 -0.2764  0.2629 -1.1999
  138MOL   H17249766   4.065   4.910   2.307 -1.1691 -0.5974  0.0896
  138MOL   H17349767   4.160   5.122   2.210  0.6595 -0.6390  0.0373
  138MOL   H17449768   4.178   5.191   2.366 -0.8843  0.8875 -1.3917
  138MOL   H17549769   4.358   5.011   2.421 -1.5874  3.2634  0.5239
  138MOL   H17649770   4.329   4.927   2.132 -0.6865  0.5908  0.4960
  138MOL   H17749771   4.275   4.829   2.259 -1.1348  1.5661 -0.0113
  138MOL   H17849772   4.444   4.874   2.235  0.0999  0.8857 -1.6536
  138MOL   H17949773   4.427   5.174   2.178 -0.4313  1.0750  0.1430
  138MOL   H18049774   4.535   5.122   2.311 -0.0931  1.0954  2.1288
  138MOL   H18149775   4.404   5.241   2.332  1.0437  0.3046 -0.7263
  138MOL   C18249776   4.080   4.972   2.503  0.0214  0.1903 -0.7763
  138MOL   C18349777   3.970   4.876   2.573  0.0996  0.0352 -0.6303
  138MOL   C18449778   3.922   4.749   2.491 -0.2118  0.8177 -0.4298
  138MOL   C18549779   4.024   4.622   2.499  0.9630  0.4611  0.1992
  138MOL   C18649780   3.932   4.499   2.462 -0.0651  0.0376 -0.1269
  138MOL   C18749781   4.143   4.628   2.408 -0.8502 -0.1525 -0.6277
  138MOL   H18849782   4.087   5.061   2.566 -3.7975 -1.7552  2.6817
  138MOL   H18949783   4.177   4.926   2.518 -0.0086  0.0486 -1.0132
  138MOL   H19049784   3.879   4.935   2.581  0.6861  0.9687 -0.8071
  138MOL   H19149785   3.896   4.773   2.388 -1.0848 -0.3602 -0.4926
  138MOL   H19249786   3.826   4.730   2.538 -0.0728  3.5527  1.1000
  138MOL   H19349787   4.057   4.600   2.600 -2.0229  0.6977  1.3000
  138MOL   H19449788   3.888   4.502   2.362 -0.0885  1.2358 -0.0876
  138MOL   H19549789   3.843   4.502   2.524  0.4040  1.4860  0.5119
  138MOL   H19649790   3.987   4.405   2.463 -2.3516 -1.3282  0.8459
  138MOL   H19749791   4.216   4.696   2.451 -1.4593  0.6389 -0.8317
  138MOL   H19849792   4.133   4.673   2.309 -0.0092 -2.6056 -1.8620
  138MOL   H19949793   4.195   4.533   2.396  1.0922  0.6713  1.0831
  138MOL   C20049794   4.014   4.840   2.723 -0.0954  0.7646  0.3139
  138MOL   C20149795   4.005   4.951   2.825 -0.0769  0.0221  0.1984
  138MOL   C20249796   4.124   4.940   2.924  0.8402 -0.3119 -0.7545
  138MOL   C20349797   4.133   4.809   3.010 -0.5009 -0.1136 -0.0368
  138MOL   C20449798   4.245   4.720   2.962 -0.1176 -0.2286  0.4073
  138MOL   C20549799   4.162   4.843   3.157  0.0133 -0.0255  0.2380
  138MOL   H20649800   4.116   4.804   2.717 -0.8158 -1.2374 -0.4311
  138MOL   H20749801   3.953   4.757   2.761  0.9162  0.5561  1.5109
  138MOL   H20849802   4.026   5.045   2.773  2.4377 -0.5928  0.0439
  138MOL   H20949803   4.217   4.971   2.876  2.1828  1.1986  2.6408
  138MOL   H21049804   4.119   5.023   2.995  2.3663  1.8245 -3.0227
  138MOL   H21149805   4.038   4.757   2.993 -0.3586 -0.6168  0.6546
  138MOL   H21249806   4.236   4.626   3.016 -2.4356 -0.5060 -0.4058
  138MOL   H21349807   4.343   4.764   2.982  1.6669 -3.7565 -0.0515
  138MOL   H21449808   4.231   4.701   2.855 -0.3745  1.2283  0.1705
  138MOL   H21549809   4.259   4.891   3.171  0.5545 -0.8918 -0.4717
  138MOL   H21649810   4.168   4.754   3.219 -5.0475 -0.1880  0.6680
  138MOL   H21749811   4.100   4.924   3.194 -0.3000 -0.3575  0.4375
  138MOL   C21849812   3.867   4.944   2.908 -0.3212 -0.5406 -0.5060
  138MOL   C21949813   3.802   5.081   2.960  0.5201  0.0298  0.1063
  138MOL   C22049814   3.818   5.206   2.868 -0.0687 -0.3695 -0.1220
  138MOL   C22149815   3.752   5.201   2.729 -0.2103  0.5620  0.0393
  138MOL   C22249816   3.600   5.190   2.726 -0.4012  0.3761 -0.1974
  138MOL   C22349817   3.813   5.324   2.653 -0.0294 -0.0558 -0.0027
  138MOL   H22449818   3.786   4.913   2.841 -0.0895  1.7592 -1.8744
  138MOL   H22549819   3.874   4.874   2.992 -2.3577  0.2271  0.3460
  138MOL   H22649820   3.697   5.056   2.947  0.4427  1.1940 -1.6934
  138MOL   H22749821   3.801   5.307   2.907  0.7486  0.2936 -1.4584
  138MOL   H22849822   3.925   5.221   2.859  0.2561 -2.6539 -0.3181
  138MOL   H22949823   3.781   5.107   2.682 -0.9189  0.0637  0.5767
  138MOL   H23049824   3.565   5.092   2.756 -0.8006  0.9546  1.2820
  138MOL   H23149825   3.566   5.259   2.803  2.1986  0.0116  1.3129
  138MOL   H23249826   3.577   5.204   2.620 -0.6968  0.2413 -0.1523
  138MOL   H23349827   3.766   5.355   2.559  0.1658  0.2360 -0.0035
  138MOL   H23449828   3.807   5.409   2.720  0.3081 -2.2810  2.9644
  138MOL   H23549829   3.919   5.306   2.634  0.4420  2.1664  0.4612
  138MOL   C23649830   3.837   5.123   3.107  0.4069  0.7877  0.9982
  138MOL   C23749831   3.721   5.214   3.160  0.4843 -0.9077 -0.2607
  138MOL   C23849832   3.771   5.304   3.281  0.1795  0.7304 -0.1587
  138MOL   C23949833   3.828   5.441   3.238 -0.5928  0.0627 -0.6050
  138MOL   C24049834   3.850   5.536   3.355  0.2942  0.4365 -0.1890
  138MOL   C24149835   3.966   5.449   3.153  0.1541 -0.9668  0.0178
  138MOL   H24249836   3.933   5.174   3.100  1.8263 -2.0503 -1.2269
  138MOL   H24349837   3.852   5.035   3.169 -0.0971  0.2010  0.2926
  138MOL   H24449838   3.698   5.296   3.092 -0.5550 -1.4285 -0.5394
  138MOL   H24549839   3.840   5.249   3.345 -0.2495 -0.6679 -0.8888
  138MOL   H24649840   3.681   5.328   3.338  0.0502  0.1746 -0.1243
  138MOL   H24749841   3.747   5.486   3.180 -0.1368 -0.9707 -2.0550
  138MOL   H24849842   3.898   5.483   3.437  3.3091  2.5039 -0.5568
  138MOL   H24949843   3.747   5.558   3.385  0.9572  4.0337 -0.2690
  138MOL   H25049844   3.909   5.622   3.323  3.0786 -0.6049  1.9726
  138MOL   H25149845   4.050   5.406   3.208 -0.0875 -0.7624  0.5483
  138MOL   H25249846   3.997   5.553   3.139 -1.3765 -0.0651  2.8978
  138MOL   H25349847   3.952   5.398   3.058  1.6551  1.3943 -1.5170
  138MOL   C25449848   3.588   5.146   3.196 -0.2359  0.4114 -0.2499
  138MOL   C25549849   3.469   5.241   3.202  0.2037  0.4637  0.0525
  138MOL   C25649850   3.422   5.278   3.060  0.9276  0.1283 -0.2521
  138MOL   C25749851   3.349   5.415   3.047  1.3151 -0.1632 -0.7854
  138MOL   C25849852   3.195   5.413   3.090 -0.4786 -0.4522  0.2607
  138MOL   C25949853   3.361   5.472   2.905  0.0557  0.6338  0.1878
  138MOL   H26049854   3.571   5.066   3.124  2.0619  0.5286 -0.9359
  138MOL   H26149855   3.592   5.088   3.289  0.2549 -0.3943 -0.7683
  138MOL   H26249856   3.488   5.333   3.256 -1.4535  1.3617 -0.8443
  138MOL   H26349857   3.367   5.192   3.021  1.5033 -1.0131  1.3505
  138MOL   H26449858   3.511   5.289   2.999  0.2831  1.0253 -1.0334
  138MOL   H26549859   3.393   5.493   3.109 -1.2149 -0.2573  1.2116
  138MOL   H26649860   3.133   5.331   3.054 -0.6274 -0.0767 -0.3516
  138MOL   H26749861   3.142   5.501   3.052  3.1349  1.9081  0.4954
  138MOL   H26849862   3.174   5.418   3.197 -0.3148 -0.2407  0.2827
  138MOL   H26949863   3.288   5.423   2.840  1.6068 -3.1386  1.1695
  138MOL   H27049864   3.324   5.575   2.903  0.5952  0.8209 -0.5616
  138MOL   H27149865   3.463   5.479   2.867  0.7115 -1.6047  1.4981
  138MOL   C27249866   3.352   5.171   3.283 -0.1790  0.0909  0.1083
  138MOL   C27349867   3.362   5.130   3.430  0.4403  0.5057  0.2241
  138MOL   C27449868   3.408   5.251   3.515 -0.2720 -0.0178  1.1869
  138MOL   C27549869   3.338   5.381   3.499  0.7679  0.0094  0.4849
  138MOL   C27649870   3.413   5.491   3.582 -0.5260 -0.9621 -0.3528
  138MOL   C27749871   3.182   5.371   3.528 -0.3926  0.6923 -0.1707
  138MOL   H27849872   3.263   5.233   3.274  1.5827  2.8897  1.2934
  138MOL   H27949873   3.335   5.078   3.228 -1.0290  0.7702 -0.8005
  138MOL   H28049874   3.438   5.054   3.445 -2.1948 -2.1270  0.6953
  138MOL   H28149875   3.516   5.263   3.502 -0.2649 -0.8161  0.3939
  138MOL   H28249876   3.389   5.217   3.617 -1.3077 -0.5373  0.8189
  138MOL   H28349877   3.353   5.413   3.396  0.6218  2.7970  1.3066
  138MOL   H28449878   3.511   5.512   3.540 -0.4986 -0.8362 -0.2255
  138MOL   H28549879   3.363   5.588   3.574  0.2946 -0.4916  0.2328
  138MOL   H28649880   3.428   5.471   3.688 -1.3418  1.8328  0.3261
  138MOL   H28749881   3.137   5.470   3.533 -1.3358  0.3361 -1.3563
  138MOL   H28849882   3.129   5.341   3.438  0.1794  0.3862 -0.4083
  138MOL   H28949883   3.129   5.313   3.603  1.6747 -0.5114  0.3971
  138MOL   C29049884   3.239   5.050   3.483 -0.1388 -0.7162 -0.4296
  138MOL   C29149885   3.217   4.901   3.439  0.2402  0.1943 -0.3270
  138MOL   C29249886   3.159   4.886   3.290  0.5476 -0.3368  0.1149
  138MOL   C29349887   3.042   4.981   3.249 -0.1647  0.1127  0.2764
  138MOL   C29449888   2.985   4.952   3.107  0.0318 -0.1120  0.3653
  138MOL   C29549889   2.925   4.961   3.343  0.4729 -0.1719 -0.1876
  138MOL   H29649890   3.227   5.052   3.591  1.5459  0.0642 -0.2473
  138MOL   H29749891   3.148   5.103   3.457  0.2904 -0.4889 -1.5042
  138MOL   H29849892   3.133   4.867   3.499  2.3159 -4.3480  0.2129
  138MOL   H29949893   3.120   4.786   3.274  1.7237 -0.9229  0.8604
  138MOL   H30049894   3.241   4.895   3.218 -0.0262  3.0056 -0.2149
  138MOL   H30149895   3.078   5.084   3.257  1.0626 -0.1825 -1.2563
  138MOL   H30249896   3.058   4.959   3.026 -0.6931  1.6598 -0.1517
  138MOL   H30349897   2.911   5.025   3.076 -0.3673 -0.2323  1.0263
  138MOL   H30449898   2.949   4.849   3.103 -0.6740  0.0731  1.6595
  138MOL   H30549899   2.848   5.030   3.309 -0.3379 -0.0489  1.8212
  138MOL   H30649900   2.947   4.982   3.448 -0.8775 -2.2339  0.5400
  138MOL   H30749901   2.902   4.854   3.340  0.1727 -0.1366  0.7400
  138MOL   C30849902   3.339   4.815   3.471 -0.7612  0.8730 -0.7764
  138MOL   C30949903   3.393   4.827   3.614 -0.4360  0.5821 -0.0190
  138MOL   C31049904   3.280   4.793   3.718  0.4258 -0.3775 -0.7175
  138MOL   C31149905   3.298   4.824   3.869 -0.4262 -1.3208 -0.5635
  138MOL   C31249906   3.298   4.974   3.893 -0.3127  0.0447 -0.6644
  138MOL   C31349907   3.190   4.754   3.955  0.4838  0.6150  0.2181
  138MOL   H31449908   3.311   4.712   3.449  1.0240  0.0030  0.8642
  138MOL   H31549909   3.418   4.834   3.398 -0.2544  2.3414  0.1416
  138MOL   H31649910   3.434   4.927   3.630  0.5609  0.5021 -1.8033
  138MOL   H31749911   3.242   4.690   3.712 -1.4035  0.0798  2.0017
  138MOL   H31849912   3.191   4.848   3.685 -1.3279 -1.6157  1.8059
  138MOL   H31949913   3.395   4.784   3.899 -0.7571 -1.9725 -0.3292
  138MOL   H32049914   3.319   4.988   3.999  1.1532  0.7870 -1.0384
  138MOL   H32149915   3.192   5.000   3.888  0.3240  3.1455  0.7459
  138MOL   H32249916   3.358   5.039   3.829  2.0354 -1.2003  0.2166
  138MOL   H32349917   3.204   4.648   3.933  0.8779  0.3545  1.6597
  138MOL   H32449918   3.216   4.764   4.060  0.0642  0.3042  0.3532
  138MOL   H32549919   3.091   4.788   3.926  0.5480 -0.3541 -1.1993
  138MOL   C32649920   3.515   4.732   3.637 -0.3402 -0.2366 -0.4191
  138MOL   C32749921   3.644   4.768   3.559  0.6370  0.0837  1.1213
  138MOL   C32849922   3.653   4.689   3.427 -0.3638 -0.0151  0.5468
  138MOL   C32949923   3.727   4.745   3.310  0.2526 -0.5885  0.0038
  138MOL   C33049924   3.880   4.740   3.327  0.0226 -0.7951 -0.7082
  138MOL   C33149925   3.691   4.661   3.189 -0.1246  0.2471 -0.2962
  138MOL   H33249926   3.489   4.631   3.604 -2.7787  0.5886 -1.0929
  138MOL   H33349927   3.528   4.693   3.738  0.0252  1.5379  0.2406
  138MOL   H33449928   3.637   4.875   3.538 -1.8907 -0.2629  0.0009
  138MOL   H33549929   3.691   4.587   3.431  1.5427  0.6474  0.1100
  138MOL   H33649930   3.548   4.675   3.401 -0.3519 -0.3350  0.6664
  138MOL   H33749931   3.705   4.852   3.305 -3.0441 -1.1774  1.1796
  138MOL   H33849932   3.911   4.836   3.369 -0.8833 -1.0114  0.4599
  138MOL   H33949933   3.930   4.729   3.231  2.4352  2.5294  0.0799
  138MOL   H34049934   3.915   4.666   3.399 -1.3555 -1.0212 -0.2637
  138MOL   H34149935   3.683   4.552   3.187  1.8146  0.0725  1.1881
  138MOL   H34249936   3.596   4.699   3.151 -1.5047 -2.2566  0.5067
  138MOL   H34349937   3.765   4.683   3.112 -0.0649  2.1532  0.2831
  138MOL   C34449938   3.769   4.769   3.651 -0.4626  0.7412  0.5259
  138MOL   C34549939   3.821   4.631   3.681 -0.9851 -0.7023  0.6879
  138MOL   C34649940   3.921   4.631   3.800 -0.6936  0.3912 -0.1262
  138MOL   C34749941   4.010   4.502   3.807 -0.2739  0.3612  0.2238
  138MOL   C34849942   3.930   4.383   3.872 -0.0198 -0.1458 -0.2985
  138MOL   C34949943   4.149   4.513   3.883  0.1197 -0.1303  0.5155
  138MOL   H35049944   3.747   4.823   3.743  1.7667  1.7577  0.4872
  138MOL   H35149945   3.858   4.821   3.615  0.9628 -0.3845  2.3030
  138MOL   H35249946   3.883   4.597   3.598 -0.6084 -1.5206  1.2991
  138MOL   H35349947   3.973   4.726   3.795 -2.6968  1.7986  3.8337
  138MOL   H35449948   3.859   4.640   3.889 -1.1300  0.6841 -0.4563
  138MOL   H35549949   4.048   4.475   3.708 -1.3572  0.1515 -0.1394
  138MOL   H35649950   3.987   4.291   3.870  3.7381  2.0248  1.4769
  138MOL   H35749951   3.896   4.401   3.974  1.0291  0.3114 -0.0219
  138MOL   H35849952   3.839   4.370   3.814 -0.2602  0.2035 -0.0001
  138MOL   H35949953   4.133   4.528   3.989 -1.2165  1.4853  0.1016
  138MOL   H36049954   4.213   4.593   3.845  0.6945 -0.0682  1.6221
  138MOL   H36149955   4.207   4.423   3.861  1.9338  0.9940  0.6058
  138MOL   H36249956   3.737   4.565   3.704 -0.8814 -1.9820 -2.4301
   7.75230   7.75230   7.75230
