;
; Gromacs include topology (itp) file.
; For Molecular Group XYZ
; Force field scheme: opls2005
; Produced from DL_FIELD v4.11
;


[ moleculetype ]
; name    nrexcl
XYZ    3

[ atoms ]
; nr   type   resnr   residu    atom    cgnr    charge    mass
    1        CT    1  MOL      C1     1  -0.1800000   12.0115
    2        CT    1  MOL      C2     2   0.1400000   12.0115
    3        OS    1  MOL      O3     3  -0.4000000   15.9994
    4        HC    1  MOL      H4     4   0.0600000    1.0080
    5        HC    1  MOL      H5     5   0.0600000    1.0080
    6        HC    1  MOL      H6     6   0.0300000    1.0080
    7        HC    1  MOL      H7     7   0.0300000    1.0080
    8        HC    1  MOL      H8     8   0.0600000    1.0080
    9        CT    1  MOL      C9     9   0.1400000   12.0115
   10        CT    1  MOL     C10    10   0.1400000   12.0115
   11        OS    1  MOL     O11    11  -0.4000000   15.9994
   12        HC    1  MOL     H12    12   0.0300000    1.0080
   13        HC    1  MOL     H13    13   0.0300000    1.0080
   14        HC    1  MOL     H14    14   0.0300000    1.0080
   15        HC    1  MOL     H15    15   0.0300000    1.0080
   16        CT    1  MOL     C16    16   0.1400000   12.0115
   17        CT    1  MOL     C17    17   0.1400000   12.0115
   18        OS    1  MOL     O18    18  -0.4000000   15.9994
   19        HC    1  MOL     H19    19   0.0300000    1.0080
   20        HC    1  MOL     H20    20   0.0300000    1.0080
   21        HC    1  MOL     H21    21   0.0300000    1.0080
   22        HC    1  MOL     H22    22   0.0300000    1.0080
   23        CT    1  MOL     C23    23   0.1400000   12.0115
   24        CT    1  MOL     C24    24   0.1400000   12.0115
   25        OS    1  MOL     O25    25  -0.4000000   15.9994
   26        HC    1  MOL     H26    26   0.0300000    1.0080
   27        HC    1  MOL     H27    27   0.0300000    1.0080
   28        HC    1  MOL     H28    28   0.0300000    1.0080
   29        HC    1  MOL     H29    29   0.0300000    1.0080
   30        CT    1  MOL     C30    30   0.1400000   12.0115
   31        CT    1  MOL     C31    31   0.1400000   12.0115
   32        OS    1  MOL     O32    32  -0.4000000   15.9994
   33        HC    1  MOL     H33    33   0.0300000    1.0080
   34        HC    1  MOL     H34    34   0.0300000    1.0080
   35        HC    1  MOL     H35    35   0.0300000    1.0080
   36        HC    1  MOL     H36    36   0.0300000    1.0080
   37        CT    1  MOL     C37    37   0.1400000   12.0115
   38        CT    1  MOL     C38    38   0.1400000   12.0115
   39        OS    1  MOL     O39    39  -0.4000000   15.9994
   40        HC    1  MOL     H40    40   0.0300000    1.0080
   41        HC    1  MOL     H41    41   0.0300000    1.0080
   42        HC    1  MOL     H42    42   0.0300000    1.0080
   43        HC    1  MOL     H43    43   0.0300000    1.0080
   44        CT    1  MOL     C44    44   0.1400000   12.0115
   45        CT    1  MOL     C45    45   0.1400000   12.0115
   46        OS    1  MOL     O46    46  -0.4000000   15.9994
   47        HC    1  MOL     H47    47   0.0300000    1.0080
   48        HC    1  MOL     H48    48   0.0300000    1.0080
   49        HC    1  MOL     H49    49   0.0300000    1.0080
   50        HC    1  MOL     H50    50   0.0300000    1.0080
   51        CT    1  MOL     C51    51   0.1400000   12.0115
   52        CT    1  MOL     C52    52   0.1400000   12.0115
   53        OS    1  MOL     O53    53  -0.4000000   15.9994
   54        HC    1  MOL     H54    54   0.0300000    1.0080
   55        HC    1  MOL     H55    55   0.0300000    1.0080
   56        HC    1  MOL     H56    56   0.0300000    1.0080
   57        HC    1  MOL     H57    57   0.0300000    1.0080
   58        CT    1  MOL     C58    58   0.1400000   12.0115
   59        CT    1  MOL     C59    59   0.1400000   12.0115
   60        OS    1  MOL     O60    60  -0.4000000   15.9994
   61        HC    1  MOL     H61    61   0.0300000    1.0080
   62        HC    1  MOL     H62    62   0.0300000    1.0080
   63        HC    1  MOL     H63    63   0.0300000    1.0080
   64        HC    1  MOL     H64    64   0.0300000    1.0080
   65        CT    1  MOL     C65    65   0.1400000   12.0115
   66        CT    1  MOL     C66    66   0.1400000   12.0115
   67        OS    1  MOL     O67    67  -0.4000000   15.9994
   68        HC    1  MOL     H68    68   0.0300000    1.0080
   69        HC    1  MOL     H69    69   0.0300000    1.0080
   70        HC    1  MOL     H70    70   0.0300000    1.0080
   71        HC    1  MOL     H71    71   0.0300000    1.0080
   72        CT    1  MOL     C72    72   0.1400000   12.0115
   73        CT    1  MOL     C73    73   0.1400000   12.0115
   74        OS    1  MOL     O74    74  -0.4000000   15.9994
   75        HC    1  MOL     H75    75   0.0300000    1.0080
   76        HC    1  MOL     H76    76   0.0300000    1.0080
   77        HC    1  MOL     H77    77   0.0300000    1.0080
   78        HC    1  MOL     H78    78   0.0300000    1.0080
   79        CT    1  MOL     C79    79   0.1400000   12.0115
   80        CT    1  MOL     C80    80   0.1400000   12.0115
   81        OS    1  MOL     O81    81  -0.4000000   15.9994
   82        HC    1  MOL     H82    82   0.0300000    1.0080
   83        HC    1  MOL     H83    83   0.0300000    1.0080
   84        HC    1  MOL     H84    84   0.0300000    1.0080
   85        HC    1  MOL     H85    85   0.0300000    1.0080
   86        CT    1  MOL     C86    86   0.1400000   12.0115
   87        CT    1  MOL     C87    87   0.1400000   12.0115
   88        OS    1  MOL     O88    88  -0.4000000   15.9994
   89        HC    1  MOL     H89    89   0.0300000    1.0080
   90        HC    1  MOL     H90    90   0.0300000    1.0080
   91        HC    1  MOL     H91    91   0.0300000    1.0080
   92        HC    1  MOL     H92    92   0.0300000    1.0080
   93        CT    1  MOL     C93    93   0.1400000   12.0115
   94        CT    1  MOL     C94    94   0.1400000   12.0115
   95        OS    1  MOL     O95    95  -0.4000000   15.9994
   96        HC    1  MOL     H96    96   0.0300000    1.0080
   97        HC    1  MOL     H97    97   0.0300000    1.0080
   98        HC    1  MOL     H98    98   0.0300000    1.0080
   99        HC    1  MOL     H99    99   0.0300000    1.0080
  100        CT    1  MOL    C100   100   0.1400000   12.0115
  101        CT    1  MOL    C101   101   0.1400000   12.0115
  102        OS    1  MOL    O102   102  -0.4000000   15.9994
  103        HC    1  MOL    H103   103   0.0300000    1.0080
  104        HC    1  MOL    H104   104   0.0300000    1.0080
  105        HC    1  MOL    H105   105   0.0300000    1.0080
  106        HC    1  MOL    H106   106   0.0300000    1.0080
  107        CT    1  MOL    C107   107   0.1400000   12.0115
  108        CT    1  MOL    C108   108   0.1400000   12.0115
  109        OS    1  MOL    O109   109  -0.4000000   15.9994
  110        HC    1  MOL    H110   110   0.0300000    1.0080
  111        HC    1  MOL    H111   111   0.0300000    1.0080
  112        HC    1  MOL    H112   112   0.0300000    1.0080
  113        HC    1  MOL    H113   113   0.0300000    1.0080
  114        CT    1  MOL    C114   114   0.1400000   12.0115
  115        CT    1  MOL    C115   115   0.1400000   12.0115
  116        OS    1  MOL    O116   116  -0.4000000   15.9994
  117        HC    1  MOL    H117   117   0.0300000    1.0080
  118        HC    1  MOL    H118   118   0.0300000    1.0080
  119        HC    1  MOL    H119   119   0.0300000    1.0080
  120        HC    1  MOL    H120   120   0.0300000    1.0080
  121        CT    1  MOL    C121   121   0.1400000   12.0115
  122        CT    1  MOL    C122   122   0.1400000   12.0115
  123        OS    1  MOL    O123   123  -0.4000000   15.9994
  124        HC    1  MOL    H124   124   0.0300000    1.0080
  125        HC    1  MOL    H125   125   0.0300000    1.0080
  126        HC    1  MOL    H126   126   0.0300000    1.0080
  127        HC    1  MOL    H127   127   0.0300000    1.0080
  128        CT    1  MOL    C128   128   0.1400000   12.0115
  129        CT    1  MOL    C129   129   0.1400000   12.0115
  130        OS    1  MOL    O130   130  -0.4000000   15.9994
  131        HC    1  MOL    H131   131   0.0300000    1.0080
  132        HC    1  MOL    H132   132   0.0300000    1.0080
  133        HC    1  MOL    H133   133   0.0300000    1.0080
  134        HC    1  MOL    H134   134   0.0300000    1.0080
  135        CT    1  MOL    C135   135   0.1400000   12.0115
  136        CT    1  MOL    C136   136   0.1450000   12.0115
  137       OAL    1  MOL    O137   137  -0.6830000   15.9994
  138        HC    1  MOL    H138   138   0.0300000    1.0080
  139        HC    1  MOL    H139   139   0.0300000    1.0080
  140        HC    1  MOL    H140   140   0.0600000    1.0080
  141        HC    1  MOL    H141   141   0.0600000    1.0080
  142        HO    1  MOL    H142   142   0.4180000    1.0080

[ bonds ]
      1      2   1      0.1529 224262.4000
      1      4   1      0.1090 284512.0000
      1      5   1      0.1090 284512.0000
      1      8   1      0.1090 284512.0000
      2      3   1      0.1410 267776.0000
      2      6   1      0.1090 284512.0000
      2      7   1      0.1090 284512.0000
      3      9   1      0.1410 267776.0000
      9     10   1      0.1529 224262.4000
      9     12   1      0.1090 284512.0000
      9     13   1      0.1090 284512.0000
     10     11   1      0.1410 267776.0000
     10     14   1      0.1090 284512.0000
     10     15   1      0.1090 284512.0000
     11     16   1      0.1410 267776.0000
     16     17   1      0.1529 224262.4000
     16     19   1      0.1090 284512.0000
     16     20   1      0.1090 284512.0000
     17     18   1      0.1410 267776.0000
     17     21   1      0.1090 284512.0000
     17     22   1      0.1090 284512.0000
     18     23   1      0.1410 267776.0000
     23     24   1      0.1529 224262.4000
     23     26   1      0.1090 284512.0000
     23     27   1      0.1090 284512.0000
     24     25   1      0.1410 267776.0000
     24     28   1      0.1090 284512.0000
     24     29   1      0.1090 284512.0000
     25     30   1      0.1410 267776.0000
     30     31   1      0.1529 224262.4000
     30     33   1      0.1090 284512.0000
     30     34   1      0.1090 284512.0000
     31     32   1      0.1410 267776.0000
     31     35   1      0.1090 284512.0000
     31     36   1      0.1090 284512.0000
     32     37   1      0.1410 267776.0000
     37     38   1      0.1529 224262.4000
     37     40   1      0.1090 284512.0000
     37     41   1      0.1090 284512.0000
     38     39   1      0.1410 267776.0000
     38     42   1      0.1090 284512.0000
     38     43   1      0.1090 284512.0000
     39     44   1      0.1410 267776.0000
     44     45   1      0.1529 224262.4000
     44     47   1      0.1090 284512.0000
     44     48   1      0.1090 284512.0000
     45     46   1      0.1410 267776.0000
     45     49   1      0.1090 284512.0000
     45     50   1      0.1090 284512.0000
     46     51   1      0.1410 267776.0000
     51     52   1      0.1529 224262.4000
     51     54   1      0.1090 284512.0000
     51     55   1      0.1090 284512.0000
     52     53   1      0.1410 267776.0000
     52     56   1      0.1090 284512.0000
     52     57   1      0.1090 284512.0000
     53     58   1      0.1410 267776.0000
     58     59   1      0.1529 224262.4000
     58     61   1      0.1090 284512.0000
     58     62   1      0.1090 284512.0000
     59     60   1      0.1410 267776.0000
     59     63   1      0.1090 284512.0000
     59     64   1      0.1090 284512.0000
     60     65   1      0.1410 267776.0000
     65     66   1      0.1529 224262.4000
     65     68   1      0.1090 284512.0000
     65     69   1      0.1090 284512.0000
     66     67   1      0.1410 267776.0000
     66     70   1      0.1090 284512.0000
     66     71   1      0.1090 284512.0000
     67     72   1      0.1410 267776.0000
     72     73   1      0.1529 224262.4000
     72     75   1      0.1090 284512.0000
     72     76   1      0.1090 284512.0000
     73     74   1      0.1410 267776.0000
     73     77   1      0.1090 284512.0000
     73     78   1      0.1090 284512.0000
     74     79   1      0.1410 267776.0000
     79     80   1      0.1529 224262.4000
     79     82   1      0.1090 284512.0000
     79     83   1      0.1090 284512.0000
     80     81   1      0.1410 267776.0000
     80     84   1      0.1090 284512.0000
     80     85   1      0.1090 284512.0000
     81     86   1      0.1410 267776.0000
     86     87   1      0.1529 224262.4000
     86     89   1      0.1090 284512.0000
     86     90   1      0.1090 284512.0000
     87     88   1      0.1410 267776.0000
     87     91   1      0.1090 284512.0000
     87     92   1      0.1090 284512.0000
     88     93   1      0.1410 267776.0000
     93     94   1      0.1529 224262.4000
     93     96   1      0.1090 284512.0000
     93     97   1      0.1090 284512.0000
     94     95   1      0.1410 267776.0000
     94     98   1      0.1090 284512.0000
     94     99   1      0.1090 284512.0000
     95    100   1      0.1410 267776.0000
    100    101   1      0.1529 224262.4000
    100    103   1      0.1090 284512.0000
    100    104   1      0.1090 284512.0000
    101    102   1      0.1410 267776.0000
    101    105   1      0.1090 284512.0000
    101    106   1      0.1090 284512.0000
    102    107   1      0.1410 267776.0000
    107    108   1      0.1529 224262.4000
    107    110   1      0.1090 284512.0000
    107    111   1      0.1090 284512.0000
    108    109   1      0.1410 267776.0000
    108    112   1      0.1090 284512.0000
    108    113   1      0.1090 284512.0000
    109    114   1      0.1410 267776.0000
    114    115   1      0.1529 224262.4000
    114    117   1      0.1090 284512.0000
    114    118   1      0.1090 284512.0000
    115    116   1      0.1410 267776.0000
    115    119   1      0.1090 284512.0000
    115    120   1      0.1090 284512.0000
    116    121   1      0.1410 267776.0000
    121    122   1      0.1529 224262.4000
    121    124   1      0.1090 284512.0000
    121    125   1      0.1090 284512.0000
    122    123   1      0.1410 267776.0000
    122    126   1      0.1090 284512.0000
    122    127   1      0.1090 284512.0000
    123    128   1      0.1410 267776.0000
    128    129   1      0.1529 224262.4000
    128    131   1      0.1090 284512.0000
    128    132   1      0.1090 284512.0000
    129    130   1      0.1410 267776.0000
    129    133   1      0.1090 284512.0000
    129    134   1      0.1090 284512.0000
    130    135   1      0.1410 267776.0000
    135    136   1      0.1529 224262.4000
    135    138   1      0.1090 284512.0000
    135    139   1      0.1090 284512.0000
    136    137   1      0.1410 267776.0000
    136    140   1      0.1090 284512.0000
    136    141   1      0.1090 284512.0000
    137    142   1      0.0945 462750.4000

[ pairs ]
; ai   aj   funct   fudge_QQ  charge_i   charge_j   c6    c12
      4      3   2   0.50000     0.0600000   -0.4000000   2.066619e-04  7.875431e-08
      4      6   2   0.50000     0.0600000    0.0300000   6.128906e-05  1.496315e-08
      4      7   2   0.50000     0.0600000    0.0300000   6.128906e-05  1.496315e-08
      5      3   2   0.50000     0.0600000   -0.4000000   2.066619e-04  7.875431e-08
      5      6   2   0.50000     0.0600000    0.0300000   6.128906e-05  1.496315e-08
      5      7   2   0.50000     0.0600000    0.0300000   6.128906e-05  1.496315e-08
      8      3   2   0.50000     0.0600000   -0.4000000   2.066619e-04  7.875431e-08
      8      6   2   0.50000     0.0600000    0.0300000   6.128906e-05  1.496315e-08
      8      7   2   0.50000     0.0600000    0.0300000   6.128906e-05  1.496315e-08
      1      9   2   0.50000    -0.1800000    0.1400000   1.015252e-03  1.866303e-06
      6      9   2   0.50000     0.0300000    0.1400000   2.494471e-04  1.671101e-07
      7      9   2   0.50000     0.0300000    0.1400000   2.494471e-04  1.671101e-07
      2     10   2   0.50000     0.1400000    0.1400000   1.015252e-03  1.866303e-06
      2     12   2   0.50000     0.1400000    0.0300000   2.494471e-04  1.671101e-07
      2     13   2   0.50000     0.1400000    0.0300000   2.494471e-04  1.671101e-07
      3     11   2   0.50000    -0.4000000   -0.4000000   6.968474e-04  4.145011e-07
      3     14   2   0.50000    -0.4000000    0.0300000   2.066619e-04  7.875431e-08
      3     15   2   0.50000    -0.4000000    0.0300000   2.066619e-04  7.875431e-08
     12     11   2   0.50000     0.0300000   -0.4000000   2.066619e-04  7.875431e-08
     12     14   2   0.50000     0.0300000    0.0300000   6.128906e-05  1.496315e-08
     12     15   2   0.50000     0.0300000    0.0300000   6.128906e-05  1.496315e-08
     13     11   2   0.50000     0.0300000   -0.4000000   2.066619e-04  7.875431e-08
     13     14   2   0.50000     0.0300000    0.0300000   6.128906e-05  1.496315e-08
     13     15   2   0.50000     0.0300000    0.0300000   6.128906e-05  1.496315e-08
      9     16   2   0.50000     0.1400000    0.1400000   1.015252e-03  1.866303e-06
     14     16   2   0.50000     0.0300000    0.1400000   2.494471e-04  1.671101e-07
     15     16   2   0.50000     0.0300000    0.1400000   2.494471e-04  1.671101e-07
     10     17   2   0.50000     0.1400000    0.1400000   1.015252e-03  1.866303e-06
     10     19   2   0.50000     0.1400000    0.0300000   2.494471e-04  1.671101e-07
     10     20   2   0.50000     0.1400000    0.0300000   2.494471e-04  1.671101e-07
     11     18   2   0.50000    -0.4000000   -0.4000000   6.968474e-04  4.145011e-07
     11     21   2   0.50000    -0.4000000    0.0300000   2.066619e-04  7.875431e-08
     11     22   2   0.50000    -0.4000000    0.0300000   2.066619e-04  7.875431e-08
     19     18   2   0.50000     0.0300000   -0.4000000   2.066619e-04  7.875431e-08
     19     21   2   0.50000     0.0300000    0.0300000   6.128906e-05  1.496315e-08
     19     22   2   0.50000     0.0300000    0.0300000   6.128906e-05  1.496315e-08
     20     18   2   0.50000     0.0300000   -0.4000000   2.066619e-04  7.875431e-08
     20     21   2   0.50000     0.0300000    0.0300000   6.128906e-05  1.496315e-08
     20     22   2   0.50000     0.0300000    0.0300000   6.128906e-05  1.496315e-08
     16     23   2   0.50000     0.1400000    0.1400000   1.015252e-03  1.866303e-06
     21     23   2   0.50000     0.0300000    0.1400000   2.494471e-04  1.671101e-07
     22     23   2   0.50000     0.0300000    0.1400000   2.494471e-04  1.671101e-07
     17     24   2   0.50000     0.1400000    0.1400000   1.015252e-03  1.866303e-06
     17     26   2   0.50000     0.1400000    0.0300000   2.494471e-04  1.671101e-07
     17     27   2   0.50000     0.1400000    0.0300000   2.494471e-04  1.671101e-07
     18     25   2   0.50000    -0.4000000   -0.4000000   6.968474e-04  4.145011e-07
     18     28   2   0.50000    -0.4000000    0.0300000   2.066619e-04  7.875431e-08
     18     29   2   0.50000    -0.4000000    0.0300000   2.066619e-04  7.875431e-08
     26     25   2   0.50000     0.0300000   -0.4000000   2.066619e-04  7.875431e-08
     26     28   2   0.50000     0.0300000    0.0300000   6.128906e-05  1.496315e-08
     26     29   2   0.50000     0.0300000    0.0300000   6.128906e-05  1.496315e-08
     27     25   2   0.50000     0.0300000   -0.4000000   2.066619e-04  7.875431e-08
     27     28   2   0.50000     0.0300000    0.0300000   6.128906e-05  1.496315e-08
     27     29   2   0.50000     0.0300000    0.0300000   6.128906e-05  1.496315e-08
     23     30   2   0.50000     0.1400000    0.1400000   1.015252e-03  1.866303e-06
     28     30   2   0.50000     0.0300000    0.1400000   2.494471e-04  1.671101e-07
     29     30   2   0.50000     0.0300000    0.1400000   2.494471e-04  1.671101e-07
     24     31   2   0.50000     0.1400000    0.1400000   1.015252e-03  1.866303e-06
     24     33   2   0.50000     0.1400000    0.0300000   2.494471e-04  1.671101e-07
     24     34   2   0.50000     0.1400000    0.0300000   2.494471e-04  1.671101e-07
     25     32   2   0.50000    -0.4000000   -0.4000000   6.968474e-04  4.145011e-07
     25     35   2   0.50000    -0.4000000    0.0300000   2.066619e-04  7.875431e-08
     25     36   2   0.50000    -0.4000000    0.0300000   2.066619e-04  7.875431e-08
     33     32   2   0.50000     0.0300000   -0.4000000   2.066619e-04  7.875431e-08
     33     35   2   0.50000     0.0300000    0.0300000   6.128906e-05  1.496315e-08
     33     36   2   0.50000     0.0300000    0.0300000   6.128906e-05  1.496315e-08
     34     32   2   0.50000     0.0300000   -0.4000000   2.066619e-04  7.875431e-08
     34     35   2   0.50000     0.0300000    0.0300000   6.128906e-05  1.496315e-08
     34     36   2   0.50000     0.0300000    0.0300000   6.128906e-05  1.496315e-08
     30     37   2   0.50000     0.1400000    0.1400000   1.015252e-03  1.866303e-06
     35     37   2   0.50000     0.0300000    0.1400000   2.494471e-04  1.671101e-07
     36     37   2   0.50000     0.0300000    0.1400000   2.494471e-04  1.671101e-07
     31     38   2   0.50000     0.1400000    0.1400000   1.015252e-03  1.866303e-06
     31     40   2   0.50000     0.1400000    0.0300000   2.494471e-04  1.671101e-07
     31     41   2   0.50000     0.1400000    0.0300000   2.494471e-04  1.671101e-07
     32     39   2   0.50000    -0.4000000   -0.4000000   6.968474e-04  4.145011e-07
     32     42   2   0.50000    -0.4000000    0.0300000   2.066619e-04  7.875431e-08
     32     43   2   0.50000    -0.4000000    0.0300000   2.066619e-04  7.875431e-08
     40     39   2   0.50000     0.0300000   -0.4000000   2.066619e-04  7.875431e-08
     40     42   2   0.50000     0.0300000    0.0300000   6.128906e-05  1.496315e-08
     40     43   2   0.50000     0.0300000    0.0300000   6.128906e-05  1.496315e-08
     41     39   2   0.50000     0.0300000   -0.4000000   2.066619e-04  7.875431e-08
     41     42   2   0.50000     0.0300000    0.0300000   6.128906e-05  1.496315e-08
     41     43   2   0.50000     0.0300000    0.0300000   6.128906e-05  1.496315e-08
     37     44   2   0.50000     0.1400000    0.1400000   1.015252e-03  1.866303e-06
     42     44   2   0.50000     0.0300000    0.1400000   2.494471e-04  1.671101e-07
     43     44   2   0.50000     0.0300000    0.1400000   2.494471e-04  1.671101e-07
     38     45   2   0.50000     0.1400000    0.1400000   1.015252e-03  1.866303e-06
     38     47   2   0.50000     0.1400000    0.0300000   2.494471e-04  1.671101e-07
     38     48   2   0.50000     0.1400000    0.0300000   2.494471e-04  1.671101e-07
     39     46   2   0.50000    -0.4000000   -0.4000000   6.968474e-04  4.145011e-07
     39     49   2   0.50000    -0.4000000    0.0300000   2.066619e-04  7.875431e-08
     39     50   2   0.50000    -0.4000000    0.0300000   2.066619e-04  7.875431e-08
     47     46   2   0.50000     0.0300000   -0.4000000   2.066619e-04  7.875431e-08
     47     49   2   0.50000     0.0300000    0.0300000   6.128906e-05  1.496315e-08
     47     50   2   0.50000     0.0300000    0.0300000   6.128906e-05  1.496315e-08
     48     46   2   0.50000     0.0300000   -0.4000000   2.066619e-04  7.875431e-08
     48     49   2   0.50000     0.0300000    0.0300000   6.128906e-05  1.496315e-08
     48     50   2   0.50000     0.0300000    0.0300000   6.128906e-05  1.496315e-08
     44     51   2   0.50000     0.1400000    0.1400000   1.015252e-03  1.866303e-06
     49     51   2   0.50000     0.0300000    0.1400000   2.494471e-04  1.671101e-07
     50     51   2   0.50000     0.0300000    0.1400000   2.494471e-04  1.671101e-07
     45     52   2   0.50000     0.1400000    0.1400000   1.015252e-03  1.866303e-06
     45     54   2   0.50000     0.1400000    0.0300000   2.494471e-04  1.671101e-07
     45     55   2   0.50000     0.1400000    0.0300000   2.494471e-04  1.671101e-07
     46     53   2   0.50000    -0.4000000   -0.4000000   6.968474e-04  4.145011e-07
     46     56   2   0.50000    -0.4000000    0.0300000   2.066619e-04  7.875431e-08
     46     57   2   0.50000    -0.4000000    0.0300000   2.066619e-04  7.875431e-08
     54     53   2   0.50000     0.0300000   -0.4000000   2.066619e-04  7.875431e-08
     54     56   2   0.50000     0.0300000    0.0300000   6.128906e-05  1.496315e-08
     54     57   2   0.50000     0.0300000    0.0300000   6.128906e-05  1.496315e-08
     55     53   2   0.50000     0.0300000   -0.4000000   2.066619e-04  7.875431e-08
     55     56   2   0.50000     0.0300000    0.0300000   6.128906e-05  1.496315e-08
     55     57   2   0.50000     0.0300000    0.0300000   6.128906e-05  1.496315e-08
     51     58   2   0.50000     0.1400000    0.1400000   1.015252e-03  1.866303e-06
     56     58   2   0.50000     0.0300000    0.1400000   2.494471e-04  1.671101e-07
     57     58   2   0.50000     0.0300000    0.1400000   2.494471e-04  1.671101e-07
     52     59   2   0.50000     0.1400000    0.1400000   1.015252e-03  1.866303e-06
     52     61   2   0.50000     0.1400000    0.0300000   2.494471e-04  1.671101e-07
     52     62   2   0.50000     0.1400000    0.0300000   2.494471e-04  1.671101e-07
     53     60   2   0.50000    -0.4000000   -0.4000000   6.968474e-04  4.145011e-07
     53     63   2   0.50000    -0.4000000    0.0300000   2.066619e-04  7.875431e-08
     53     64   2   0.50000    -0.4000000    0.0300000   2.066619e-04  7.875431e-08
     61     60   2   0.50000     0.0300000   -0.4000000   2.066619e-04  7.875431e-08
     61     63   2   0.50000     0.0300000    0.0300000   6.128906e-05  1.496315e-08
     61     64   2   0.50000     0.0300000    0.0300000   6.128906e-05  1.496315e-08
     62     60   2   0.50000     0.0300000   -0.4000000   2.066619e-04  7.875431e-08
     62     63   2   0.50000     0.0300000    0.0300000   6.128906e-05  1.496315e-08
     62     64   2   0.50000     0.0300000    0.0300000   6.128906e-05  1.496315e-08
     58     65   2   0.50000     0.1400000    0.1400000   1.015252e-03  1.866303e-06
     63     65   2   0.50000     0.0300000    0.1400000   2.494471e-04  1.671101e-07
     64     65   2   0.50000     0.0300000    0.1400000   2.494471e-04  1.671101e-07
     59     66   2   0.50000     0.1400000    0.1400000   1.015252e-03  1.866303e-06
     59     68   2   0.50000     0.1400000    0.0300000   2.494471e-04  1.671101e-07
     59     69   2   0.50000     0.1400000    0.0300000   2.494471e-04  1.671101e-07
     60     67   2   0.50000    -0.4000000   -0.4000000   6.968474e-04  4.145011e-07
     60     70   2   0.50000    -0.4000000    0.0300000   2.066619e-04  7.875431e-08
     60     71   2   0.50000    -0.4000000    0.0300000   2.066619e-04  7.875431e-08
     68     67   2   0.50000     0.0300000   -0.4000000   2.066619e-04  7.875431e-08
     68     70   2   0.50000     0.0300000    0.0300000   6.128906e-05  1.496315e-08
     68     71   2   0.50000     0.0300000    0.0300000   6.128906e-05  1.496315e-08
     69     67   2   0.50000     0.0300000   -0.4000000   2.066619e-04  7.875431e-08
     69     70   2   0.50000     0.0300000    0.0300000   6.128906e-05  1.496315e-08
     69     71   2   0.50000     0.0300000    0.0300000   6.128906e-05  1.496315e-08
     65     72   2   0.50000     0.1400000    0.1400000   1.015252e-03  1.866303e-06
     70     72   2   0.50000     0.0300000    0.1400000   2.494471e-04  1.671101e-07
     71     72   2   0.50000     0.0300000    0.1400000   2.494471e-04  1.671101e-07
     66     73   2   0.50000     0.1400000    0.1400000   1.015252e-03  1.866303e-06
     66     75   2   0.50000     0.1400000    0.0300000   2.494471e-04  1.671101e-07
     66     76   2   0.50000     0.1400000    0.0300000   2.494471e-04  1.671101e-07
     67     74   2   0.50000    -0.4000000   -0.4000000   6.968474e-04  4.145011e-07
     67     77   2   0.50000    -0.4000000    0.0300000   2.066619e-04  7.875431e-08
     67     78   2   0.50000    -0.4000000    0.0300000   2.066619e-04  7.875431e-08
     75     74   2   0.50000     0.0300000   -0.4000000   2.066619e-04  7.875431e-08
     75     77   2   0.50000     0.0300000    0.0300000   6.128906e-05  1.496315e-08
     75     78   2   0.50000     0.0300000    0.0300000   6.128906e-05  1.496315e-08
     76     74   2   0.50000     0.0300000   -0.4000000   2.066619e-04  7.875431e-08
     76     77   2   0.50000     0.0300000    0.0300000   6.128906e-05  1.496315e-08
     76     78   2   0.50000     0.0300000    0.0300000   6.128906e-05  1.496315e-08
     72     79   2   0.50000     0.1400000    0.1400000   1.015252e-03  1.866303e-06
     77     79   2   0.50000     0.0300000    0.1400000   2.494471e-04  1.671101e-07
     78     79   2   0.50000     0.0300000    0.1400000   2.494471e-04  1.671101e-07
     73     80   2   0.50000     0.1400000    0.1400000   1.015252e-03  1.866303e-06
     73     82   2   0.50000     0.1400000    0.0300000   2.494471e-04  1.671101e-07
     73     83   2   0.50000     0.1400000    0.0300000   2.494471e-04  1.671101e-07
     74     81   2   0.50000    -0.4000000   -0.4000000   6.968474e-04  4.145011e-07
     74     84   2   0.50000    -0.4000000    0.0300000   2.066619e-04  7.875431e-08
     74     85   2   0.50000    -0.4000000    0.0300000   2.066619e-04  7.875431e-08
     82     81   2   0.50000     0.0300000   -0.4000000   2.066619e-04  7.875431e-08
     82     84   2   0.50000     0.0300000    0.0300000   6.128906e-05  1.496315e-08
     82     85   2   0.50000     0.0300000    0.0300000   6.128906e-05  1.496315e-08
     83     81   2   0.50000     0.0300000   -0.4000000   2.066619e-04  7.875431e-08
     83     84   2   0.50000     0.0300000    0.0300000   6.128906e-05  1.496315e-08
     83     85   2   0.50000     0.0300000    0.0300000   6.128906e-05  1.496315e-08
     79     86   2   0.50000     0.1400000    0.1400000   1.015252e-03  1.866303e-06
     84     86   2   0.50000     0.0300000    0.1400000   2.494471e-04  1.671101e-07
     85     86   2   0.50000     0.0300000    0.1400000   2.494471e-04  1.671101e-07
     80     87   2   0.50000     0.1400000    0.1400000   1.015252e-03  1.866303e-06
     80     89   2   0.50000     0.1400000    0.0300000   2.494471e-04  1.671101e-07
     80     90   2   0.50000     0.1400000    0.0300000   2.494471e-04  1.671101e-07
     81     88   2   0.50000    -0.4000000   -0.4000000   6.968474e-04  4.145011e-07
     81     91   2   0.50000    -0.4000000    0.0300000   2.066619e-04  7.875431e-08
     81     92   2   0.50000    -0.4000000    0.0300000   2.066619e-04  7.875431e-08
     89     88   2   0.50000     0.0300000   -0.4000000   2.066619e-04  7.875431e-08
     89     91   2   0.50000     0.0300000    0.0300000   6.128906e-05  1.496315e-08
     89     92   2   0.50000     0.0300000    0.0300000   6.128906e-05  1.496315e-08
     90     88   2   0.50000     0.0300000   -0.4000000   2.066619e-04  7.875431e-08
     90     91   2   0.50000     0.0300000    0.0300000   6.128906e-05  1.496315e-08
     90     92   2   0.50000     0.0300000    0.0300000   6.128906e-05  1.496315e-08
     86     93   2   0.50000     0.1400000    0.1400000   1.015252e-03  1.866303e-06
     91     93   2   0.50000     0.0300000    0.1400000   2.494471e-04  1.671101e-07
     92     93   2   0.50000     0.0300000    0.1400000   2.494471e-04  1.671101e-07
     87     94   2   0.50000     0.1400000    0.1400000   1.015252e-03  1.866303e-06
     87     96   2   0.50000     0.1400000    0.0300000   2.494471e-04  1.671101e-07
     87     97   2   0.50000     0.1400000    0.0300000   2.494471e-04  1.671101e-07
     88     95   2   0.50000    -0.4000000   -0.4000000   6.968474e-04  4.145011e-07
     88     98   2   0.50000    -0.4000000    0.0300000   2.066619e-04  7.875431e-08
     88     99   2   0.50000    -0.4000000    0.0300000   2.066619e-04  7.875431e-08
     96     95   2   0.50000     0.0300000   -0.4000000   2.066619e-04  7.875431e-08
     96     98   2   0.50000     0.0300000    0.0300000   6.128906e-05  1.496315e-08
     96     99   2   0.50000     0.0300000    0.0300000   6.128906e-05  1.496315e-08
     97     95   2   0.50000     0.0300000   -0.4000000   2.066619e-04  7.875431e-08
     97     98   2   0.50000     0.0300000    0.0300000   6.128906e-05  1.496315e-08
     97     99   2   0.50000     0.0300000    0.0300000   6.128906e-05  1.496315e-08
     93    100   2   0.50000     0.1400000    0.1400000   1.015252e-03  1.866303e-06
     98    100   2   0.50000     0.0300000    0.1400000   2.494471e-04  1.671101e-07
     99    100   2   0.50000     0.0300000    0.1400000   2.494471e-04  1.671101e-07
     94    101   2   0.50000     0.1400000    0.1400000   1.015252e-03  1.866303e-06
     94    103   2   0.50000     0.1400000    0.0300000   2.494471e-04  1.671101e-07
     94    104   2   0.50000     0.1400000    0.0300000   2.494471e-04  1.671101e-07
     95    102   2   0.50000    -0.4000000   -0.4000000   6.968474e-04  4.145011e-07
     95    105   2   0.50000    -0.4000000    0.0300000   2.066619e-04  7.875431e-08
     95    106   2   0.50000    -0.4000000    0.0300000   2.066619e-04  7.875431e-08
    103    102   2   0.50000     0.0300000   -0.4000000   2.066619e-04  7.875431e-08
    103    105   2   0.50000     0.0300000    0.0300000   6.128906e-05  1.496315e-08
    103    106   2   0.50000     0.0300000    0.0300000   6.128906e-05  1.496315e-08
    104    102   2   0.50000     0.0300000   -0.4000000   2.066619e-04  7.875431e-08
    104    105   2   0.50000     0.0300000    0.0300000   6.128906e-05  1.496315e-08
    104    106   2   0.50000     0.0300000    0.0300000   6.128906e-05  1.496315e-08
    100    107   2   0.50000     0.1400000    0.1400000   1.015252e-03  1.866303e-06
    105    107   2   0.50000     0.0300000    0.1400000   2.494471e-04  1.671101e-07
    106    107   2   0.50000     0.0300000    0.1400000   2.494471e-04  1.671101e-07
    101    108   2   0.50000     0.1400000    0.1400000   1.015252e-03  1.866303e-06
    101    110   2   0.50000     0.1400000    0.0300000   2.494471e-04  1.671101e-07
    101    111   2   0.50000     0.1400000    0.0300000   2.494471e-04  1.671101e-07
    102    109   2   0.50000    -0.4000000   -0.4000000   6.968474e-04  4.145011e-07
    102    112   2   0.50000    -0.4000000    0.0300000   2.066619e-04  7.875431e-08
    102    113   2   0.50000    -0.4000000    0.0300000   2.066619e-04  7.875431e-08
    110    109   2   0.50000     0.0300000   -0.4000000   2.066619e-04  7.875431e-08
    110    112   2   0.50000     0.0300000    0.0300000   6.128906e-05  1.496315e-08
    110    113   2   0.50000     0.0300000    0.0300000   6.128906e-05  1.496315e-08
    111    109   2   0.50000     0.0300000   -0.4000000   2.066619e-04  7.875431e-08
    111    112   2   0.50000     0.0300000    0.0300000   6.128906e-05  1.496315e-08
    111    113   2   0.50000     0.0300000    0.0300000   6.128906e-05  1.496315e-08
    107    114   2   0.50000     0.1400000    0.1400000   1.015252e-03  1.866303e-06
    112    114   2   0.50000     0.0300000    0.1400000   2.494471e-04  1.671101e-07
    113    114   2   0.50000     0.0300000    0.1400000   2.494471e-04  1.671101e-07
    108    115   2   0.50000     0.1400000    0.1400000   1.015252e-03  1.866303e-06
    108    117   2   0.50000     0.1400000    0.0300000   2.494471e-04  1.671101e-07
    108    118   2   0.50000     0.1400000    0.0300000   2.494471e-04  1.671101e-07
    109    116   2   0.50000    -0.4000000   -0.4000000   6.968474e-04  4.145011e-07
    109    119   2   0.50000    -0.4000000    0.0300000   2.066619e-04  7.875431e-08
    109    120   2   0.50000    -0.4000000    0.0300000   2.066619e-04  7.875431e-08
    117    116   2   0.50000     0.0300000   -0.4000000   2.066619e-04  7.875431e-08
    117    119   2   0.50000     0.0300000    0.0300000   6.128906e-05  1.496315e-08
    117    120   2   0.50000     0.0300000    0.0300000   6.128906e-05  1.496315e-08
    118    116   2   0.50000     0.0300000   -0.4000000   2.066619e-04  7.875431e-08
    118    119   2   0.50000     0.0300000    0.0300000   6.128906e-05  1.496315e-08
    118    120   2   0.50000     0.0300000    0.0300000   6.128906e-05  1.496315e-08
    114    121   2   0.50000     0.1400000    0.1400000   1.015252e-03  1.866303e-06
    119    121   2   0.50000     0.0300000    0.1400000   2.494471e-04  1.671101e-07
    120    121   2   0.50000     0.0300000    0.1400000   2.494471e-04  1.671101e-07
    115    122   2   0.50000     0.1400000    0.1400000   1.015252e-03  1.866303e-06
    115    124   2   0.50000     0.1400000    0.0300000   2.494471e-04  1.671101e-07
    115    125   2   0.50000     0.1400000    0.0300000   2.494471e-04  1.671101e-07
    116    123   2   0.50000    -0.4000000   -0.4000000   6.968474e-04  4.145011e-07
    116    126   2   0.50000    -0.4000000    0.0300000   2.066619e-04  7.875431e-08
    116    127   2   0.50000    -0.4000000    0.0300000   2.066619e-04  7.875431e-08
    124    123   2   0.50000     0.0300000   -0.4000000   2.066619e-04  7.875431e-08
    124    126   2   0.50000     0.0300000    0.0300000   6.128906e-05  1.496315e-08
    124    127   2   0.50000     0.0300000    0.0300000   6.128906e-05  1.496315e-08
    125    123   2   0.50000     0.0300000   -0.4000000   2.066619e-04  7.875431e-08
    125    126   2   0.50000     0.0300000    0.0300000   6.128906e-05  1.496315e-08
    125    127   2   0.50000     0.0300000    0.0300000   6.128906e-05  1.496315e-08
    121    128   2   0.50000     0.1400000    0.1400000   1.015252e-03  1.866303e-06
    126    128   2   0.50000     0.0300000    0.1400000   2.494471e-04  1.671101e-07
    127    128   2   0.50000     0.0300000    0.1400000   2.494471e-04  1.671101e-07
    122    129   2   0.50000     0.1400000    0.1400000   1.015252e-03  1.866303e-06
    122    131   2   0.50000     0.1400000    0.0300000   2.494471e-04  1.671101e-07
    122    132   2   0.50000     0.1400000    0.0300000   2.494471e-04  1.671101e-07
    123    130   2   0.50000    -0.4000000   -0.4000000   6.968474e-04  4.145011e-07
    123    133   2   0.50000    -0.4000000    0.0300000   2.066619e-04  7.875431e-08
    123    134   2   0.50000    -0.4000000    0.0300000   2.066619e-04  7.875431e-08
    131    130   2   0.50000     0.0300000   -0.4000000   2.066619e-04  7.875431e-08
    131    133   2   0.50000     0.0300000    0.0300000   6.128906e-05  1.496315e-08
    131    134   2   0.50000     0.0300000    0.0300000   6.128906e-05  1.496315e-08
    132    130   2   0.50000     0.0300000   -0.4000000   2.066619e-04  7.875431e-08
    132    133   2   0.50000     0.0300000    0.0300000   6.128906e-05  1.496315e-08
    132    134   2   0.50000     0.0300000    0.0300000   6.128906e-05  1.496315e-08
    128    135   2   0.50000     0.1400000    0.1400000   1.015252e-03  1.866303e-06
    133    135   2   0.50000     0.0300000    0.1400000   2.494471e-04  1.671101e-07
    134    135   2   0.50000     0.0300000    0.1400000   2.494471e-04  1.671101e-07
    129    136   2   0.50000     0.1400000    0.1450000   1.015252e-03  1.866303e-06
    129    138   2   0.50000     0.1400000    0.0300000   2.494471e-04  1.671101e-07
    129    139   2   0.50000     0.1400000    0.0300000   2.494471e-04  1.671101e-07
    130    137   2   0.50000    -0.4000000   -0.6830000   9.562422e-04  7.083138e-07
    130    140   2   0.50000    -0.4000000    0.0600000   2.066619e-04  7.875431e-08
    130    141   2   0.50000    -0.4000000    0.0600000   2.066619e-04  7.875431e-08
    138    137   2   0.50000     0.0300000   -0.6830000   2.835898e-04  1.345781e-07
    138    140   2   0.50000     0.0300000    0.0600000   6.128906e-05  1.496315e-08
    138    141   2   0.50000     0.0300000    0.0600000   6.128906e-05  1.496315e-08
    139    137   2   0.50000     0.0300000   -0.6830000   2.835898e-04  1.345781e-07
    139    140   2   0.50000     0.0300000    0.0600000   6.128906e-05  1.496315e-08
    139    141   2   0.50000     0.0300000    0.0600000   6.128906e-05  1.496315e-08
    135    142   2   0.50000     0.1400000    0.4180000   1.995577e-06  1.069504e-11
    140    142   2   0.50000     0.0600000    0.4180000   4.903125e-07  9.576416e-13
    141    142   2   0.50000     0.0600000    0.4180000   4.903125e-07  9.576416e-13

[ angles ]
; ai  aj  ak
      2      1      4   1    110.7000    313.8000
      2      1      5   1    110.7000    313.8000
      2      1      8   1    110.7000    313.8000
      4      1      5   1    107.8000    276.1440
      4      1      8   1    107.8000    276.1440
      5      1      8   1    107.8000    276.1440
      1      2      3   1    109.5000    418.4000
      1      2      6   1    110.7000    313.8000
      1      2      7   1    110.7000    313.8000
      3      2      6   1    109.5000    292.8800
      3      2      7   1    109.5000    292.8800
      6      2      7   1    107.8000    276.1440
      2      3      9   1    109.5000    502.0800
      3      9     10   1    109.5000    418.4000
      3      9     12   1    109.5000    292.8800
      3      9     13   1    109.5000    292.8800
     10      9     12   1    110.7000    313.8000
     10      9     13   1    110.7000    313.8000
     12      9     13   1    107.8000    276.1440
      9     10     11   1    109.5000    418.4000
      9     10     14   1    110.7000    313.8000
      9     10     15   1    110.7000    313.8000
     11     10     14   1    109.5000    292.8800
     11     10     15   1    109.5000    292.8800
     14     10     15   1    107.8000    276.1440
     10     11     16   1    109.5000    502.0800
     11     16     17   1    109.5000    418.4000
     11     16     19   1    109.5000    292.8800
     11     16     20   1    109.5000    292.8800
     17     16     19   1    110.7000    313.8000
     17     16     20   1    110.7000    313.8000
     19     16     20   1    107.8000    276.1440
     16     17     18   1    109.5000    418.4000
     16     17     21   1    110.7000    313.8000
     16     17     22   1    110.7000    313.8000
     18     17     21   1    109.5000    292.8800
     18     17     22   1    109.5000    292.8800
     21     17     22   1    107.8000    276.1440
     17     18     23   1    109.5000    502.0800
     18     23     24   1    109.5000    418.4000
     18     23     26   1    109.5000    292.8800
     18     23     27   1    109.5000    292.8800
     24     23     26   1    110.7000    313.8000
     24     23     27   1    110.7000    313.8000
     26     23     27   1    107.8000    276.1440
     23     24     25   1    109.5000    418.4000
     23     24     28   1    110.7000    313.8000
     23     24     29   1    110.7000    313.8000
     25     24     28   1    109.5000    292.8800
     25     24     29   1    109.5000    292.8800
     28     24     29   1    107.8000    276.1440
     24     25     30   1    109.5000    502.0800
     25     30     31   1    109.5000    418.4000
     25     30     33   1    109.5000    292.8800
     25     30     34   1    109.5000    292.8800
     31     30     33   1    110.7000    313.8000
     31     30     34   1    110.7000    313.8000
     33     30     34   1    107.8000    276.1440
     30     31     32   1    109.5000    418.4000
     30     31     35   1    110.7000    313.8000
     30     31     36   1    110.7000    313.8000
     32     31     35   1    109.5000    292.8800
     32     31     36   1    109.5000    292.8800
     35     31     36   1    107.8000    276.1440
     31     32     37   1    109.5000    502.0800
     32     37     38   1    109.5000    418.4000
     32     37     40   1    109.5000    292.8800
     32     37     41   1    109.5000    292.8800
     38     37     40   1    110.7000    313.8000
     38     37     41   1    110.7000    313.8000
     40     37     41   1    107.8000    276.1440
     37     38     39   1    109.5000    418.4000
     37     38     42   1    110.7000    313.8000
     37     38     43   1    110.7000    313.8000
     39     38     42   1    109.5000    292.8800
     39     38     43   1    109.5000    292.8800
     42     38     43   1    107.8000    276.1440
     38     39     44   1    109.5000    502.0800
     39     44     45   1    109.5000    418.4000
     39     44     47   1    109.5000    292.8800
     39     44     48   1    109.5000    292.8800
     45     44     47   1    110.7000    313.8000
     45     44     48   1    110.7000    313.8000
     47     44     48   1    107.8000    276.1440
     44     45     46   1    109.5000    418.4000
     44     45     49   1    110.7000    313.8000
     44     45     50   1    110.7000    313.8000
     46     45     49   1    109.5000    292.8800
     46     45     50   1    109.5000    292.8800
     49     45     50   1    107.8000    276.1440
     45     46     51   1    109.5000    502.0800
     46     51     52   1    109.5000    418.4000
     46     51     54   1    109.5000    292.8800
     46     51     55   1    109.5000    292.8800
     52     51     54   1    110.7000    313.8000
     52     51     55   1    110.7000    313.8000
     54     51     55   1    107.8000    276.1440
     51     52     53   1    109.5000    418.4000
     51     52     56   1    110.7000    313.8000
     51     52     57   1    110.7000    313.8000
     53     52     56   1    109.5000    292.8800
     53     52     57   1    109.5000    292.8800
     56     52     57   1    107.8000    276.1440
     52     53     58   1    109.5000    502.0800
     53     58     59   1    109.5000    418.4000
     53     58     61   1    109.5000    292.8800
     53     58     62   1    109.5000    292.8800
     59     58     61   1    110.7000    313.8000
     59     58     62   1    110.7000    313.8000
     61     58     62   1    107.8000    276.1440
     58     59     60   1    109.5000    418.4000
     58     59     63   1    110.7000    313.8000
     58     59     64   1    110.7000    313.8000
     60     59     63   1    109.5000    292.8800
     60     59     64   1    109.5000    292.8800
     63     59     64   1    107.8000    276.1440
     59     60     65   1    109.5000    502.0800
     60     65     66   1    109.5000    418.4000
     60     65     68   1    109.5000    292.8800
     60     65     69   1    109.5000    292.8800
     66     65     68   1    110.7000    313.8000
     66     65     69   1    110.7000    313.8000
     68     65     69   1    107.8000    276.1440
     65     66     67   1    109.5000    418.4000
     65     66     70   1    110.7000    313.8000
     65     66     71   1    110.7000    313.8000
     67     66     70   1    109.5000    292.8800
     67     66     71   1    109.5000    292.8800
     70     66     71   1    107.8000    276.1440
     66     67     72   1    109.5000    502.0800
     67     72     73   1    109.5000    418.4000
     67     72     75   1    109.5000    292.8800
     67     72     76   1    109.5000    292.8800
     73     72     75   1    110.7000    313.8000
     73     72     76   1    110.7000    313.8000
     75     72     76   1    107.8000    276.1440
     72     73     74   1    109.5000    418.4000
     72     73     77   1    110.7000    313.8000
     72     73     78   1    110.7000    313.8000
     74     73     77   1    109.5000    292.8800
     74     73     78   1    109.5000    292.8800
     77     73     78   1    107.8000    276.1440
     73     74     79   1    109.5000    502.0800
     74     79     80   1    109.5000    418.4000
     74     79     82   1    109.5000    292.8800
     74     79     83   1    109.5000    292.8800
     80     79     82   1    110.7000    313.8000
     80     79     83   1    110.7000    313.8000
     82     79     83   1    107.8000    276.1440
     79     80     81   1    109.5000    418.4000
     79     80     84   1    110.7000    313.8000
     79     80     85   1    110.7000    313.8000
     81     80     84   1    109.5000    292.8800
     81     80     85   1    109.5000    292.8800
     84     80     85   1    107.8000    276.1440
     80     81     86   1    109.5000    502.0800
     81     86     87   1    109.5000    418.4000
     81     86     89   1    109.5000    292.8800
     81     86     90   1    109.5000    292.8800
     87     86     89   1    110.7000    313.8000
     87     86     90   1    110.7000    313.8000
     89     86     90   1    107.8000    276.1440
     86     87     88   1    109.5000    418.4000
     86     87     91   1    110.7000    313.8000
     86     87     92   1    110.7000    313.8000
     88     87     91   1    109.5000    292.8800
     88     87     92   1    109.5000    292.8800
     91     87     92   1    107.8000    276.1440
     87     88     93   1    109.5000    502.0800
     88     93     94   1    109.5000    418.4000
     88     93     96   1    109.5000    292.8800
     88     93     97   1    109.5000    292.8800
     94     93     96   1    110.7000    313.8000
     94     93     97   1    110.7000    313.8000
     96     93     97   1    107.8000    276.1440
     93     94     95   1    109.5000    418.4000
     93     94     98   1    110.7000    313.8000
     93     94     99   1    110.7000    313.8000
     95     94     98   1    109.5000    292.8800
     95     94     99   1    109.5000    292.8800
     98     94     99   1    107.8000    276.1440
     94     95    100   1    109.5000    502.0800
     95    100    101   1    109.5000    418.4000
     95    100    103   1    109.5000    292.8800
     95    100    104   1    109.5000    292.8800
    101    100    103   1    110.7000    313.8000
    101    100    104   1    110.7000    313.8000
    103    100    104   1    107.8000    276.1440
    100    101    102   1    109.5000    418.4000
    100    101    105   1    110.7000    313.8000
    100    101    106   1    110.7000    313.8000
    102    101    105   1    109.5000    292.8800
    102    101    106   1    109.5000    292.8800
    105    101    106   1    107.8000    276.1440
    101    102    107   1    109.5000    502.0800
    102    107    108   1    109.5000    418.4000
    102    107    110   1    109.5000    292.8800
    102    107    111   1    109.5000    292.8800
    108    107    110   1    110.7000    313.8000
    108    107    111   1    110.7000    313.8000
    110    107    111   1    107.8000    276.1440
    107    108    109   1    109.5000    418.4000
    107    108    112   1    110.7000    313.8000
    107    108    113   1    110.7000    313.8000
    109    108    112   1    109.5000    292.8800
    109    108    113   1    109.5000    292.8800
    112    108    113   1    107.8000    276.1440
    108    109    114   1    109.5000    502.0800
    109    114    115   1    109.5000    418.4000
    109    114    117   1    109.5000    292.8800
    109    114    118   1    109.5000    292.8800
    115    114    117   1    110.7000    313.8000
    115    114    118   1    110.7000    313.8000
    117    114    118   1    107.8000    276.1440
    114    115    116   1    109.5000    418.4000
    114    115    119   1    110.7000    313.8000
    114    115    120   1    110.7000    313.8000
    116    115    119   1    109.5000    292.8800
    116    115    120   1    109.5000    292.8800
    119    115    120   1    107.8000    276.1440
    115    116    121   1    109.5000    502.0800
    116    121    122   1    109.5000    418.4000
    116    121    124   1    109.5000    292.8800
    116    121    125   1    109.5000    292.8800
    122    121    124   1    110.7000    313.8000
    122    121    125   1    110.7000    313.8000
    124    121    125   1    107.8000    276.1440
    121    122    123   1    109.5000    418.4000
    121    122    126   1    110.7000    313.8000
    121    122    127   1    110.7000    313.8000
    123    122    126   1    109.5000    292.8800
    123    122    127   1    109.5000    292.8800
    126    122    127   1    107.8000    276.1440
    122    123    128   1    109.5000    502.0800
    123    128    129   1    109.5000    418.4000
    123    128    131   1    109.5000    292.8800
    123    128    132   1    109.5000    292.8800
    129    128    131   1    110.7000    313.8000
    129    128    132   1    110.7000    313.8000
    131    128    132   1    107.8000    276.1440
    128    129    130   1    109.5000    418.4000
    128    129    133   1    110.7000    313.8000
    128    129    134   1    110.7000    313.8000
    130    129    133   1    109.5000    292.8800
    130    129    134   1    109.5000    292.8800
    133    129    134   1    107.8000    276.1440
    129    130    135   1    109.5000    502.0800
    130    135    136   1    109.5000    418.4000
    130    135    138   1    109.5000    292.8800
    130    135    139   1    109.5000    292.8800
    136    135    138   1    110.7000    313.8000
    136    135    139   1    110.7000    313.8000
    138    135    139   1    107.8000    276.1440
    135    136    137   1    109.5000    418.4000
    135    136    140   1    110.7000    313.8000
    135    136    141   1    110.7000    313.8000
    137    136    140   1    109.5000    292.8800
    137    136    141   1    109.5000    292.8800
    140    136    141   1    107.8000    276.1440
    136    137    142   1    108.5000    460.2400

[ dihedrals ]
; Proper dihedrals
      4      1      2      3   5     0.00000     0.00000     1.95811  0.0
      4      1      2      6   5     0.00000     0.00000     1.25520  0.0
      4      1      2      7   5     0.00000     0.00000     1.25520  0.0
      5      1      2      3   5     0.00000     0.00000     1.95811  0.0
      5      1      2      6   5     0.00000     0.00000     1.25520  0.0
      5      1      2      7   5     0.00000     0.00000     1.25520  0.0
      8      1      2      3   5     0.00000     0.00000     1.95811  0.0
      8      1      2      6   5     0.00000     0.00000     1.25520  0.0
      8      1      2      7   5     0.00000     0.00000     1.25520  0.0
      1      2      3      9   5     0.52300    -0.09205     2.34722  0.0
      6      2      3      9   5     0.00000     0.00000     3.10034  0.0
      7      2      3      9   5     0.00000     0.00000     3.10034  0.0
      2      3      9     10   5     0.52300    -0.09205     2.34722  0.0
      2      3      9     12   5     0.00000     0.00000     3.10034  0.0
      2      3      9     13   5     0.00000     0.00000     3.10034  0.0
      3      9     10     11   5     9.36379    -9.73617    -2.85767  0.0
      3      9     10     14   5     0.00000     0.00000     1.95811  0.0
      3      9     10     15   5     0.00000     0.00000     1.95811  0.0
     12      9     10     11   5     0.00000     0.00000     1.95811  0.0
     12      9     10     14   5     0.00000     0.00000     1.25520  0.0
     12      9     10     15   5     0.00000     0.00000     1.25520  0.0
     13      9     10     11   5     0.00000     0.00000     1.95811  0.0
     13      9     10     14   5     0.00000     0.00000     1.25520  0.0
     13      9     10     15   5     0.00000     0.00000     1.25520  0.0
      9     10     11     16   5     0.52300    -0.09205     2.34722  0.0
     14     10     11     16   5     0.00000     0.00000     3.10034  0.0
     15     10     11     16   5     0.00000     0.00000     3.10034  0.0
     10     11     16     17   5     0.52300    -0.09205     2.34722  0.0
     10     11     16     19   5     0.00000     0.00000     3.10034  0.0
     10     11     16     20   5     0.00000     0.00000     3.10034  0.0
     11     16     17     18   5     9.36379    -9.73617    -2.85767  0.0
     11     16     17     21   5     0.00000     0.00000     1.95811  0.0
     11     16     17     22   5     0.00000     0.00000     1.95811  0.0
     19     16     17     18   5     0.00000     0.00000     1.95811  0.0
     19     16     17     21   5     0.00000     0.00000     1.25520  0.0
     19     16     17     22   5     0.00000     0.00000     1.25520  0.0
     20     16     17     18   5     0.00000     0.00000     1.95811  0.0
     20     16     17     21   5     0.00000     0.00000     1.25520  0.0
     20     16     17     22   5     0.00000     0.00000     1.25520  0.0
     16     17     18     23   5     0.52300    -0.09205     2.34722  0.0
     21     17     18     23   5     0.00000     0.00000     3.10034  0.0
     22     17     18     23   5     0.00000     0.00000     3.10034  0.0
     17     18     23     24   5     0.52300    -0.09205     2.34722  0.0
     17     18     23     26   5     0.00000     0.00000     3.10034  0.0
     17     18     23     27   5     0.00000     0.00000     3.10034  0.0
     18     23     24     25   5     9.36379    -9.73617    -2.85767  0.0
     18     23     24     28   5     0.00000     0.00000     1.95811  0.0
     18     23     24     29   5     0.00000     0.00000     1.95811  0.0
     26     23     24     25   5     0.00000     0.00000     1.95811  0.0
     26     23     24     28   5     0.00000     0.00000     1.25520  0.0
     26     23     24     29   5     0.00000     0.00000     1.25520  0.0
     27     23     24     25   5     0.00000     0.00000     1.95811  0.0
     27     23     24     28   5     0.00000     0.00000     1.25520  0.0
     27     23     24     29   5     0.00000     0.00000     1.25520  0.0
     23     24     25     30   5     0.52300    -0.09205     2.34722  0.0
     28     24     25     30   5     0.00000     0.00000     3.10034  0.0
     29     24     25     30   5     0.00000     0.00000     3.10034  0.0
     24     25     30     31   5     0.52300    -0.09205     2.34722  0.0
     24     25     30     33   5     0.00000     0.00000     3.10034  0.0
     24     25     30     34   5     0.00000     0.00000     3.10034  0.0
     25     30     31     32   5     9.36379    -9.73617    -2.85767  0.0
     25     30     31     35   5     0.00000     0.00000     1.95811  0.0
     25     30     31     36   5     0.00000     0.00000     1.95811  0.0
     33     30     31     32   5     0.00000     0.00000     1.95811  0.0
     33     30     31     35   5     0.00000     0.00000     1.25520  0.0
     33     30     31     36   5     0.00000     0.00000     1.25520  0.0
     34     30     31     32   5     0.00000     0.00000     1.95811  0.0
     34     30     31     35   5     0.00000     0.00000     1.25520  0.0
     34     30     31     36   5     0.00000     0.00000     1.25520  0.0
     30     31     32     37   5     0.52300    -0.09205     2.34722  0.0
     35     31     32     37   5     0.00000     0.00000     3.10034  0.0
     36     31     32     37   5     0.00000     0.00000     3.10034  0.0
     31     32     37     38   5     0.52300    -0.09205     2.34722  0.0
     31     32     37     40   5     0.00000     0.00000     3.10034  0.0
     31     32     37     41   5     0.00000     0.00000     3.10034  0.0
     32     37     38     39   5     9.36379    -9.73617    -2.85767  0.0
     32     37     38     42   5     0.00000     0.00000     1.95811  0.0
     32     37     38     43   5     0.00000     0.00000     1.95811  0.0
     40     37     38     39   5     0.00000     0.00000     1.95811  0.0
     40     37     38     42   5     0.00000     0.00000     1.25520  0.0
     40     37     38     43   5     0.00000     0.00000     1.25520  0.0
     41     37     38     39   5     0.00000     0.00000     1.95811  0.0
     41     37     38     42   5     0.00000     0.00000     1.25520  0.0
     41     37     38     43   5     0.00000     0.00000     1.25520  0.0
     37     38     39     44   5     0.52300    -0.09205     2.34722  0.0
     42     38     39     44   5     0.00000     0.00000     3.10034  0.0
     43     38     39     44   5     0.00000     0.00000     3.10034  0.0
     38     39     44     45   5     0.52300    -0.09205     2.34722  0.0
     38     39     44     47   5     0.00000     0.00000     3.10034  0.0
     38     39     44     48   5     0.00000     0.00000     3.10034  0.0
     39     44     45     46   5     9.36379    -9.73617    -2.85767  0.0
     39     44     45     49   5     0.00000     0.00000     1.95811  0.0
     39     44     45     50   5     0.00000     0.00000     1.95811  0.0
     47     44     45     46   5     0.00000     0.00000     1.95811  0.0
     47     44     45     49   5     0.00000     0.00000     1.25520  0.0
     47     44     45     50   5     0.00000     0.00000     1.25520  0.0
     48     44     45     46   5     0.00000     0.00000     1.95811  0.0
     48     44     45     49   5     0.00000     0.00000     1.25520  0.0
     48     44     45     50   5     0.00000     0.00000     1.25520  0.0
     44     45     46     51   5     0.52300    -0.09205     2.34722  0.0
     49     45     46     51   5     0.00000     0.00000     3.10034  0.0
     50     45     46     51   5     0.00000     0.00000     3.10034  0.0
     45     46     51     52   5     0.52300    -0.09205     2.34722  0.0
     45     46     51     54   5     0.00000     0.00000     3.10034  0.0
     45     46     51     55   5     0.00000     0.00000     3.10034  0.0
     46     51     52     53   5     9.36379    -9.73617    -2.85767  0.0
     46     51     52     56   5     0.00000     0.00000     1.95811  0.0
     46     51     52     57   5     0.00000     0.00000     1.95811  0.0
     54     51     52     53   5     0.00000     0.00000     1.95811  0.0
     54     51     52     56   5     0.00000     0.00000     1.25520  0.0
     54     51     52     57   5     0.00000     0.00000     1.25520  0.0
     55     51     52     53   5     0.00000     0.00000     1.95811  0.0
     55     51     52     56   5     0.00000     0.00000     1.25520  0.0
     55     51     52     57   5     0.00000     0.00000     1.25520  0.0
     51     52     53     58   5     0.52300    -0.09205     2.34722  0.0
     56     52     53     58   5     0.00000     0.00000     3.10034  0.0
     57     52     53     58   5     0.00000     0.00000     3.10034  0.0
     52     53     58     59   5     0.52300    -0.09205     2.34722  0.0
     52     53     58     61   5     0.00000     0.00000     3.10034  0.0
     52     53     58     62   5     0.00000     0.00000     3.10034  0.0
     53     58     59     60   5     9.36379    -9.73617    -2.85767  0.0
     53     58     59     63   5     0.00000     0.00000     1.95811  0.0
     53     58     59     64   5     0.00000     0.00000     1.95811  0.0
     61     58     59     60   5     0.00000     0.00000     1.95811  0.0
     61     58     59     63   5     0.00000     0.00000     1.25520  0.0
     61     58     59     64   5     0.00000     0.00000     1.25520  0.0
     62     58     59     60   5     0.00000     0.00000     1.95811  0.0
     62     58     59     63   5     0.00000     0.00000     1.25520  0.0
     62     58     59     64   5     0.00000     0.00000     1.25520  0.0
     58     59     60     65   5     0.52300    -0.09205     2.34722  0.0
     63     59     60     65   5     0.00000     0.00000     3.10034  0.0
     64     59     60     65   5     0.00000     0.00000     3.10034  0.0
     59     60     65     66   5     0.52300    -0.09205     2.34722  0.0
     59     60     65     68   5     0.00000     0.00000     3.10034  0.0
     59     60     65     69   5     0.00000     0.00000     3.10034  0.0
     60     65     66     67   5     9.36379    -9.73617    -2.85767  0.0
     60     65     66     70   5     0.00000     0.00000     1.95811  0.0
     60     65     66     71   5     0.00000     0.00000     1.95811  0.0
     68     65     66     67   5     0.00000     0.00000     1.95811  0.0
     68     65     66     70   5     0.00000     0.00000     1.25520  0.0
     68     65     66     71   5     0.00000     0.00000     1.25520  0.0
     69     65     66     67   5     0.00000     0.00000     1.95811  0.0
     69     65     66     70   5     0.00000     0.00000     1.25520  0.0
     69     65     66     71   5     0.00000     0.00000     1.25520  0.0
     65     66     67     72   5     0.52300    -0.09205     2.34722  0.0
     70     66     67     72   5     0.00000     0.00000     3.10034  0.0
     71     66     67     72   5     0.00000     0.00000     3.10034  0.0
     66     67     72     73   5     0.52300    -0.09205     2.34722  0.0
     66     67     72     75   5     0.00000     0.00000     3.10034  0.0
     66     67     72     76   5     0.00000     0.00000     3.10034  0.0
     67     72     73     74   5     9.36379    -9.73617    -2.85767  0.0
     67     72     73     77   5     0.00000     0.00000     1.95811  0.0
     67     72     73     78   5     0.00000     0.00000     1.95811  0.0
     75     72     73     74   5     0.00000     0.00000     1.95811  0.0
     75     72     73     77   5     0.00000     0.00000     1.25520  0.0
     75     72     73     78   5     0.00000     0.00000     1.25520  0.0
     76     72     73     74   5     0.00000     0.00000     1.95811  0.0
     76     72     73     77   5     0.00000     0.00000     1.25520  0.0
     76     72     73     78   5     0.00000     0.00000     1.25520  0.0
     72     73     74     79   5     0.52300    -0.09205     2.34722  0.0
     77     73     74     79   5     0.00000     0.00000     3.10034  0.0
     78     73     74     79   5     0.00000     0.00000     3.10034  0.0
     73     74     79     80   5     0.52300    -0.09205     2.34722  0.0
     73     74     79     82   5     0.00000     0.00000     3.10034  0.0
     73     74     79     83   5     0.00000     0.00000     3.10034  0.0
     74     79     80     81   5     9.36379    -9.73617    -2.85767  0.0
     74     79     80     84   5     0.00000     0.00000     1.95811  0.0
     74     79     80     85   5     0.00000     0.00000     1.95811  0.0
     82     79     80     81   5     0.00000     0.00000     1.95811  0.0
     82     79     80     84   5     0.00000     0.00000     1.25520  0.0
     82     79     80     85   5     0.00000     0.00000     1.25520  0.0
     83     79     80     81   5     0.00000     0.00000     1.95811  0.0
     83     79     80     84   5     0.00000     0.00000     1.25520  0.0
     83     79     80     85   5     0.00000     0.00000     1.25520  0.0
     79     80     81     86   5     0.52300    -0.09205     2.34722  0.0
     84     80     81     86   5     0.00000     0.00000     3.10034  0.0
     85     80     81     86   5     0.00000     0.00000     3.10034  0.0
     80     81     86     87   5     0.52300    -0.09205     2.34722  0.0
     80     81     86     89   5     0.00000     0.00000     3.10034  0.0
     80     81     86     90   5     0.00000     0.00000     3.10034  0.0
     81     86     87     88   5     9.36379    -9.73617    -2.85767  0.0
     81     86     87     91   5     0.00000     0.00000     1.95811  0.0
     81     86     87     92   5     0.00000     0.00000     1.95811  0.0
     89     86     87     88   5     0.00000     0.00000     1.95811  0.0
     89     86     87     91   5     0.00000     0.00000     1.25520  0.0
     89     86     87     92   5     0.00000     0.00000     1.25520  0.0
     90     86     87     88   5     0.00000     0.00000     1.95811  0.0
     90     86     87     91   5     0.00000     0.00000     1.25520  0.0
     90     86     87     92   5     0.00000     0.00000     1.25520  0.0
     86     87     88     93   5     0.52300    -0.09205     2.34722  0.0
     91     87     88     93   5     0.00000     0.00000     3.10034  0.0
     92     87     88     93   5     0.00000     0.00000     3.10034  0.0
     87     88     93     94   5     0.52300    -0.09205     2.34722  0.0
     87     88     93     96   5     0.00000     0.00000     3.10034  0.0
     87     88     93     97   5     0.00000     0.00000     3.10034  0.0
     88     93     94     95   5     9.36379    -9.73617    -2.85767  0.0
     88     93     94     98   5     0.00000     0.00000     1.95811  0.0
     88     93     94     99   5     0.00000     0.00000     1.95811  0.0
     96     93     94     95   5     0.00000     0.00000     1.95811  0.0
     96     93     94     98   5     0.00000     0.00000     1.25520  0.0
     96     93     94     99   5     0.00000     0.00000     1.25520  0.0
     97     93     94     95   5     0.00000     0.00000     1.95811  0.0
     97     93     94     98   5     0.00000     0.00000     1.25520  0.0
     97     93     94     99   5     0.00000     0.00000     1.25520  0.0
     93     94     95    100   5     0.52300    -0.09205     2.34722  0.0
     98     94     95    100   5     0.00000     0.00000     3.10034  0.0
     99     94     95    100   5     0.00000     0.00000     3.10034  0.0
     94     95    100    101   5     0.52300    -0.09205     2.34722  0.0
     94     95    100    103   5     0.00000     0.00000     3.10034  0.0
     94     95    100    104   5     0.00000     0.00000     3.10034  0.0
     95    100    101    102   5     9.36379    -9.73617    -2.85767  0.0
     95    100    101    105   5     0.00000     0.00000     1.95811  0.0
     95    100    101    106   5     0.00000     0.00000     1.95811  0.0
    103    100    101    102   5     0.00000     0.00000     1.95811  0.0
    103    100    101    105   5     0.00000     0.00000     1.25520  0.0
    103    100    101    106   5     0.00000     0.00000     1.25520  0.0
    104    100    101    102   5     0.00000     0.00000     1.95811  0.0
    104    100    101    105   5     0.00000     0.00000     1.25520  0.0
    104    100    101    106   5     0.00000     0.00000     1.25520  0.0
    100    101    102    107   5     0.52300    -0.09205     2.34722  0.0
    105    101    102    107   5     0.00000     0.00000     3.10034  0.0
    106    101    102    107   5     0.00000     0.00000     3.10034  0.0
    101    102    107    108   5     0.52300    -0.09205     2.34722  0.0
    101    102    107    110   5     0.00000     0.00000     3.10034  0.0
    101    102    107    111   5     0.00000     0.00000     3.10034  0.0
    102    107    108    109   5     9.36379    -9.73617    -2.85767  0.0
    102    107    108    112   5     0.00000     0.00000     1.95811  0.0
    102    107    108    113   5     0.00000     0.00000     1.95811  0.0
    110    107    108    109   5     0.00000     0.00000     1.95811  0.0
    110    107    108    112   5     0.00000     0.00000     1.25520  0.0
    110    107    108    113   5     0.00000     0.00000     1.25520  0.0
    111    107    108    109   5     0.00000     0.00000     1.95811  0.0
    111    107    108    112   5     0.00000     0.00000     1.25520  0.0
    111    107    108    113   5     0.00000     0.00000     1.25520  0.0
    107    108    109    114   5     0.52300    -0.09205     2.34722  0.0
    112    108    109    114   5     0.00000     0.00000     3.10034  0.0
    113    108    109    114   5     0.00000     0.00000     3.10034  0.0
    108    109    114    115   5     0.52300    -0.09205     2.34722  0.0
    108    109    114    117   5     0.00000     0.00000     3.10034  0.0
    108    109    114    118   5     0.00000     0.00000     3.10034  0.0
    109    114    115    116   5     9.36379    -9.73617    -2.85767  0.0
    109    114    115    119   5     0.00000     0.00000     1.95811  0.0
    109    114    115    120   5     0.00000     0.00000     1.95811  0.0
    117    114    115    116   5     0.00000     0.00000     1.95811  0.0
    117    114    115    119   5     0.00000     0.00000     1.25520  0.0
    117    114    115    120   5     0.00000     0.00000     1.25520  0.0
    118    114    115    116   5     0.00000     0.00000     1.95811  0.0
    118    114    115    119   5     0.00000     0.00000     1.25520  0.0
    118    114    115    120   5     0.00000     0.00000     1.25520  0.0
    114    115    116    121   5     0.52300    -0.09205     2.34722  0.0
    119    115    116    121   5     0.00000     0.00000     3.10034  0.0
    120    115    116    121   5     0.00000     0.00000     3.10034  0.0
    115    116    121    122   5     0.52300    -0.09205     2.34722  0.0
    115    116    121    124   5     0.00000     0.00000     3.10034  0.0
    115    116    121    125   5     0.00000     0.00000     3.10034  0.0
    116    121    122    123   5     9.36379    -9.73617    -2.85767  0.0
    116    121    122    126   5     0.00000     0.00000     1.95811  0.0
    116    121    122    127   5     0.00000     0.00000     1.95811  0.0
    124    121    122    123   5     0.00000     0.00000     1.95811  0.0
    124    121    122    126   5     0.00000     0.00000     1.25520  0.0
    124    121    122    127   5     0.00000     0.00000     1.25520  0.0
    125    121    122    123   5     0.00000     0.00000     1.95811  0.0
    125    121    122    126   5     0.00000     0.00000     1.25520  0.0
    125    121    122    127   5     0.00000     0.00000     1.25520  0.0
    121    122    123    128   5     0.52300    -0.09205     2.34722  0.0
    126    122    123    128   5     0.00000     0.00000     3.10034  0.0
    127    122    123    128   5     0.00000     0.00000     3.10034  0.0
    122    123    128    129   5     0.52300    -0.09205     2.34722  0.0
    122    123    128    131   5     0.00000     0.00000     3.10034  0.0
    122    123    128    132   5     0.00000     0.00000     3.10034  0.0
    123    128    129    130   5     9.36379    -9.73617    -2.85767  0.0
    123    128    129    133   5     0.00000     0.00000     1.95811  0.0
    123    128    129    134   5     0.00000     0.00000     1.95811  0.0
    131    128    129    130   5     0.00000     0.00000     1.95811  0.0
    131    128    129    133   5     0.00000     0.00000     1.25520  0.0
    131    128    129    134   5     0.00000     0.00000     1.25520  0.0
    132    128    129    130   5     0.00000     0.00000     1.95811  0.0
    132    128    129    133   5     0.00000     0.00000     1.25520  0.0
    132    128    129    134   5     0.00000     0.00000     1.25520  0.0
    128    129    130    135   5     0.52300    -0.09205     2.34722  0.0
    133    129    130    135   5     0.00000     0.00000     3.10034  0.0
    134    129    130    135   5     0.00000     0.00000     3.10034  0.0
    129    130    135    136   5     0.52300    -0.09205     2.34722  0.0
    129    130    135    138   5     0.00000     0.00000     3.10034  0.0
    129    130    135    139   5     0.00000     0.00000     3.10034  0.0
    130    135    136    137   5    30.90721   -15.30926     0.00000  0.0
    130    135    136    140   5     0.00000     0.00000     1.95811  0.0
    130    135    136    141   5     0.00000     0.00000     1.95811  0.0
    138    135    136    137   5     0.00000     0.00000     1.95811  0.0
    138    135    136    140   5     0.00000     0.00000     1.25520  0.0
    138    135    136    141   5     0.00000     0.00000     1.25520  0.0
    139    135    136    137   5     0.00000     0.00000     1.95811  0.0
    139    135    136    140   5     0.00000     0.00000     1.25520  0.0
    139    135    136    141   5     0.00000     0.00000     1.25520  0.0
    135    136    137    142   5    -0.97069    -0.79078     1.77820  0.0
    140    136    137    142   5     0.00000     0.00000     1.62758  0.0
    141    136    137    142   5     0.00000     0.00000     1.62758  0.0
